Aluminum                                                                
SP        UB3LYP                                                      Aug-CC-pVTZ         
Number of atoms                            I                1
Info1-9                                    I   N=           9
          12          11           0           0           0         110
           1          18        -502
Full Title                                 C   N=           1
Aluminum    
Route                                      C   N=           5
# B3LYP/aug-cc-pVTZ EmpiricalDispersion=GD3 Pop=Full        
Charge                                     I                0
Multiplicity                               I                2
Number of electrons                        I               13
Number of alpha electrons                  I                7
Number of beta electrons                   I                6
Number of basis functions                  I               50
Number of independent functions            I               50
Number of point charges in /Mol/           I                0
Number of translation vectors              I                0
Atomic numbers                             I   N=           1
          13
Nuclear charges                            R   N=           1
  1.30000000E+01
Current cartesian coordinates              R   N=           3
  0.00000000E+00  0.00000000E+00  0.00000000E+00
Number of symbols in /Mol/                 I                0
Force Field                                I                0
Atom Types                                 C   N=           1
            
Int Atom Types                             I   N=           1
           0
MM charges                                 R   N=           1
  0.00000000E+00
Integer atomic weights                     I   N=           1
          27
Real atomic weights                        R   N=           1
  2.69815413E+01
Atom fragment info                         I   N=           1
           0
Atom residue num                           I   N=           1
           0
Nuclear spins                              I   N=           1
           5
Nuclear ZEff                               R   N=           1
 -1.15300000E+01
Nuclear ZNuc                               R   N=           1
  1.30000000E+01
Nuclear QMom                               R   N=           1
  1.46600000E+01
Nuclear GFac                               R   N=           1
  3.64150400E+00
MicOpt                                     I   N=           1
          -1
Number of residues                         I                0
Number of secondary structures             I                0
SymInf integers                            I   N=          26
           1           8           1           1           1           1
          -1          -1          -1           1          -1          -1
          -1           1          -1          -1          -1          -1
           1           1           1          -1           1           1
           1          -1
RotTr to input orientation                 R   N=          12
  0.00000000E+00  0.00000000E+00 -1.00000000E+00  0.00000000E+00  1.00000000E+00
  0.00000000E+00  1.00000000E+00  0.00000000E+00  0.00000000E+00  0.00000000E+00
  0.00000000E+00  0.00000000E+00
Number of contracted shells                I               16
Number of primitive shells                 I               52
Pure/Cartesian d shells                    I                0
Pure/Cartesian f shells                    I                0
Highest angular momentum                   I                3
Largest degree of contraction              I               11
Shell types                                I   N=          16
           0           0           0           0           0           0
           1           1           1           1           1          -2
          -2          -2          -3          -3
Number of primitives per shell             I   N=          16
          11           9           9           1           1           1
           6           6           1           1           1           1
           1           1           1           1
Shell to atom map                          I   N=          16
           1           1           1           1           1           1
           1           1           1           1           1           1
           1           1           1           1
Primitive exponents                        R   N=          52
  2.05500000E+05  3.07800000E+04  7.00600000E+03  1.98500000E+03  6.49100000E+02
  2.35000000E+02  9.16200000E+01  3.76700000E+01  1.59100000E+01  5.85000000E+00
  1.05700000E+00  1.98500000E+03  6.49100000E+02  2.35000000E+02  9.16200000E+01
  3.76700000E+01  1.59100000E+01  5.85000000E+00  2.54200000E+00  1.05700000E+00
  1.98500000E+03  6.49100000E+02  9.16200000E+01  3.76700000E+01  1.59100000E+01
  5.85000000E+00  2.54200000E+00  1.05700000E+00  1.45500000E-01  2.93100000E-01
  5.65000000E-02  2.21000000E-02  4.44400000E+02  1.05100000E+02  3.34700000E+01
  1.23300000E+01  4.86900000E+00  1.96100000E+00  1.05100000E+02  3.34700000E+01
  1.23300000E+01  4.86900000E+00  1.96100000E+00  1.88800000E-01  7.83400000E-01
  5.55700000E-02  1.46000000E-02  1.09000000E-01  3.33000000E-01  3.56000000E-02
  2.44000000E-01  8.58000000E-02
Contraction coefficients                   R   N=          52
  6.77180669E-05  5.25890628E-04  2.75543086E-03  1.14451711E-02  3.97216074E-02
  1.14746177E-01  2.60156128E-01  3.94974372E-01  2.83098874E-01  4.55548726E-02
  6.55473276E-03 -2.49960826E-05 -2.34310509E-04 -2.16500659E-03 -1.22583721E-02
 -5.29633487E-02 -9.31223535E-02  1.36693176E-01  5.52754088E-01  4.29070531E-01
 -1.92825061E-06  5.53839555E-06  2.60103751E-04  9.40991621E-04  3.73991714E-03
 -8.35633262E-03 -6.95843225E-02 -2.96925847E-01  1.12741530E+00  1.00000000E+00
  1.00000000E+00  1.00000000E+00  1.84911477E-03  1.48476953E-02  6.95589704E-02
  2.13479149E-01  4.09459218E-01  4.64527301E-01 -2.48798010E-04 -1.89637306E-04
 -6.77424274E-03 -1.40915895E-03 -5.07942828E-02  1.01113384E+00  1.00000000E+00
  1.00000000E+00  1.00000000E+00  1.00000000E+00  1.00000000E+00  1.00000000E+00
  1.00000000E+00  1.00000000E+00
Coordinates of each shell                  R   N=          48
  0.00000000E+00  0.00000000E+00  0.00000000E+00  0.00000000E+00  0.00000000E+00
  0.00000000E+00  0.00000000E+00  0.00000000E+00  0.00000000E+00  0.00000000E+00
  0.00000000E+00  0.00000000E+00  0.00000000E+00  0.00000000E+00  0.00000000E+00
  0.00000000E+00  0.00000000E+00  0.00000000E+00  0.00000000E+00  0.00000000E+00
  0.00000000E+00  0.00000000E+00  0.00000000E+00  0.00000000E+00  0.00000000E+00
  0.00000000E+00  0.00000000E+00  0.00000000E+00  0.00000000E+00  0.00000000E+00
  0.00000000E+00  0.00000000E+00  0.00000000E+00  0.00000000E+00  0.00000000E+00
  0.00000000E+00  0.00000000E+00  0.00000000E+00  0.00000000E+00  0.00000000E+00
  0.00000000E+00  0.00000000E+00  0.00000000E+00  0.00000000E+00  0.00000000E+00
  0.00000000E+00  0.00000000E+00  0.00000000E+00
Num ILSW                                   I              100
ILSW                                       I   N=         100
           1           0           0           0           2           0
           0           0           0           0         402          -1
           5           0           0           0           0           0
           0           0           1           0           0           0
           1           0           0           0           0           0
           0           0      100000           0          -1           0
           0           0           0           0           0           0
           0           0           0           1           0           0
           0 -2000000000           1           0           0           0
           0           1         131          52           0           0
           0           0           5           0           0           0
           0           0           0           0           0           1
           0           0           0           0           0           0
           0           0           0           0           0           0
           0           0           0           0           0           0
           0           0           0           0           0           0
           0           0           0           0
Num RLSW                                   I               52
RLSW                                       R   N=          52
  8.00000000E-01  7.20000000E-01  1.00000000E+00  8.10000000E-01  2.00000000E-01
  0.00000000E+00  0.00000000E+00  1.00000000E+00  0.00000000E+00  0.00000000E+00
  0.00000000E+00  0.00000000E+00  1.00000000E+00  0.00000000E+00  0.00000000E+00
  0.00000000E+00  0.00000000E+00  1.00000000E+00  0.00000000E+00  0.00000000E+00
  0.00000000E+00  0.00000000E+00  1.00000000E+00  0.00000000E+00  0.00000000E+00
  0.00000000E+00  0.00000000E+00  1.00000000E+00  0.00000000E+00  0.00000000E+00
  0.00000000E+00  0.00000000E+00  1.00000000E+00  0.00000000E+00  0.00000000E+00
  0.00000000E+00  0.00000000E+00  0.00000000E+00  1.00000000E+00  1.00000000E+00
  0.00000000E+00  1.00000000E+00  0.00000000E+00  0.00000000E+00  0.00000000E+00
  0.00000000E+00  0.00000000E+00  0.00000000E+00  0.00000000E+00  0.00000000E+00
  0.00000000E+00  0.00000000E+00
MxBond                                     I                1
NBond                                      I   N=           1
           0
IBond                                      I   N=           1
           0
RBond                                      R   N=           1
  0.00000000E+00
Virial Ratio                               R      2.003407029391233E+00
SCF Energy                                 R     -2.423897874922719E+02
Total Energy                               R     -2.423897874922719E+02
S**2                                       R      7.547656012322204E-01
S**2 after annihilation                    R      7.500000216748841E-01
RMS Density                                R      1.565001455979612E-09
Job Status                                 I                1
Nuclear derivative order                   I                0
External E-field                           R   N=          35
  0.00000000E+00  0.00000000E+00  0.00000000E+00  0.00000000E+00  0.00000000E+00
  0.00000000E+00  0.00000000E+00  0.00000000E+00  0.00000000E+00  0.00000000E+00
  0.00000000E+00  0.00000000E+00  0.00000000E+00  0.00000000E+00  0.00000000E+00
  0.00000000E+00  0.00000000E+00  0.00000000E+00  0.00000000E+00  0.00000000E+00
  0.00000000E+00  0.00000000E+00  0.00000000E+00  0.00000000E+00  0.00000000E+00
  0.00000000E+00  0.00000000E+00  0.00000000E+00  0.00000000E+00  0.00000000E+00
  0.00000000E+00  0.00000000E+00  0.00000000E+00  0.00000000E+00  0.00000000E+00
IOpCl                                      I                1
IROHF                                      I                0
Alpha Orbital Energies                     R   N=          50
 -5.60768726E+01 -4.15286021E+00 -2.70636299E+00 -2.70636299E+00 -2.70366170E+00
 -3.21302590E-01 -1.33329002E-01 -7.77531317E-02 -7.77531317E-02  4.48470303E-03
  1.83149775E-02  2.32911940E-02  2.32911940E-02  5.12278463E-02  5.12278463E-02
  5.47233851E-02  5.84337014E-02  5.84523104E-02  2.17543383E-01  2.17543383E-01
  2.20166463E-01  2.24584666E-01  2.26855826E-01  2.26866341E-01  2.32908171E-01
  2.32908171E-01  2.33156963E-01  2.60298373E-01  2.60298938E-01  2.61538092E-01
  2.62863369E-01  2.62863369E-01  2.66503713E-01  2.66503713E-01  7.57872357E-01
  7.57872357E-01  7.60409817E-01  7.62437038E-01  7.62439486E-01  8.87236038E-01
  8.87236223E-01  8.88314188E-01  8.88749965E-01  8.88749965E-01  8.94723289E-01
  8.94723289E-01  1.59659001E+00  1.95293999E+00  1.95293999E+00  1.95585404E+00
Beta Orbital Energies                      R   N=          50
 -5.60748075E+01 -4.15055684E+00 -2.70526241E+00 -2.70526241E+00 -2.69559844E+00
 -2.97002602E-01 -7.29532235E-02 -7.29532235E-02 -5.06484228E-02  7.28024529E-03
  2.37576642E-02  2.37576642E-02  2.74344806E-02  5.68397593E-02  5.68399230E-02
  5.95794542E-02  5.95794542E-02  6.31736667E-02  2.26924636E-01  2.26924752E-01
  2.34307201E-01  2.34307201E-01  2.39560968E-01  2.41181639E-01  2.41181639E-01
  2.48500909E-01  2.50868116E-01  2.63406525E-01  2.63406525E-01  2.67940429E-01
  2.67940432E-01  2.73094413E-01  2.73094413E-01  2.74906244E-01  7.60321465E-01
  7.60321498E-01  7.78688487E-01  7.78688487E-01  7.85665340E-01  8.91585163E-01
  8.91585163E-01  9.07169744E-01  9.07169745E-01  9.16965546E-01  9.16965546E-01
  9.20506597E-01  1.60379954E+00  1.95402760E+00  1.95402760E+00  1.97329513E+00
Alpha MO coefficients                      R   N=        2500
  1.00225967E+00 -6.19208495E-03  4.66800829E-03 -4.64755098E-03 -2.86519818E-03
  9.33557030E-04  0.00000000E+00  0.00000000E+00  0.00000000E+00  0.00000000E+00
  0.00000000E+00  0.00000000E+00  0.00000000E+00  0.00000000E+00  0.00000000E+00
  0.00000000E+00  0.00000000E+00  0.00000000E+00  0.00000000E+00  0.00000000E+00
  0.00000000E+00  1.79462746E-07  0.00000000E+00  0.00000000E+00  1.64341053E-17
  0.00000000E+00 -2.52175314E-06  0.00000000E+00  0.00000000E+00 -1.85934341E-16
  0.00000000E+00 -2.22546094E-07  0.00000000E+00  0.00000000E+00  9.76681012E-18
  0.00000000E+00  0.00000000E+00  0.00000000E+00  0.00000000E+00  0.00000000E+00
  0.00000000E+00  0.00000000E+00  0.00000000E+00  0.00000000E+00  0.00000000E+00
  0.00000000E+00  0.00000000E+00  0.00000000E+00  0.00000000E+00  0.00000000E+00
 -2.60064508E-01  9.94044284E-01 -3.17780171E-02  6.87195319E-02  1.40594911E-02
 -4.08932079E-03  0.00000000E+00  0.00000000E+00  0.00000000E+00  0.00000000E+00
  0.00000000E+00  0.00000000E+00  0.00000000E+00  0.00000000E+00  0.00000000E+00
  0.00000000E+00  0.00000000E+00  0.00000000E+00  0.00000000E+00  0.00000000E+00
  0.00000000E+00  2.98655594E-04  0.00000000E+00  0.00000000E+00 -6.66204841E-16
  0.00000000E+00 -3.34644454E-04  0.00000000E+00  0.00000000E+00  1.02561098E-15
  0.00000000E+00 -9.30424246E-05  0.00000000E+00  0.00000000E+00  2.05905388E-16
  0.00000000E+00  0.00000000E+00  0.00000000E+00  0.00000000E+00  0.00000000E+00
  0.00000000E+00  0.00000000E+00  0.00000000E+00  0.00000000E+00  0.00000000E+00
  0.00000000E+00  0.00000000E+00  0.00000000E+00  0.00000000E+00  0.00000000E+00
  0.00000000E+00  0.00000000E+00  0.00000000E+00  0.00000000E+00  0.00000000E+00
  0.00000000E+00  8.78531077E-01  0.00000000E+00  0.00000000E+00  1.91662398E-02
  0.00000000E+00  0.00000000E+00  1.88917830E-01  0.00000000E+00  0.00000000E+00
 -6.16115364E-03  0.00000000E+00  0.00000000E+00  1.85792907E-03  0.00000000E+00
  0.00000000E+00  0.00000000E+00  0.00000000E+00  0.00000000E+00  0.00000000E+00
  0.00000000E+00  0.00000000E+00  0.00000000E+00  0.00000000E+00  0.00000000E+00
  0.00000000E+00  0.00000000E+00  0.00000000E+00  0.00000000E+00  0.00000000E+00
  0.00000000E+00  0.00000000E+00  3.18244931E-05  0.00000000E+00  0.00000000E+00
  0.00000000E+00 -5.64633446E-10  0.00000000E+00  0.00000000E+00  2.45358908E-05
  0.00000000E+00  0.00000000E+00  0.00000000E+00  1.16471878E-09  0.00000000E+00
  0.00000000E+00  0.00000000E+00  0.00000000E+00  0.00000000E+00  0.00000000E+00
  0.00000000E+00  0.00000000E+00  8.78531077E-01  0.00000000E+00  0.00000000E+00
  1.91662398E-02  0.00000000E+00  0.00000000E+00  1.88917830E-01  0.00000000E+00
  0.00000000E+00 -6.16115364E-03  0.00000000E+00  0.00000000E+00  1.85792907E-03
  0.00000000E+00  0.00000000E+00  0.00000000E+00  0.00000000E+00  0.00000000E+00
  0.00000000E+00  0.00000000E+00  0.00000000E+00  0.00000000E+00  0.00000000E+00
  0.00000000E+00  0.00000000E+00  0.00000000E+00  0.00000000E+00  0.00000000E+00
  0.00000000E+00  0.00000000E+00  0.00000000E+00  3.18244931E-05  0.00000000E+00
  0.00000000E+00  0.00000000E+00  5.64632958E-10  0.00000000E+00  0.00000000E+00
  2.45358908E-05  0.00000000E+00  0.00000000E+00  0.00000000E+00 -1.16471847E-09
  0.00000000E+00  0.00000000E+00  0.00000000E+00  0.00000000E+00  0.00000000E+00
  0.00000000E+00  0.00000000E+00  0.00000000E+00  8.80005956E-01  0.00000000E+00
  0.00000000E+00  1.97573452E-02  0.00000000E+00  0.00000000E+00  1.86654752E-01
  0.00000000E+00  0.00000000E+00 -6.42032900E-03  0.00000000E+00  0.00000000E+00
  1.94122982E-03  0.00000000E+00  0.00000000E+00  0.00000000E+00  0.00000000E+00
  0.00000000E+00  0.00000000E+00  0.00000000E+00  0.00000000E+00  0.00000000E+00
  0.00000000E+00  0.00000000E+00  0.00000000E+00  0.00000000E+00  0.00000000E+00
  0.00000000E+00 -3.01975722E-05  0.00000000E+00  0.00000000E+00  3.11362617E-16
  0.00000000E+00  0.00000000E+00  0.00000000E+00  5.23154516E-05  0.00000000E+00
  0.00000000E+00 -1.92974704E-16  0.00000000E+00  0.00000000E+00  0.00000000E+00
  6.47550629E-02 -2.73286676E-01  5.74044422E-01  1.49725252E-01  3.72795642E-01
 -5.43720275E-03  0.00000000E+00  0.00000000E+00  0.00000000E+00  0.00000000E+00
  0.00000000E+00  0.00000000E+00  0.00000000E+00  0.00000000E+00  0.00000000E+00
  0.00000000E+00  0.00000000E+00  0.00000000E+00  0.00000000E+00  0.00000000E+00
  0.00000000E+00  1.82182138E-02  0.00000000E+00  0.00000000E+00 -6.12441324E-17
  0.00000000E+00  9.58968170E-03  0.00000000E+00  0.00000000E+00  4.37216596E-16
  0.00000000E+00  3.30270181E-03  0.00000000E+00  0.00000000E+00 -2.41472464E-16
  0.00000000E+00  0.00000000E+00  0.00000000E+00  0.00000000E+00  0.00000000E+00
  0.00000000E+00  0.00000000E+00  0.00000000E+00  0.00000000E+00  0.00000000E+00
  0.00000000E+00  0.00000000E+00  0.00000000E+00  0.00000000E+00  0.00000000E+00
  0.00000000E+00  0.00000000E+00  0.00000000E+00  0.00000000E+00  0.00000000E+00
  0.00000000E+00  0.00000000E+00  0.00000000E+00 -1.70664227E-01  0.00000000E+00
  0.00000000E+00  5.12688840E-01  0.00000000E+00  0.00000000E+00  3.04127106E-02
  0.00000000E+00  0.00000000E+00  5.52982527E-01  0.00000000E+00  0.00000000E+00
  4.82892917E-02  0.00000000E+00  0.00000000E+00  0.00000000E+00  0.00000000E+00
  0.00000000E+00  0.00000000E+00  0.00000000E+00  0.00000000E+00  0.00000000E+00
  0.00000000E+00  0.00000000E+00  0.00000000E+00  0.00000000E+00  0.00000000E+00
  0.00000000E+00  2.45091225E-03  0.00000000E+00  0.00000000E+00 -2.56119159E-16
  0.00000000E+00  0.00000000E+00  0.00000000E+00  2.03625378E-03  0.00000000E+00
  0.00000000E+00  4.54019221E-16  0.00000000E+00  0.00000000E+00  0.00000000E+00
  0.00000000E+00  0.00000000E+00  0.00000000E+00  0.00000000E+00  0.00000000E+00
  0.00000000E+00 -1.62250015E-01  0.00000000E+00  0.00000000E+00  4.62153275E-01
  0.00000000E+00  0.00000000E+00  2.97744730E-02  0.00000000E+00  0.00000000E+00
  5.69549110E-01  0.00000000E+00  0.00000000E+00  1.06032695E-01  0.00000000E+00
  0.00000000E+00  0.00000000E+00  0.00000000E+00  0.00000000E+00  0.00000000E+00
  0.00000000E+00  0.00000000E+00  0.00000000E+00  0.00000000E+00  0.00000000E+00
  0.00000000E+00  0.00000000E+00  0.00000000E+00  0.00000000E+00  0.00000000E+00
  0.00000000E+00  0.00000000E+00  4.42832442E-03  0.00000000E+00  0.00000000E+00
  0.00000000E+00  9.20627734E-07  0.00000000E+00  0.00000000E+00  1.08195663E-02
  0.00000000E+00  0.00000000E+00  0.00000000E+00 -3.32002269E-06  0.00000000E+00
  0.00000000E+00  0.00000000E+00  0.00000000E+00  0.00000000E+00  0.00000000E+00
  0.00000000E+00  0.00000000E+00 -1.62250015E-01  0.00000000E+00  0.00000000E+00
  4.62153275E-01  0.00000000E+00  0.00000000E+00  2.97744730E-02  0.00000000E+00
  0.00000000E+00  5.69549110E-01  0.00000000E+00  0.00000000E+00  1.06032695E-01
  0.00000000E+00  0.00000000E+00  0.00000000E+00  0.00000000E+00  0.00000000E+00
  0.00000000E+00  0.00000000E+00  0.00000000E+00  0.00000000E+00  0.00000000E+00
  0.00000000E+00  0.00000000E+00  0.00000000E+00  0.00000000E+00  0.00000000E+00
  0.00000000E+00  0.00000000E+00  0.00000000E+00  4.42832442E-03  0.00000000E+00
  0.00000000E+00  0.00000000E+00 -9.20627735E-07  0.00000000E+00  0.00000000E+00
  1.08195663E-02  0.00000000E+00  0.00000000E+00  0.00000000E+00  3.32002269E-06
 -2.15319185E-02  1.18717613E-01 -1.46222671E-01 -8.80125702E-02 -1.05078466E+00
  1.71753174E+00  0.00000000E+00  0.00000000E+00  0.00000000E+00  0.00000000E+00
  0.00000000E+00  0.00000000E+00  0.00000000E+00  0.00000000E+00  0.00000000E+00
  0.00000000E+00  0.00000000E+00  0.00000000E+00  0.00000000E+00  0.00000000E+00
  0.00000000E+00  9.98949794E-04  0.00000000E+00  0.00000000E+00  4.37035393E-17
  0.00000000E+00  3.38175631E-03  0.00000000E+00  0.00000000E+00 -1.75493785E-15
  0.00000000E+00  6.62357540E-02  0.00000000E+00  0.00000000E+00 -1.19417019E-14
  0.00000000E+00  0.00000000E+00  0.00000000E+00  0.00000000E+00  0.00000000E+00
  0.00000000E+00  0.00000000E+00  0.00000000E+00  0.00000000E+00  0.00000000E+00
  0.00000000E+00  0.00000000E+00  0.00000000E+00  0.00000000E+00  0.00000000E+00
  0.00000000E+00  0.00000000E+00  0.00000000E+00  0.00000000E+00  0.00000000E+00
  0.00000000E+00  0.00000000E+00  0.00000000E+00  6.33433078E-02  0.00000000E+00
  0.00000000E+00 -1.87242826E-01  0.00000000E+00  0.00000000E+00 -1.64501303E-02
  0.00000000E+00  0.00000000E+00 -4.12815228E-01  0.00000000E+00  0.00000000E+00
  1.15860870E+00  0.00000000E+00  0.00000000E+00  0.00000000E+00  0.00000000E+00
  0.00000000E+00  0.00000000E+00  0.00000000E+00  0.00000000E+00  0.00000000E+00
  0.00000000E+00  0.00000000E+00  0.00000000E+00  0.00000000E+00  0.00000000E+00
  0.00000000E+00 -5.33801678E-04  0.00000000E+00  0.00000000E+00 -1.34980915E-16
  0.00000000E+00  0.00000000E+00  0.00000000E+00 -6.27123260E-04  0.00000000E+00
  0.00000000E+00 -1.23426852E-17  0.00000000E+00  0.00000000E+00  0.00000000E+00
  0.00000000E+00  0.00000000E+00  0.00000000E+00  0.00000000E+00  0.00000000E+00
  0.00000000E+00  0.00000000E+00  7.18084802E-02  0.00000000E+00  0.00000000E+00
 -1.97909044E-01  0.00000000E+00  0.00000000E+00 -1.85564679E-02  0.00000000E+00
  0.00000000E+00 -4.74714662E-01  0.00000000E+00  0.00000000E+00  1.16351780E+00
  0.00000000E+00  0.00000000E+00  0.00000000E+00  0.00000000E+00  0.00000000E+00
  0.00000000E+00  0.00000000E+00  0.00000000E+00  0.00000000E+00  0.00000000E+00
  0.00000000E+00  0.00000000E+00  0.00000000E+00  0.00000000E+00  0.00000000E+00
  0.00000000E+00  0.00000000E+00  0.00000000E+00 -3.37012531E-03  0.00000000E+00
  0.00000000E+00  0.00000000E+00 -2.80852639E-06  0.00000000E+00  0.00000000E+00
  3.86698065E-03  0.00000000E+00  0.00000000E+00  0.00000000E+00  1.17486072E-05
  0.00000000E+00  0.00000000E+00  0.00000000E+00  0.00000000E+00  0.00000000E+00
  0.00000000E+00  7.18084802E-02  0.00000000E+00  0.00000000E+00 -1.97909044E-01
  0.00000000E+00  0.00000000E+00 -1.85564679E-02  0.00000000E+00  0.00000000E+00
 -4.74714662E-01  0.00000000E+00  0.00000000E+00  1.16351780E+00  0.00000000E+00
  0.00000000E+00  0.00000000E+00  0.00000000E+00  0.00000000E+00  0.00000000E+00
  0.00000000E+00  0.00000000E+00  0.00000000E+00  0.00000000E+00  0.00000000E+00
  0.00000000E+00  0.00000000E+00  0.00000000E+00  0.00000000E+00  0.00000000E+00
  0.00000000E+00  0.00000000E+00 -3.37012531E-03  0.00000000E+00  0.00000000E+00
  0.00000000E+00  2.80852639E-06  0.00000000E+00  0.00000000E+00  3.86698065E-03
  0.00000000E+00  0.00000000E+00  0.00000000E+00 -1.17486073E-05  0.00000000E+00
  0.00000000E+00  0.00000000E+00  0.00000000E+00  0.00000000E+00  0.00000000E+00
  0.00000000E+00  0.00000000E+00  0.00000000E+00  0.00000000E+00  0.00000000E+00
  0.00000000E+00  0.00000000E+00  0.00000000E+00  0.00000000E+00  0.00000000E+00
  0.00000000E+00  0.00000000E+00  0.00000000E+00  0.00000000E+00  0.00000000E+00
  0.00000000E+00  0.00000000E+00  6.70353205E-02  0.00000000E+00  0.00000000E+00
  0.00000000E+00  0.00000000E+00  7.88695038E-02  0.00000000E+00  0.00000000E+00
  0.00000000E+00  0.00000000E+00  9.40543235E-01  0.00000000E+00  0.00000000E+00
  0.00000000E+00  0.00000000E+00  0.00000000E+00  0.00000000E+00  0.00000000E+00
  0.00000000E+00  0.00000000E+00  0.00000000E+00  0.00000000E+00  0.00000000E+00
  0.00000000E+00  0.00000000E+00  0.00000000E+00  0.00000000E+00  0.00000000E+00
  0.00000000E+00  0.00000000E+00  0.00000000E+00  0.00000000E+00  0.00000000E+00
  0.00000000E+00  0.00000000E+00  0.00000000E+00  0.00000000E+00  0.00000000E+00
  0.00000000E+00  0.00000000E+00  0.00000000E+00  0.00000000E+00  0.00000000E+00
  0.00000000E+00  0.00000000E+00  0.00000000E+00  0.00000000E+00  0.00000000E+00
  0.00000000E+00  0.00000000E+00  0.00000000E+00  6.70353205E-02  0.00000000E+00
  0.00000000E+00  0.00000000E+00  0.00000000E+00  7.88695038E-02  0.00000000E+00
  0.00000000E+00  0.00000000E+00  0.00000000E+00  9.40543235E-01  0.00000000E+00
  0.00000000E+00  0.00000000E+00  0.00000000E+00  0.00000000E+00  0.00000000E+00
  0.00000000E+00  0.00000000E+00  0.00000000E+00  0.00000000E+00  0.00000000E+00
  0.00000000E+00  0.00000000E+00  0.00000000E+00  0.00000000E+00  0.00000000E+00
 -2.30698545E-04 -2.13178986E-03 -1.02508091E-02 -2.50913618E-03  8.72140069E-02
 -1.26983568E-01  0.00000000E+00  0.00000000E+00  0.00000000E+00  0.00000000E+00
  0.00000000E+00  0.00000000E+00  0.00000000E+00  0.00000000E+00  0.00000000E+00
  0.00000000E+00  0.00000000E+00  0.00000000E+00  0.00000000E+00  0.00000000E+00
  0.00000000E+00  6.98173907E-02  0.00000000E+00  0.00000000E+00  3.48454069E-15
  0.00000000E+00  7.99241863E-02  0.00000000E+00  0.00000000E+00  1.84796450E-15
  0.00000000E+00  9.35892867E-01  0.00000000E+00  0.00000000E+00  2.06906921E-14
  0.00000000E+00  0.00000000E+00  0.00000000E+00  0.00000000E+00  0.00000000E+00
  0.00000000E+00  0.00000000E+00  0.00000000E+00  0.00000000E+00  0.00000000E+00
  0.00000000E+00  0.00000000E+00  0.00000000E+00  0.00000000E+00  0.00000000E+00
  0.00000000E+00  0.00000000E+00  0.00000000E+00  0.00000000E+00  0.00000000E+00
  0.00000000E+00  0.00000000E+00  0.00000000E+00  0.00000000E+00  0.00000000E+00
  0.00000000E+00  0.00000000E+00  0.00000000E+00  0.00000000E+00  0.00000000E+00
  0.00000000E+00  0.00000000E+00  0.00000000E+00  0.00000000E+00  0.00000000E+00
  0.00000000E+00  0.00000000E+00  0.00000000E+00  0.00000000E+00  0.00000000E+00
  5.00932121E-02  0.00000000E+00  0.00000000E+00  0.00000000E+00  0.00000000E+00
  7.55316479E-02  0.00000000E+00  0.00000000E+00  0.00000000E+00  0.00000000E+00
  9.52787399E-01  0.00000000E+00  0.00000000E+00  0.00000000E+00  0.00000000E+00
  0.00000000E+00  0.00000000E+00  0.00000000E+00  0.00000000E+00  0.00000000E+00
  0.00000000E+00  0.00000000E+00  0.00000000E+00  0.00000000E+00  0.00000000E+00
 -5.54187842E-16  3.98788097E-16 -1.08874008E-14 -1.96238828E-15  1.73413130E-15
  1.63928378E-14  0.00000000E+00  0.00000000E+00  0.00000000E+00  0.00000000E+00
  0.00000000E+00  0.00000000E+00  0.00000000E+00  0.00000000E+00  0.00000000E+00
  0.00000000E+00  0.00000000E+00  0.00000000E+00  0.00000000E+00  0.00000000E+00
  0.00000000E+00 -8.97603662E-16  0.00000000E+00  0.00000000E+00  5.01975213E-02
  0.00000000E+00 -2.07372539E-15  0.00000000E+00  0.00000000E+00  7.55291739E-02
  0.00000000E+00 -2.09976262E-14  0.00000000E+00  0.00000000E+00  9.52718738E-01
  0.00000000E+00  0.00000000E+00  0.00000000E+00  0.00000000E+00  0.00000000E+00
  0.00000000E+00  0.00000000E+00  0.00000000E+00  0.00000000E+00  0.00000000E+00
  0.00000000E+00  0.00000000E+00  0.00000000E+00  0.00000000E+00  0.00000000E+00
  0.00000000E+00  0.00000000E+00  0.00000000E+00  0.00000000E+00  0.00000000E+00
  0.00000000E+00  0.00000000E+00  0.00000000E+00  0.00000000E+00  0.00000000E+00
  0.00000000E+00  0.00000000E+00  0.00000000E+00  0.00000000E+00  0.00000000E+00
  0.00000000E+00  0.00000000E+00  0.00000000E+00  0.00000000E+00  0.00000000E+00
  0.00000000E+00  0.00000000E+00  1.13828011E+00  0.00000000E+00  0.00000000E+00
  0.00000000E+00  0.00000000E+00  1.18851409E-01  0.00000000E+00  0.00000000E+00
  0.00000000E+00  0.00000000E+00 -8.02875631E-01  0.00000000E+00  0.00000000E+00
  0.00000000E+00  0.00000000E+00  0.00000000E+00  0.00000000E+00  0.00000000E+00
  0.00000000E+00  0.00000000E+00  0.00000000E+00  0.00000000E+00  0.00000000E+00
  0.00000000E+00  0.00000000E+00  0.00000000E+00  0.00000000E+00  0.00000000E+00
  0.00000000E+00  0.00000000E+00  0.00000000E+00  0.00000000E+00  0.00000000E+00
  0.00000000E+00  0.00000000E+00  0.00000000E+00  0.00000000E+00  0.00000000E+00
  0.00000000E+00  0.00000000E+00  0.00000000E+00  0.00000000E+00  0.00000000E+00
  0.00000000E+00  0.00000000E+00  0.00000000E+00  0.00000000E+00  0.00000000E+00
  0.00000000E+00  0.00000000E+00  0.00000000E+00  1.13828011E+00  0.00000000E+00
  0.00000000E+00  0.00000000E+00  0.00000000E+00  1.18851409E-01  0.00000000E+00
  0.00000000E+00  0.00000000E+00  0.00000000E+00 -8.02875631E-01  0.00000000E+00
  0.00000000E+00  0.00000000E+00  0.00000000E+00  0.00000000E+00  0.00000000E+00
  0.00000000E+00  0.00000000E+00  0.00000000E+00  0.00000000E+00  0.00000000E+00
  0.00000000E+00  0.00000000E+00  0.00000000E+00  0.00000000E+00  0.00000000E+00
 -1.23765436E-02 -4.55348171E-03 -2.88870379E-01 -8.11320905E-02  5.40811545E-01
 -2.52878262E-01  0.00000000E+00  0.00000000E+00  0.00000000E+00  0.00000000E+00
  0.00000000E+00  0.00000000E+00  0.00000000E+00  0.00000000E+00  0.00000000E+00
  0.00000000E+00  0.00000000E+00  0.00000000E+00  0.00000000E+00  0.00000000E+00
  0.00000000E+00  1.12295780E+00  0.00000000E+00  0.00000000E+00  1.92976136E-13
  0.00000000E+00  1.18501167E-01  0.00000000E+00  0.00000000E+00  1.81319118E-14
  0.00000000E+00 -7.96778572E-01  0.00000000E+00  0.00000000E+00 -1.33347074E-13
  0.00000000E+00  0.00000000E+00  0.00000000E+00  0.00000000E+00  0.00000000E+00
  0.00000000E+00  0.00000000E+00  0.00000000E+00  0.00000000E+00  0.00000000E+00
  0.00000000E+00  0.00000000E+00  0.00000000E+00  0.00000000E+00  0.00000000E+00
  0.00000000E+00  0.00000000E+00  0.00000000E+00  0.00000000E+00  0.00000000E+00
  0.00000000E+00  0.00000000E+00  0.00000000E+00  1.69108271E-01  0.00000000E+00