 Entering Gaussian System, Link 0=g16
 Input=Al.com
 Output=Al.log
 Initial command:
 /usr/site/hpc/x86_64/glibc-2.17/broadwell/gaussian/g16_a.03/pgi-16.5/g16/l1.exe "/home/c744/c7441090/data/Gau-3857989.inp" -scrdir="/home/c744/c7441090/data/"
 Entering Link 1 = /usr/site/hpc/x86_64/glibc-2.17/broadwell/gaussian/g16_a.03/pgi-16.5/g16/l1.exe PID=   3857990.
  
 Copyright (c) 1988,1990,1992,1993,1995,1998,2003,2009,2016,
            Gaussian, Inc.  All Rights Reserved.
  
 This is part of the Gaussian(R) 16 program.  It is based on
 the Gaussian(R) 09 system (copyright 2009, Gaussian, Inc.),
 the Gaussian(R) 03 system (copyright 2003, Gaussian, Inc.),
 the Gaussian(R) 98 system (copyright 1998, Gaussian, Inc.),
 the Gaussian(R) 94 system (copyright 1995, Gaussian, Inc.),
 the Gaussian 92(TM) system (copyright 1992, Gaussian, Inc.),
 the Gaussian 90(TM) system (copyright 1990, Gaussian, Inc.),
 the Gaussian 88(TM) system (copyright 1988, Gaussian, Inc.),
 the Gaussian 86(TM) system (copyright 1986, Carnegie Mellon
 University), and the Gaussian 82(TM) system (copyright 1983,
 Carnegie Mellon University). Gaussian is a federally registered
 trademark of Gaussian, Inc.
  
 This software contains proprietary and confidential information,
 including trade secrets, belonging to Gaussian, Inc.
  
 This software is provided under written license and may be
 used, copied, transmitted, or stored only in accord with that
 written license.
  
 The following legend is applicable only to US Government
 contracts under FAR:
  
                    RESTRICTED RIGHTS LEGEND
  
 Use, reproduction and disclosure by the US Government is
 subject to restrictions as set forth in subparagraphs (a)
 and (c) of the Commercial Computer Software - Restricted
 Rights clause in FAR 52.227-19.
  
 Gaussian, Inc.
 340 Quinnipiac St., Bldg. 40, Wallingford CT 06492
  
  
 ---------------------------------------------------------------
 Warning -- This program may not be used in any manner that
 competes with the business of Gaussian, Inc. or will provide
 assistance to any competitor of Gaussian, Inc.  The licensee
 of this program is prohibited from giving any competitor of
 Gaussian, Inc. access to this program.  By using this program,
 the user acknowledges that Gaussian, Inc. is engaged in the
 business of creating and licensing software in the field of
 computational chemistry and represents and warrants to the
 licensee that it is not a competitor of Gaussian, Inc. and that
 it will not use this program in any manner prohibited above.
 ---------------------------------------------------------------
  

 Cite this work as:
 Gaussian 16, Revision A.03,
 M. J. Frisch, G. W. Trucks, H. B. Schlegel, G. E. Scuseria, 
 M. A. Robb, J. R. Cheeseman, G. Scalmani, V. Barone, 
 G. A. Petersson, H. Nakatsuji, X. Li, M. Caricato, A. V. Marenich, 
 J. Bloino, B. G. Janesko, R. Gomperts, B. Mennucci, H. P. Hratchian, 
 J. V. Ortiz, A. F. Izmaylov, J. L. Sonnenberg, D. Williams-Young, 
 F. Ding, F. Lipparini, F. Egidi, J. Goings, B. Peng, A. Petrone, 
 T. Henderson, D. Ranasinghe, V. G. Zakrzewski, J. Gao, N. Rega, 
 G. Zheng, W. Liang, M. Hada, M. Ehara, K. Toyota, R. Fukuda, 
 J. Hasegawa, M. Ishida, T. Nakajima, Y. Honda, O. Kitao, H. Nakai, 
 T. Vreven, K. Throssell, J. A. Montgomery, Jr., J. E. Peralta, 
 F. Ogliaro, M. J. Bearpark, J. J. Heyd, E. N. Brothers, K. N. Kudin, 
 V. N. Staroverov, T. A. Keith, R. Kobayashi, J. Normand, 
 K. Raghavachari, A. P. Rendell, J. C. Burant, S. S. Iyengar, 
 J. Tomasi, M. Cossi, J. M. Millam, M. Klene, C. Adamo, R. Cammi, 
 J. W. Ochterski, R. L. Martin, K. Morokuma, O. Farkas, 
 J. B. Foresman, and D. J. Fox, Gaussian, Inc., Wallingford CT, 2016.
 
 ******************************************
 Gaussian 16:  ES64L-G16RevA.03 25-Dec-2016
                20-Nov-2023 
 ******************************************
 %NProcShared=4
 Will use up to    4 processors via shared memory.
 %Mem=1GB
 %Chk=Al.chk
 ----------------------------------------------------
 # B3LYP/aug-cc-pVTZ EmpiricalDispersion=GD3 Pop=Full
 ----------------------------------------------------
 1/38=1,172=1/1;
 2/12=2,17=6,18=5,40=1/2;
 3/5=16,6=1,7=10,11=2,25=1,30=1,74=-5,124=31/1,2,3;
 4//1;
 5/5=2,38=5/2;
 6/7=3,28=1/1;
 99/5=1,9=1/99;
 --------
 Aluminum
 --------
 Symbolic Z-matrix:
 Charge =  0 Multiplicity = 2
 Al                    0.        0.        0. 
 
                          Input orientation:                          
 ---------------------------------------------------------------------
 Center     Atomic      Atomic             Coordinates (Angstroms)
 Number     Number       Type             X           Y           Z
 ---------------------------------------------------------------------
      1         13           0        0.000000    0.000000    0.000000
 ---------------------------------------------------------------------
 Stoichiometry    Al(2)
 Framework group  OH[O(Al)]
 Deg. of freedom     0
 Full point group                 OH      NOp  48
 Largest Abelian subgroup         D2H     NOp   8
 Largest concise Abelian subgroup C1      NOp   1
                         Standard orientation:                         
 ---------------------------------------------------------------------
 Center     Atomic      Atomic             Coordinates (Angstroms)
 Number     Number       Type             X           Y           Z
 ---------------------------------------------------------------------
      1         13           0        0.000000    0.000000    0.000000
 ---------------------------------------------------------------------
 Standard basis: Aug-CC-pVTZ (5D, 7F)
 There are    15 symmetry adapted cartesian basis functions of AG  symmetry.
 There are     3 symmetry adapted cartesian basis functions of B1G symmetry.
 There are     3 symmetry adapted cartesian basis functions of B2G symmetry.
 There are     3 symmetry adapted cartesian basis functions of B3G symmetry.
 There are     2 symmetry adapted cartesian basis functions of AU  symmetry.
 There are    11 symmetry adapted cartesian basis functions of B1U symmetry.
 There are    11 symmetry adapted cartesian basis functions of B2U symmetry.
 There are    11 symmetry adapted cartesian basis functions of B3U symmetry.
 There are    12 symmetry adapted basis functions of AG  symmetry.
 There are     3 symmetry adapted basis functions of B1G symmetry.
 There are     3 symmetry adapted basis functions of B2G symmetry.
 There are     3 symmetry adapted basis functions of B3G symmetry.
 There are     2 symmetry adapted basis functions of AU  symmetry.
 There are     9 symmetry adapted basis functions of B1U symmetry.
 There are     9 symmetry adapted basis functions of B2U symmetry.
 There are     9 symmetry adapted basis functions of B3U symmetry.
    50 basis functions,   115 primitive gaussians,    59 cartesian basis functions
     7 alpha electrons        6 beta electrons
       nuclear repulsion energy         0.0000000000 Hartrees.
 NAtoms=    1 NActive=    1 NUniq=    1 SFac= 1.00D+00 NAtFMM=   60 NAOKFM=F Big=F
 Integral buffers will be    131072 words long.
 Raffenetti 2 integral format.
 Two-electron integral symmetry is turned on.
 Nuclear repulsion after empirical dispersion term =        0.0000000000 Hartrees.
 One-electron integrals computed using PRISM.
 NBasis=    50 RedAO= T EigKep=  1.52D-02  NBF=    12     3     3     3     2     9     9     9
 NBsUse=    50 1.00D-06 EigRej= -1.00D+00 NBFU=    12     3     3     3     2     9     9     9
 ExpMin= 1.46D-02 ExpMax= 2.06D+05 ExpMxC= 1.99D+03 IAcc=3 IRadAn=         5 AccDes= 0.00D+00
 Harris functional with IExCor=  402 and IRadAn=       5 diagonalized for initial guess.
 HarFok:  IExCor=  402 AccDes= 0.00D+00 IRadAn=         5 IDoV= 1 UseB2=F ITyADJ=14
 ICtDFT=  3500011 ScaDFX=  1.000000  1.000000  1.000000  1.000000
 FoFCou: FMM=F IPFlag=           0 FMFlag=      100000 FMFlg1=           0
         NFxFlg=           0 DoJE=T BraDBF=F KetDBF=T FulRan=T
         wScrn=  0.000000 ICntrl=       500 IOpCl=  0 I1Cent=   200000004 NGrid=           0
         NMat0=    1 NMatS0=      1 NMatT0=    0 NMatD0=    1 NMtDS0=    0 NMtDT0=    0
 Petite list used in FoFCou.
 Initial guess orbital symmetries:
 Alpha Orbitals:
       Occupied  (A1G) (A1G) (T1U) (T1U) (T1U) (A1G) (T1U)
       Virtual   (T1U) (T1U) (A1G) (T1U) (T1U) (T1U) (T2G) (T2G)
                 (T2G) (EG) (EG) (T2G) (T2G) (T2G) (EG) (EG) (T1U)
                 (T1U) (T1U) (A1G) (T2U) (T2U) (T2U) (A2U) (T1U)
                 (T1U) (T1U) (T2G) (T2G) (T2G) (EG) (EG) (T2U)
                 (T2U) (T2U) (A2U) (T1U) (T1U) (T1U) (A1G) (T1U)
                 (T1U) (T1U)
 Beta  Orbitals:
       Occupied  (A1G) (A1G) (T1U) (T1U) (T1U) (A1G)
       Virtual   (T1U) (T1U) (T1U) (A1G) (T1U) (T1U) (T1U) (T2G)
                 (T2G) (T2G) (EG) (EG) (T2G) (T2G) (T2G) (EG) (EG)
                 (T1U) (T1U) (T1U) (A1G) (T2U) (T2U) (T2U) (A2U)
                 (T1U) (T1U) (T1U) (T2G) (T2G) (T2G) (EG) (EG)
                 (T2U) (T2U) (T2U) (A2U) (T1U) (T1U) (T1U) (A1G)
                 (T1U) (T1U) (T1U)
 Initial guess <Sx>= 0.0000 <Sy>= 0.0000 <Sz>= 0.5000 <S**2>= 0.7500 S= 0.5000
 Keep R1 and R2 ints in memory in symmetry-blocked form, NReq=4341620.
 Requested convergence on RMS density matrix=1.00D-08 within 128 cycles.
 Requested convergence on MAX density matrix=1.00D-06.
 Requested convergence on             energy=1.00D-06.
 No special actions if energy rises.
 Density matrix breaks symmetry, PCut= 1.00D-04
 Density has only Abelian symmetry.
 Density matrix breaks symmetry, PCut= 1.00D-04
 Density has only Abelian symmetry.
 Density matrix breaks symmetry, PCut= 1.00D-04
 Density has only Abelian symmetry.
 Density matrix breaks symmetry, PCut= 1.00D-04
 Density has only Abelian symmetry.
 Density matrix breaks symmetry, PCut= 1.00D-04
 Density has only Abelian symmetry.
 Density matrix breaks symmetry, PCut= 1.00D-04
 Density has only Abelian symmetry.
 Density matrix breaks symmetry, PCut= 1.00D-04
 Density has only Abelian symmetry.
 Density matrix breaks symmetry, PCut= 1.00D-04
 Density has only Abelian symmetry.
 Density matrix breaks symmetry, PCut= 1.00D-04
 Density has only Abelian symmetry.
 SCF Done:  E(UB3LYP) =  -242.389787492     A.U. after    8 cycles
            NFock=  8  Conv=0.16D-08     -V/T= 2.0034
 <Sx>= 0.0000 <Sy>= 0.0000 <Sz>= 0.5000 <S**2>= 0.7548 S= 0.5024
 <L.S>= 0.000000000000E+00
 Annihilation of the first spin contaminant:
 S**2 before annihilation     0.7548,   after     0.7500
 SCF density gives NOpUse=  8 NOpAll= 48.

 **********************************************************************

            Population analysis using the SCF density.

 **********************************************************************

 Orbital symmetries:
 Alpha Orbitals:
       Occupied  (A1G) (A1G) (T1U) (T1U) (T1U) (?A) (?B)
       Virtual   (?B) (?B) (?A) (?B) (?B) (?B) (?C) (?C) (?A) (?C)
                 (?A) (?C) (?C) (?A) (?B) (?C) (?A) (?B) (?B) (?A)
                 (?B) (A2U) (?B) (?B) (?B) (?B) (?B) (T2G) (T2G)
                 (EG) (T2G) (EG) (?D) (A2U) (?D) (?D) (?D) (?D)
                 (?D) (A1G) (T1U) (T1U) (T1U)
 Beta  Orbitals:
       Occupied  (A1G) (A1G) (T1U) (T1U) (T1U) (?A)
       Virtual   (?B) (?B) (?B) (?A) (?B) (?B) (?B) (?A) (?C) (?C)
                 (?C) (?A) (?A) (?C) (?B) (?B) (?A) (?C) (?C) (?A)
                 (?B) (?B) (?B) (?B) (A2U) (?B) (?B) (?B) (?A)
                 (?C) (?C) (?C) (?A) (?B) (?B) (?B) (A2U) (?B)
                 (?B) (?B) (A1G) (T1U) (T1U) (T1U)
 Unable to determine electronic state:  an orbital has unidentified symmetry.
 Alpha  occ. eigenvalues --  -56.07687  -4.15286  -2.70636  -2.70636  -2.70366
 Alpha  occ. eigenvalues --   -0.32130  -0.13333
 Alpha virt. eigenvalues --   -0.07775  -0.07775   0.00448   0.01831   0.02329
 Alpha virt. eigenvalues --    0.02329   0.05123   0.05123   0.05472   0.05843
 Alpha virt. eigenvalues --    0.05845   0.21754   0.21754   0.22017   0.22458
 Alpha virt. eigenvalues --    0.22686   0.22687   0.23291   0.23291   0.23316
 Alpha virt. eigenvalues --    0.26030   0.26030   0.26154   0.26286   0.26286
 Alpha virt. eigenvalues --    0.26650   0.26650   0.75787   0.75787   0.76041
 Alpha virt. eigenvalues --    0.76244   0.76244   0.88724   0.88724   0.88831
 Alpha virt. eigenvalues --    0.88875   0.88875   0.89472   0.89472   1.59659
 Alpha virt. eigenvalues --    1.95294   1.95294   1.95585
  Beta  occ. eigenvalues --  -56.07481  -4.15056  -2.70526  -2.70526  -2.69560
  Beta  occ. eigenvalues --   -0.29700
  Beta virt. eigenvalues --   -0.07295  -0.07295  -0.05065   0.00728   0.02376
  Beta virt. eigenvalues --    0.02376   0.02743   0.05684   0.05684   0.05958
  Beta virt. eigenvalues --    0.05958   0.06317   0.22692   0.22692   0.23431
  Beta virt. eigenvalues --    0.23431   0.23956   0.24118   0.24118   0.24850
  Beta virt. eigenvalues --    0.25087   0.26341   0.26341   0.26794   0.26794
  Beta virt. eigenvalues --    0.27309   0.27309   0.27491   0.76032   0.76032
  Beta virt. eigenvalues --    0.77869   0.77869   0.78567   0.89159   0.89159
  Beta virt. eigenvalues --    0.90717   0.90717   0.91697   0.91697   0.92051
  Beta virt. eigenvalues --    1.60380   1.95403   1.95403   1.97330
     Alpha Molecular Orbital Coefficients:
                           1         2         3         4         5
                       (A1G)--O  (A1G)--O  (T1U)--O  (T1U)--O  (T1U)--O
     Eigenvalues --   -56.07687  -4.15286  -2.70636  -2.70636  -2.70366
   1 1   Al 1S          1.00226  -0.26006   0.00000   0.00000   0.00000
   2        2S         -0.00619   0.99404   0.00000   0.00000   0.00000
   3        3S          0.00467  -0.03178   0.00000   0.00000   0.00000
   4        4S         -0.00465   0.06872   0.00000   0.00000   0.00000
   5        5S         -0.00287   0.01406   0.00000   0.00000   0.00000
   6        6S          0.00093  -0.00409   0.00000   0.00000   0.00000
   7        7PX         0.00000   0.00000   0.87853   0.00000   0.00000
   8        7PY         0.00000   0.00000   0.00000   0.87853   0.00000
   9        7PZ         0.00000   0.00000   0.00000   0.00000   0.88001
  10        8PX         0.00000   0.00000   0.01917   0.00000   0.00000
  11        8PY         0.00000   0.00000   0.00000   0.01917   0.00000
  12        8PZ         0.00000   0.00000   0.00000   0.00000   0.01976
  13        9PX         0.00000   0.00000   0.18892   0.00000   0.00000
  14        9PY         0.00000   0.00000   0.00000   0.18892   0.00000
  15        9PZ         0.00000   0.00000   0.00000   0.00000   0.18665
  16       10PX         0.00000   0.00000  -0.00616   0.00000   0.00000
  17       10PY         0.00000   0.00000   0.00000  -0.00616   0.00000
  18       10PZ         0.00000   0.00000   0.00000   0.00000  -0.00642
  19       11PX         0.00000   0.00000   0.00186   0.00000   0.00000
  20       11PY         0.00000   0.00000   0.00000   0.00186   0.00000
  21       11PZ         0.00000   0.00000   0.00000   0.00000   0.00194
  22       12D 0        0.00000   0.00030   0.00000   0.00000   0.00000
  23       12D+1        0.00000   0.00000   0.00000   0.00000   0.00000
  24       12D-1        0.00000   0.00000   0.00000   0.00000   0.00000
  25       12D+2        0.00000  -0.00000   0.00000   0.00000   0.00000
  26       12D-2        0.00000   0.00000   0.00000   0.00000   0.00000
  27       13D 0       -0.00000  -0.00033   0.00000   0.00000   0.00000
  28       13D+1        0.00000   0.00000   0.00000   0.00000   0.00000
  29       13D-1        0.00000   0.00000   0.00000   0.00000   0.00000
  30       13D+2       -0.00000   0.00000   0.00000   0.00000   0.00000
  31       13D-2        0.00000   0.00000   0.00000   0.00000   0.00000
  32       14D 0       -0.00000  -0.00009   0.00000   0.00000   0.00000
  33       14D+1        0.00000   0.00000   0.00000   0.00000   0.00000
  34       14D-1        0.00000   0.00000   0.00000   0.00000   0.00000
  35       14D+2        0.00000   0.00000   0.00000   0.00000   0.00000
  36       14D-2        0.00000   0.00000   0.00000   0.00000   0.00000
  37       15F 0        0.00000   0.00000   0.00000   0.00000  -0.00003
  38       15F+1        0.00000   0.00000   0.00003   0.00000   0.00000
  39       15F-1        0.00000   0.00000   0.00000   0.00003   0.00000
  40       15F+2        0.00000   0.00000   0.00000   0.00000   0.00000
  41       15F-2        0.00000   0.00000   0.00000   0.00000   0.00000
  42       15F+3        0.00000   0.00000  -0.00000   0.00000   0.00000
  43       15F-3        0.00000   0.00000   0.00000   0.00000   0.00000
  44       16F 0        0.00000   0.00000   0.00000   0.00000   0.00005
  45       16F+1        0.00000   0.00000   0.00002   0.00000   0.00000
  46       16F-1        0.00000   0.00000   0.00000   0.00002   0.00000
  47       16F+2        0.00000   0.00000   0.00000   0.00000  -0.00000
  48       16F-2        0.00000   0.00000   0.00000   0.00000   0.00000
  49       16F+3        0.00000   0.00000   0.00000   0.00000   0.00000
  50       16F-3        0.00000   0.00000   0.00000  -0.00000   0.00000
                           6         7         8         9        10
                           O         O         V         V         V
     Eigenvalues --    -0.32130  -0.13333  -0.07775  -0.07775   0.00448
   1 1   Al 1S          0.06476   0.00000   0.00000   0.00000  -0.02153
   2        2S         -0.27329   0.00000   0.00000   0.00000   0.11872
   3        3S          0.57404   0.00000   0.00000   0.00000  -0.14622
   4        4S          0.14973   0.00000   0.00000   0.00000  -0.08801
   5        5S          0.37280   0.00000   0.00000   0.00000  -1.05078
   6        6S         -0.00544   0.00000   0.00000   0.00000   1.71753
   7        7PX         0.00000   0.00000  -0.16225   0.00000   0.00000
   8        7PY         0.00000   0.00000   0.00000  -0.16225   0.00000
   9        7PZ         0.00000  -0.17066   0.00000   0.00000   0.00000
  10        8PX         0.00000   0.00000   0.46215   0.00000   0.00000
  11        8PY         0.00000   0.00000   0.00000   0.46215   0.00000
  12        8PZ         0.00000   0.51269   0.00000   0.00000   0.00000
  13        9PX         0.00000   0.00000   0.02977   0.00000   0.00000
  14        9PY         0.00000   0.00000   0.00000   0.02977   0.00000
  15        9PZ         0.00000   0.03041   0.00000   0.00000   0.00000
  16       10PX         0.00000   0.00000   0.56955   0.00000   0.00000
  17       10PY         0.00000   0.00000   0.00000   0.56955   0.00000
  18       10PZ         0.00000   0.55298   0.00000   0.00000   0.00000
  19       11PX         0.00000   0.00000   0.10603   0.00000   0.00000
  20       11PY         0.00000   0.00000   0.00000   0.10603   0.00000
  21       11PZ         0.00000   0.04829   0.00000   0.00000   0.00000
  22       12D 0        0.01822   0.00000   0.00000   0.00000   0.00100
  23       12D+1        0.00000   0.00000   0.00000   0.00000   0.00000
  24       12D-1        0.00000   0.00000   0.00000   0.00000   0.00000
  25       12D+2       -0.00000   0.00000   0.00000   0.00000   0.00000
  26       12D-2        0.00000   0.00000   0.00000   0.00000   0.00000
  27       13D 0        0.00959   0.00000   0.00000   0.00000   0.00338
  28       13D+1        0.00000   0.00000   0.00000   0.00000   0.00000
  29       13D-1        0.00000   0.00000   0.00000   0.00000   0.00000
  30       13D+2        0.00000   0.00000   0.00000   0.00000  -0.00000
  31       13D-2        0.00000   0.00000   0.00000   0.00000   0.00000
  32       14D 0        0.00330   0.00000   0.00000   0.00000   0.06624
  33       14D+1        0.00000   0.00000   0.00000   0.00000   0.00000
  34       14D-1        0.00000   0.00000   0.00000   0.00000   0.00000
  35       14D+2       -0.00000   0.00000   0.00000   0.00000  -0.00000
  36       14D-2        0.00000   0.00000   0.00000   0.00000   0.00000
  37       15F 0        0.00000   0.00245   0.00000   0.00000   0.00000
  38       15F+1        0.00000   0.00000   0.00443   0.00000   0.00000
  39       15F-1        0.00000   0.00000   0.00000   0.00443   0.00000
  40       15F+2        0.00000  -0.00000   0.00000   0.00000   0.00000
  41       15F-2        0.00000   0.00000   0.00000   0.00000   0.00000
  42       15F+3        0.00000   0.00000   0.00000   0.00000   0.00000
  43       15F-3        0.00000   0.00000   0.00000  -0.00000   0.00000
  44       16F 0        0.00000   0.00204   0.00000   0.00000   0.00000
  45       16F+1        0.00000   0.00000   0.01082   0.00000   0.00000
  46       16F-1        0.00000   0.00000   0.00000   0.01082   0.00000
  47       16F+2        0.00000   0.00000   0.00000   0.00000   0.00000
  48       16F-2        0.00000   0.00000   0.00000   0.00000   0.00000
  49       16F+3        0.00000   0.00000  -0.00000   0.00000   0.00000
  50       16F-3        0.00000   0.00000   0.00000   0.00000   0.00000
                          11        12        13        14        15
                           V         V         V         V         V
     Eigenvalues --     0.01831   0.02329   0.02329   0.05123   0.05123
   1 1   Al 1S          0.00000   0.00000   0.00000   0.00000   0.00000
   2        2S          0.00000   0.00000   0.00000   0.00000   0.00000
   3        3S          0.00000   0.00000   0.00000   0.00000   0.00000
   4        4S          0.00000   0.00000   0.00000   0.00000   0.00000
   5        5S          0.00000   0.00000   0.00000   0.00000   0.00000
   6        6S          0.00000   0.00000   0.00000   0.00000   0.00000
   7        7PX         0.00000   0.00000   0.07181   0.00000   0.00000
   8        7PY         0.00000   0.07181   0.00000   0.00000   0.00000
   9        7PZ         0.06334   0.00000   0.00000   0.00000   0.00000
  10        8PX         0.00000   0.00000  -0.19791   0.00000   0.00000
  11        8PY         0.00000  -0.19791   0.00000   0.00000   0.00000
  12        8PZ        -0.18724   0.00000   0.00000   0.00000   0.00000
  13        9PX         0.00000   0.00000  -0.01856   0.00000   0.00000
  14        9PY         0.00000  -0.01856   0.00000   0.00000   0.00000
  15        9PZ        -0.01645   0.00000   0.00000   0.00000   0.00000
  16       10PX         0.00000   0.00000  -0.47471   0.00000   0.00000
  17       10PY         0.00000  -0.47471   0.00000   0.00000   0.00000
  18       10PZ        -0.41282   0.00000   0.00000   0.00000   0.00000
  19       11PX         0.00000   0.00000   1.16352   0.00000   0.00000
  20       11PY         0.00000   1.16352   0.00000   0.00000   0.00000
  21       11PZ         1.15861   0.00000   0.00000   0.00000   0.00000
  22       12D 0        0.00000   0.00000   0.00000   0.00000   0.00000
  23       12D+1        0.00000   0.00000   0.00000   0.06704   0.00000
  24       12D-1        0.00000   0.00000   0.00000   0.00000   0.06704
  25       12D+2        0.00000   0.00000   0.00000   0.00000   0.00000
  26       12D-2        0.00000   0.00000   0.00000   0.00000   0.00000
  27       13D 0        0.00000   0.00000   0.00000   0.00000   0.00000
  28       13D+1        0.00000   0.00000   0.00000   0.07887   0.00000
  29       13D-1        0.00000   0.00000   0.00000   0.00000   0.07887
  30       13D+2        0.00000   0.00000   0.00000   0.00000   0.00000
  31       13D-2        0.00000   0.00000   0.00000   0.00000   0.00000
  32       14D 0        0.00000   0.00000   0.00000   0.00000   0.00000
  33       14D+1        0.00000   0.00000   0.00000   0.94054   0.00000
  34       14D-1        0.00000   0.00000   0.00000   0.00000   0.94054
  35       14D+2        0.00000   0.00000   0.00000   0.00000   0.00000
  36       14D-2        0.00000   0.00000   0.00000   0.00000   0.00000
  37       15F 0       -0.00053   0.00000   0.00000   0.00000   0.00000
  38       15F+1        0.00000   0.00000  -0.00337   0.00000   0.00000
  39       15F-1        0.00000  -0.00337   0.00000   0.00000   0.00000
  40       15F+2       -0.00000   0.00000   0.00000   0.00000   0.00000
  41       15F-2        0.00000   0.00000   0.00000   0.00000   0.00000
  42       15F+3        0.00000   0.00000   0.00000   0.00000   0.00000
  43       15F-3        0.00000  -0.00000   0.00000   0.00000   0.00000
  44       16F 0       -0.00063   0.00000   0.00000   0.00000   0.00000
  45       16F+1        0.00000   0.00000   0.00387   0.00000   0.00000
  46       16F-1        0.00000   0.00387   0.00000   0.00000   0.00000
  47       16F+2       -0.00000   0.00000   0.00000   0.00000   0.00000
  48       16F-2        0.00000   0.00000   0.00000   0.00000   0.00000
  49       16F+3        0.00000   0.00000  -0.00001   0.00000   0.00000
  50       16F-3        0.00000   0.00001   0.00000   0.00000   0.00000
                          16        17        18        19        20
                           V         V         V         V         V
     Eigenvalues --     0.05472   0.05843   0.05845   0.21754   0.21754
   1 1   Al 1S         -0.00023   0.00000  -0.00000   0.00000   0.00000
   2        2S         -0.00213   0.00000   0.00000   0.00000   0.00000
   3        3S         -0.01025   0.00000  -0.00000   0.00000   0.00000
   4        4S         -0.00251   0.00000  -0.00000   0.00000   0.00000
   5        5S          0.08721   0.00000   0.00000   0.00000   0.00000
   6        6S         -0.12698   0.00000   0.00000   0.00000   0.00000
   7        7PX         0.00000   0.00000   0.00000   0.00000   0.00000
   8        7PY         0.00000   0.00000   0.00000   0.00000   0.00000
   9        7PZ         0.00000   0.00000   0.00000   0.00000   0.00000
  10        8PX         0.00000   0.00000   0.00000   0.00000   0.00000
  11        8PY         0.00000   0.00000   0.00000   0.00000   0.00000
  12        8PZ         0.00000   0.00000   0.00000   0.00000   0.00000
  13        9PX         0.00000   0.00000   0.00000   0.00000   0.00000
  14        9PY         0.00000   0.00000   0.00000   0.00000   0.00000
  15        9PZ         0.00000   0.00000   0.00000   0.00000   0.00000
  16       10PX         0.00000   0.00000   0.00000   0.00000   0.00000
  17       10PY         0.00000   0.00000   0.00000   0.00000   0.00000
  18       10PZ         0.00000   0.00000   0.00000   0.00000   0.00000
  19       11PX         0.00000   0.00000   0.00000   0.00000   0.00000
  20       11PY         0.00000   0.00000   0.00000   0.00000   0.00000
  21       11PZ         0.00000   0.00000   0.00000   0.00000   0.00000
  22       12D 0        0.06982   0.00000  -0.00000   0.00000   0.00000
  23       12D+1        0.00000   0.00000   0.00000   1.13828   0.00000
  24       12D-1        0.00000   0.00000   0.00000   0.00000   1.13828
  25       12D+2        0.00000   0.00000   0.05020   0.00000   0.00000
  26       12D-2        0.00000   0.05009   0.00000   0.00000   0.00000
  27       13D 0        0.07992   0.00000  -0.00000   0.00000   0.00000
  28       13D+1        0.00000   0.00000   0.00000   0.11885   0.00000
  29       13D-1        0.00000   0.00000   0.00000   0.00000   0.11885
  30       13D+2        0.00000   0.00000   0.07553   0.00000   0.00000
  31       13D-2        0.00000   0.07553   0.00000   0.00000   0.00000
  32       14D 0        0.93589   0.00000  -0.00000   0.00000   0.00000
  33       14D+1        0.00000   0.00000   0.00000  -0.80288   0.00000
  34       14D-1        0.00000   0.00000   0.00000   0.00000  -0.80288
  35       14D+2        0.00000   0.00000   0.95272   0.00000   0.00000
  36       14D-2        0.00000   0.95279   0.00000   0.00000   0.00000
  37       15F 0        0.00000   0.00000   0.00000   0.00000   0.00000
  38       15F+1        0.00000   0.00000   0.00000   0.00000   0.00000
  39       15F-1        0.00000   0.00000   0.00000   0.00000   0.00000
  40       15F+2        0.00000   0.00000   0.00000   0.00000   0.00000
  41       15F-2        0.00000   0.00000   0.00000   0.00000   0.00000
  42       15F+3        0.00000   0.00000   0.00000   0.00000   0.00000
  43       15F-3        0.00000   0.00000   0.00000   0.00000   0.00000
  44       16F 0        0.00000   0.00000   0.00000   0.00000   0.00000
  45       16F+1        0.00000   0.00000   0.00000   0.00000   0.00000
  46       16F-1        0.00000   0.00000   0.00000   0.00000   0.00000
  47       16F+2        0.00000   0.00000   0.00000   0.00000   0.00000
  48       16F-2        0.00000   0.00000   0.00000   0.00000   0.00000
  49       16F+3        0.00000   0.00000   0.00000   0.00000   0.00000
  50       16F-3        0.00000   0.00000   0.00000   0.00000   0.00000
                          21        22        23        24        25
                           V         V         V         V         V
     Eigenvalues --     0.22017   0.22458   0.22686   0.22687   0.23291
   1 1   Al 1S         -0.01238   0.00000   0.00000   0.00000   0.00000
   2        2S         -0.00455   0.00000   0.00000  -0.00000   0.00000
   3        3S         -0.28887   0.00000   0.00000  -0.00000   0.00000
   4        4S         -0.08113   0.00000   0.00000   0.00000   0.00000
   5        5S          0.54081   0.00000   0.00000   0.00000   0.00000
   6        6S         -0.25288   0.00000   0.00000  -0.00000   0.00000
   7        7PX         0.00000   0.00000   0.00000   0.00000   0.17613
   8        7PY         0.00000   0.00000   0.00000   0.00000   0.00000
   9        7PZ         0.00000   0.16911   0.00000   0.00000   0.00000
  10        8PX         0.00000   0.00000   0.00000   0.00000  -1.25836
  11        8PY         0.00000   0.00000   0.00000   0.00000   0.00000
  12        8PZ         0.00000  -1.24398   0.00000   0.00000   0.00000
  13        9PX         0.00000   0.00000   0.00000   0.00000  -0.02280
  14        9PY         0.00000   0.00000   0.00000   0.00000   0.00000
  15        9PZ         0.00000  -0.02051   0.00000   0.00000   0.00000
  16       10PX         0.00000   0.00000   0.00000   0.00000   1.50626
  17       10PY         0.00000   0.00000   0.00000   0.00000   0.00000
  18       10PZ         0.00000   1.53439   0.00000   0.00000   0.00000
  19       11PX         0.00000   0.00000   0.00000   0.00000  -0.58854
  20       11PY         0.00000   0.00000   0.00000   0.00000   0.00000
  21       11PZ         0.00000  -0.60659   0.00000   0.00000   0.00000
  22       12D 0        1.12296   0.00000   0.00000  -0.00000   0.00000
  23       12D+1        0.00000   0.00000   0.00000   0.00000   0.00000
  24       12D-1        0.00000   0.00000   0.00000   0.00000   0.00000
  25       12D+2        0.00000   0.00000   0.00000   1.14360   0.00000
  26       12D-2        0.00000   0.00000   1.14362   0.00000   0.00000
  27       13D 0        0.11850   0.00000   0.00000  -0.00000   0.00000
  28       13D+1        0.00000   0.00000   0.00000   0.00000   0.00000
  29       13D-1        0.00000   0.00000   0.00000   0.00000   0.00000
  30       13D+2        0.00000   0.00000   0.00000   0.11500   0.00000
  31       13D-2        0.00000   0.00000   0.11499   0.00000   0.00000
  32       14D 0       -0.79678   0.00000   0.00000   0.00000   0.00000
  33       14D+1        0.00000   0.00000   0.00000   0.00000   0.00000
  34       14D-1        0.00000   0.00000   0.00000   0.00000   0.00000
  35       14D+2       -0.00000   0.00000   0.00000  -0.78945   0.00000
  36       14D-2        0.00000   0.00000  -0.78937   0.00000   0.00000
  37       15F 0        0.00000   0.00001   0.00000   0.00000   0.00000
  38       15F+1        0.00000   0.00000   0.00000   0.00000  -0.01086
  39       15F-1        0.00000   0.00000   0.00000   0.00000   0.00000
  40       15F+2        0.00000  -0.00000   0.00000   0.00000   0.00000
  41       15F-2        0.00000   0.00000   0.00000   0.00000   0.00000
  42       15F+3        0.00000   0.00000   0.00000   0.00000   0.00000
  43       15F-3        0.00000   0.00000   0.00000   0.00000   0.00000
  44       16F 0        0.00000  -0.01589   0.00000   0.00000   0.00000
  45       16F+1        0.00000   0.00000   0.00000   0.00000   0.07328
  46       16F-1        0.00000   0.00000   0.00000   0.00000   0.00000
  47       16F+2        0.00000   0.00000   0.00000   0.00000   0.00000
  48       16F-2        0.00000   0.00000   0.00000   0.00000   0.00000
  49       16F+3        0.00000   0.00000   0.00000   0.00000  -0.00001
  50       16F-3        0.00000   0.00000   0.00000   0.00000   0.00000
                          26        27        28        29        30
                           V         V         V     (A2U)--V      V
     Eigenvalues --     0.23291   0.23316   0.26030   0.26030   0.26154
   1 1   Al 1S          0.00000  -0.07051   0.00000   0.00000   0.00000
   2        2S          0.00000  -0.09899   0.00000   0.00000   0.00000
   3        3S          0.00000  -1.84543   0.00000   0.00000   0.00000
   4        4S          0.00000  -0.44915   0.00000   0.00000   0.00000
   5        5S          0.00000   3.59489   0.00000   0.00000   0.00000
   6        6S          0.00000  -1.68838   0.00000   0.00000   0.00000
   7        7PX         0.00000   0.00000   0.00000   0.00000   0.00000
   8        7PY         0.17613   0.00000   0.00000   0.00000   0.00000
   9        7PZ         0.00000   0.00000  -0.00000   0.00000   0.00346
  10        8PX         0.00000   0.00000   0.00000   0.00000   0.00000
  11        8PY        -1.25836   0.00000   0.00000   0.00000   0.00000
  12        8PZ         0.00000   0.00000   0.00000   0.00000  -0.02132
  13        9PX         0.00000   0.00000   0.00000   0.00000   0.00000
  14        9PY        -0.02280   0.00000   0.00000   0.00000   0.00000
  15        9PZ         0.00000   0.00000   0.00000   0.00000  -0.00078
  16       10PX         0.00000   0.00000   0.00000   0.00000   0.00000
  17       10PY         1.50626   0.00000   0.00000   0.00000   0.00000
  18       10PZ         0.00000   0.00000  -0.00000   0.00000   0.02204
  19       11PX         0.00000   0.00000   0.00000   0.00000   0.00000
  20       11PY        -0.58854   0.00000   0.00000   0.00000   0.00000
  21       11PZ         0.00000   0.00000   0.00000   0.00000  -0.00870
  22       12D 0        0.00000  -0.17196   0.00000   0.00000   0.00000
  23       12D+1        0.00000   0.00000   0.00000   0.00000   0.00000
  24       12D-1        0.00000   0.00000   0.00000   0.00000   0.00000
  25       12D+2        0.00000  -0.00000   0.00000   0.00000   0.00000
  26       12D-2        0.00000   0.00000   0.00000   0.00000   0.00000
  27       13D 0        0.00000  -0.02295   0.00000   0.00000   0.00000
  28       13D+1        0.00000   0.00000   0.00000   0.00000   0.00000
  29       13D-1        0.00000   0.00000   0.00000   0.00000   0.00000
  30       13D+2        0.00000  -0.00000   0.00000   0.00000   0.00000
  31       13D-2        0.00000   0.00000   0.00000   0.00000   0.00000
  32       14D 0        0.00000   0.11623   0.00000   0.00000   0.00000
  33       14D+1        0.00000   0.00000   0.00000   0.00000   0.00000
  34       14D-1        0.00000   0.00000   0.00000   0.00000   0.00000
  35       14D+2        0.00000   0.00000   0.00000   0.00000   0.00000
  36       14D-2        0.00000   0.00000   0.00000   0.00000   0.00000
  37       15F 0        0.00000   0.00000  -0.00000   0.00000  -0.07873
  38       15F+1        0.00000   0.00000   0.00000   0.00000   0.00000
  39       15F-1       -0.01086   0.00000   0.00000   0.00000   0.00000
  40       15F+2        0.00000   0.00000  -0.07916   0.00000   0.00000
  41       15F-2        0.00000   0.00000   0.00000  -0.07916   0.00000
  42       15F+3        0.00000   0.00000   0.00000   0.00000   0.00000
  43       15F-3       -0.00000   0.00000   0.00000   0.00000   0.00000
  44       16F 0        0.00000   0.00000   0.00000   0.00000   1.04144
  45       16F+1        0.00000   0.00000   0.00000   0.00000   0.00000
  46       16F-1        0.07328   0.00000   0.00000   0.00000   0.00000
  47       16F+2        0.00000   0.00000   1.04178   0.00000  -0.00000
  48       16F-2        0.00000   0.00000   0.00000   1.04178   0.00000
  49       16F+3        0.00000   0.00000   0.00000   0.00000   0.00000
  50       16F-3        0.00001   0.00000   0.00000   0.00000   0.00000
                          31        32        33        34        35
                           V         V         V         V     (T2G)--V
     Eigenvalues --     0.26286   0.26286   0.26650   0.26650   0.75787
   1 1   Al 1S          0.00000   0.00000   0.00000   0.00000   0.00000
   2        2S          0.00000   0.00000   0.00000   0.00000   0.00000
   3        3S          0.00000   0.00000   0.00000   0.00000   0.00000
   4        4S          0.00000   0.00000   0.00000   0.00000   0.00000
   5        5S          0.00000   0.00000   0.00000   0.00000   0.00000
   6        6S          0.00000   0.00000   0.00000   0.00000   0.00000
   7        7PX         0.00000  -0.00988   0.00000   0.00001   0.00000
   8        7PY        -0.00988   0.00000  -0.00001   0.00000   0.00000
   9        7PZ         0.00000   0.00000   0.00000   0.00000   0.00000
  10        8PX         0.00000   0.07997   0.00000  -0.00004   0.00000
  11        8PY         0.07997   0.00000   0.00004   0.00000   0.00000
  12        8PZ         0.00000   0.00000   0.00000   0.00000   0.00000
  13        9PX         0.00000   0.00093   0.00000  -0.00000   0.00000
  14        9PY         0.00093   0.00000   0.00000   0.00000   0.00000
  15        9PZ         0.00000   0.00000   0.00000   0.00000   0.00000
  16       10PX         0.00000  -0.10869   0.00000   0.00005   0.00000
  17       10PY        -0.10869   0.00000  -0.00005   0.00000   0.00000
  18       10PZ         0.00000   0.00000   0.00000   0.00000   0.00000
  19       11PX         0.00000   0.03604   0.00000  -0.00001   0.00000
  20       11PY         0.03604   0.00000   0.00001   0.00000   0.00000
  21       11PZ         0.00000   0.00000   0.00000   0.00000   0.00000
  22       12D 0        0.00000   0.00000   0.00000   0.00000   0.00000
  23       12D+1        0.00000   0.00000   0.00000   0.00000   0.00000
  24       12D-1        0.00000   0.00000   0.00000   0.00000  -1.12327
  25       12D+2        0.00000   0.00000   0.00000   0.00000   0.00000
  26       12D-2        0.00000   0.00000   0.00000   0.00000   0.00000
  27       13D 0        0.00000   0.00000   0.00000   0.00000   0.00000
  28       13D+1        0.00000   0.00000   0.00000   0.00000   0.00000
  29       13D-1        0.00000   0.00000   0.00000   0.00000   1.29667
  30       13D+2        0.00000   0.00000   0.00000   0.00000   0.00000
  31       13D-2        0.00000   0.00000   0.00000   0.00000   0.00000
  32       14D 0        0.00000   0.00000   0.00000   0.00000   0.00000
  33       14D+1        0.00000   0.00000   0.00000   0.00000   0.00000
  34       14D-1        0.00000   0.00000   0.00000   0.00000   0.41090
  35       14D+2        0.00000   0.00000   0.00000   0.00000   0.00000
  36       14D-2        0.00000   0.00000   0.00000   0.00000   0.00000
  37       15F 0        0.00000   0.00000   0.00000   0.00000   0.00000
  38       15F+1        0.00000  -0.07758   0.00000   0.00003   0.00000
  39       15F-1       -0.07758   0.00000  -0.00003   0.00000   0.00000
  40       15F+2        0.00000   0.00000   0.00000   0.00000   0.00000
  41       15F-2        0.00000   0.00000   0.00000   0.00000   0.00000
  42       15F+3        0.00000  -0.00003   0.00000  -0.08053   0.00000
  43       15F-3        0.00003   0.00000  -0.08053   0.00000   0.00000
  44       16F 0        0.00000   0.00000   0.00000   0.00000   0.00000
  45       16F+1        0.00000   1.03860   0.00000  -0.00042   0.00000
  46       16F-1        1.03860   0.00000   0.00042   0.00000   0.00000
  47       16F+2        0.00000   0.00000   0.00000   0.00000   0.00000
  48       16F-2        0.00000   0.00000   0.00000   0.00000   0.00000
  49       16F+3        0.00000   0.00042   0.00000   1.04247   0.00000
  50       16F-3       -0.00042   0.00000   1.04247   0.00000   0.00000
                          36        37        38        39        40
                       (T2G)--V   (EG)--V  (T2G)--V   (EG)--V      V
     Eigenvalues --     0.75787   0.76041   0.76244   0.76244   0.88724
   1 1   Al 1S          0.00000  -0.00067   0.00000   0.00000   0.00000
   2        2S          0.00000   0.01146   0.00000   0.00000   0.00000
   3        3S          0.00000   0.01282   0.00000   0.00000   0.00000
   4        4S          0.00000  -0.01810   0.00000  -0.00000   0.00000
   5        5S          0.00000  -0.00627   0.00000  -0.00000   0.00000
   6        6S          0.00000   0.00154   0.00000   0.00000   0.00000
   7        7PX         0.00000   0.00000   0.00000   0.00000   0.00000
   8        7PY         0.00000   0.00000   0.00000   0.00000   0.00000
   9        7PZ         0.00000   0.00000   0.00000   0.00000   0.00000
  10        8PX         0.00000   0.00000   0.00000   0.00000   0.00000
  11        8PY         0.00000   0.00000   0.00000   0.00000   0.00000
  12        8PZ         0.00000   0.00000   0.00000   0.00000   0.00000
  13        9PX         0.00000   0.00000   0.00000   0.00000   0.00000
  14        9PY         0.00000   0.00000   0.00000   0.00000   0.00000
  15        9PZ         0.00000   0.00000   0.00000   0.00000  -0.00000
  16       10PX         0.00000   0.00000   0.00000   0.00000   0.00000
  17       10PY         0.00000   0.00000   0.00000   0.00000   0.00000
  18       10PZ         0.00000   0.00000   0.00000   0.00000  -0.00000
  19       11PX         0.00000   0.00000   0.00000   0.00000   0.00000
  20       11PY         0.00000   0.00000   0.00000   0.00000   0.00000
  21       11PZ         0.00000   0.00000   0.00000   0.00000   0.00000
  22       12D 0        0.00000  -1.12521   0.00000   0.00000   0.00000
  23       12D+1       -1.12327   0.00000   0.00000   0.00000   0.00000
  24       12D-1        0.00000   0.00000   0.00000   0.00000   0.00000
  25       12D+2        0.00000  -0.00000   0.00000  -1.11874   0.00000
  26       12D-2        0.00000   0.00000  -1.11873   0.00000   0.00000
  27       13D 0        0.00000   1.29638   0.00000  -0.00000   0.00000
  28       13D+1        1.29667   0.00000   0.00000   0.00000   0.00000
  29       13D-1        0.00000   0.00000   0.00000   0.00000   0.00000
  30       13D+2        0.00000   0.00000   0.00000   1.29722   0.00000
  31       13D-2        0.00000   0.00000   1.29722   0.00000   0.00000
  32       14D 0        0.00000   0.41159   0.00000  -0.00000   0.00000
  33       14D+1        0.41090   0.00000   0.00000   0.00000   0.00000
  34       14D-1        0.00000   0.00000   0.00000   0.00000   0.00000
  35       14D+2        0.00000   0.00000   0.00000   0.40886   0.00000
  36       14D-2        0.00000   0.00000   0.40885   0.00000   0.00000
  37       15F 0        0.00000   0.00000   0.00000   0.00000  -0.00000
  38       15F+1        0.00000   0.00000   0.00000   0.00000   0.00000
  39       15F-1        0.00000   0.00000   0.00000   0.00000   0.00000
  40       15F+2        0.00000   0.00000   0.00000   0.00000   1.19976
  41       15F-2        0.00000   0.00000   0.00000   0.00000   0.00000
  42       15F+3        0.00000   0.00000   0.00000   0.00000   0.00000
  43       15F-3        0.00000   0.00000   0.00000   0.00000   0.00000
  44       16F 0        0.00000   0.00000   0.00000   0.00000   0.00000
  45       16F+1        0.00000   0.00000   0.00000   0.00000   0.00000
  46       16F-1        0.00000   0.00000   0.00000   0.00000   0.00000
  47       16F+2        0.00000   0.00000   0.00000   0.00000  -0.60032
  48       16F-2        0.00000   0.00000   0.00000   0.00000   0.00000
  49       16F+3        0.00000   0.00000   0.00000   0.00000   0.00000
  50       16F-3        0.00000   0.00000   0.00000   0.00000   0.00000
                          41        42        43        44        45
                       (A2U)--V      V         V         V         V
     Eigenvalues --     0.88724   0.88831   0.88875   0.88875   0.89472
   1 1   Al 1S          0.00000   0.00000   0.00000   0.00000   0.00000
   2        2S          0.00000   0.00000   0.00000   0.00000   0.00000
   3        3S          0.00000   0.00000   0.00000   0.00000   0.00000
   4        4S          0.00000   0.00000   0.00000   0.00000   0.00000
   5        5S          0.00000   0.00000   0.00000   0.00000   0.00000
   6        6S          0.00000   0.00000   0.00000   0.00000   0.00000
   7        7PX         0.00000   0.00000   0.00000   0.00436  -0.00000
   8        7PY         0.00000   0.00000   0.00436   0.00000   0.00000
   9        7PZ         0.00000   0.00132   0.00000   0.00000   0.00000
  10        8PX         0.00000   0.00000   0.00000  -0.00528   0.00000
  11        8PY         0.00000   0.00000  -0.00528   0.00000   0.00000
  12        8PZ         0.00000  -0.00167   0.00000   0.00000   0.00000
  13        9PX         0.00000   0.00000   0.00000  -0.00488   0.00000
  14        9PY         0.00000   0.00000  -0.00488   0.00000   0.00000
  15        9PZ         0.00000  -0.00133   0.00000   0.00000   0.00000
  16       10PX         0.00000   0.00000   0.00000   0.00157   0.00000
  17       10PY         0.00000   0.00000   0.00157   0.00000   0.00000
  18       10PZ         0.00000  -0.00031   0.00000   0.00000   0.00000
  19       11PX         0.00000   0.00000   0.00000   0.00037  -0.00000
  20       11PY         0.00000   0.00000   0.00037   0.00000   0.00000
  21       11PZ         0.00000  -0.00002   0.00000   0.00000   0.00000
  22       12D 0        0.00000   0.00000   0.00000   0.00000   0.00000
  23       12D+1        0.00000   0.00000   0.00000   0.00000   0.00000
  24       12D-1        0.00000   0.00000   0.00000   0.00000   0.00000
  25       12D+2        0.00000   0.00000   0.00000   0.00000   0.00000
  26       12D-2        0.00000   0.00000   0.00000   0.00000   0.00000
  27       13D 0        0.00000   0.00000   0.00000   0.00000   0.00000
  28       13D+1        0.00000   0.00000   0.00000   0.00000   0.00000
  29       13D-1        0.00000   0.00000   0.00000   0.00000   0.00000
  30       13D+2        0.00000   0.00000   0.00000   0.00000   0.00000
  31       13D-2        0.00000   0.00000   0.00000   0.00000   0.00000
  32       14D 0        0.00000   0.00000   0.00000   0.00000   0.00000
  33       14D+1        0.00000   0.00000   0.00000   0.00000   0.00000
  34       14D-1        0.00000   0.00000   0.00000   0.00000   0.00000
  35       14D+2        0.00000   0.00000   0.00000   0.00000   0.00000
  36       14D-2        0.00000   0.00000   0.00000   0.00000   0.00000
  37       15F 0        0.00000   1.19979   0.00000   0.00000   0.00000
  38       15F+1        0.00000   0.00000   0.00000   1.19980  -0.00009
  39       15F-1        0.00000   0.00000   1.19980   0.00000   0.00000
  40       15F+2        0.00000   0.00000   0.00000   0.00000   0.00000
  41       15F-2        1.19976   0.00000   0.00000   0.00000   0.00000
  42       15F+3        0.00000   0.00000   0.00000   0.00009   1.19967
  43       15F-3        0.00000   0.00000  -0.00009   0.00000   0.00000
  44       16F 0        0.00000  -0.60071   0.00000   0.00000   0.00000
  45       16F+1        0.00000   0.00000   0.00000  -0.60124   0.00005
  46       16F-1        0.00000   0.00000  -0.60124   0.00000   0.00000
  47       16F+2        0.00000  -0.00000   0.00000   0.00000   0.00000
  48       16F-2       -0.60032   0.00000   0.00000   0.00000   0.00000
  49       16F+3        0.00000   0.00000   0.00000  -0.00005  -0.59913
  50       16F-3        0.00000   0.00000   0.00005   0.00000   0.00000
                          46        47        48        49        50
                           V     (A1G)--V  (T1U)--V  (T1U)--V  (T1U)--V
     Eigenvalues --     0.89472   1.59659   1.95294   1.95294   1.95585
   1 1   Al 1S          0.00000  -0.01632   0.00000   0.00000   0.00000
   2        2S          0.00000   2.33600   0.00000   0.00000   0.00000
   3        3S          0.00000   4.87527   0.00000   0.00000   0.00000
   4        4S          0.00000  -3.68381   0.00000   0.00000   0.00000
   5        5S          0.00000  -3.29388   0.00000   0.00000   0.00000
   6        6S          0.00000   1.07393   0.00000   0.00000   0.00000
   7        7PX         0.00000   0.00000  -0.87635   0.00000   0.00000
   8        7PY         0.00000   0.00000   0.00000  -0.87635   0.00000
   9        7PZ         0.00000   0.00000   0.00000   0.00000  -0.87536
  10        8PX         0.00000   0.00000  -1.06767   0.00000   0.00000
  11        8PY        -0.00000   0.00000   0.00000  -1.06767   0.00000
  12        8PZ         0.00000   0.00000   0.00000   0.00000  -1.06615
  13        9PX         0.00000   0.00000   1.52014   0.00000   0.00000
  14        9PY        -0.00000   0.00000   0.00000   1.52014   0.00000
  15        9PZ         0.00000   0.00000   0.00000   0.00000   1.52048
  16       10PX         0.00000   0.00000   0.53520   0.00000   0.00000
  17       10PY        -0.00000   0.00000   0.00000   0.53520   0.00000
  18       10PZ         0.00000   0.00000   0.00000   0.00000   0.53456
  19       11PX         0.00000   0.00000  -0.16284   0.00000   0.00000
  20       11PY         0.00000   0.00000   0.00000  -0.16284   0.00000
  21       11PZ         0.00000   0.00000   0.00000   0.00000  -0.16270
  22       12D 0        0.00000   0.00244   0.00000   0.00000   0.00000
  23       12D+1        0.00000   0.00000   0.00000   0.00000   0.00000
  24       12D-1        0.00000   0.00000   0.00000   0.00000   0.00000
  25       12D+2        0.00000   0.00000   0.00000   0.00000   0.00000
  26       12D-2        0.00000   0.00000   0.00000   0.00000   0.00000
  27       13D 0        0.00000  -0.00593   0.00000   0.00000   0.00000
  28       13D+1        0.00000   0.00000   0.00000   0.00000   0.00000
  29       13D-1        0.00000   0.00000   0.00000   0.00000   0.00000
  30       13D+2        0.00000  -0.00000   0.00000   0.00000   0.00000
  31       13D-2        0.00000   0.00000   0.00000   0.00000   0.00000
  32       14D 0        0.00000  -0.00073   0.00000   0.00000   0.00000
  33       14D+1        0.00000   0.00000   0.00000   0.00000   0.00000
  34       14D-1        0.00000   0.00000   0.00000   0.00000   0.00000
  35       14D+2        0.00000  -0.00000   0.00000   0.00000   0.00000
  36       14D-2        0.00000   0.00000   0.00000   0.00000   0.00000
  37       15F 0        0.00000   0.00000   0.00000   0.00000   0.00095
  38       15F+1        0.00000   0.00000   0.00360   0.00000   0.00000
  39       15F-1        0.00009   0.00000   0.00000   0.00360   0.00000
  40       15F+2        0.00000   0.00000   0.00000   0.00000   0.00000
  41       15F-2        0.00000   0.00000   0.00000   0.00000   0.00000
  42       15F+3        0.00000   0.00000  -0.00000   0.00000   0.00000
  43       15F-3        1.19967   0.00000   0.00000   0.00000   0.00000
  44       16F 0        0.00000   0.00000   0.00000   0.00000  -0.00026
  45       16F+1        0.00000   0.00000  -0.00164   0.00000   0.00000
  46       16F-1       -0.00005   0.00000   0.00000  -0.00164   0.00000
  47       16F+2        0.00000   0.00000   0.00000   0.00000  -0.00000
  48       16F-2        0.00000   0.00000   0.00000   0.00000   0.00000
  49       16F+3        0.00000   0.00000   0.00000   0.00000   0.00000
  50       16F-3       -0.59913   0.00000   0.00000  -0.00000   0.00000
     Beta Molecular Orbital Coefficients:
                           1         2         3         4         5
                       (A1G)--O  (A1G)--O  (T1U)--O  (T1U)--O  (T1U)--O
     Eigenvalues --   -56.07481  -4.15056  -2.70526  -2.70526  -2.69560
   1 1   Al 1S          1.00227  -0.26005   0.00000   0.00000   0.00000
   2        2S         -0.00624   0.99355   0.00000   0.00000   0.00000
   3        3S          0.00463  -0.03300   0.00000   0.00000   0.00000
   4        4S         -0.00461   0.06955   0.00000   0.00000   0.00000
   5        5S         -0.00284   0.01472   0.00000   0.00000   0.00000
   6        6S          0.00093  -0.00432   0.00000   0.00000   0.00000
   7        7PX         0.00000   0.00000   0.87828   0.00000   0.00000
   8        7PY         0.00000   0.00000   0.00000   0.87828   0.00000
   9        7PZ         0.00000   0.00000   0.00000   0.00000   0.87921
  10        8PX         0.00000   0.00000   0.01901   0.00000   0.00000
  11        8PY         0.00000   0.00000   0.00000   0.01901   0.00000
  12        8PZ         0.00000   0.00000   0.00000   0.00000   0.01828
  13        9PX         0.00000   0.00000   0.18932   0.00000   0.00000
  14        9PY         0.00000   0.00000   0.00000   0.18932   0.00000
  15        9PZ         0.00000   0.00000   0.00000   0.00000   0.18819
  16       10PX         0.00000   0.00000  -0.00613   0.00000   0.00000
  17       10PY         0.00000   0.00000   0.00000  -0.00613   0.00000
  18       10PZ         0.00000   0.00000   0.00000   0.00000  -0.00591
  19       11PX         0.00000   0.00000   0.00185   0.00000   0.00000
  20       11PY         0.00000   0.00000   0.00000   0.00185   0.00000
  21       11PZ         0.00000   0.00000   0.00000   0.00000   0.00178
  22       12D 0        0.00000   0.00043   0.00000   0.00000   0.00000
  23       12D+1        0.00000   0.00000   0.00000   0.00000   0.00000
  24       12D-1        0.00000   0.00000   0.00000   0.00000   0.00000
  25       12D+2       -0.00000  -0.00000   0.00000   0.00000   0.00000
  26       12D-2        0.00000   0.00000   0.00000   0.00000   0.00000
  27       13D 0       -0.00000  -0.00092   0.00000   0.00000   0.00000
  28       13D+1        0.00000   0.00000   0.00000   0.00000   0.00000
  29       13D-1        0.00000   0.00000   0.00000   0.00000   0.00000
  30       13D+2        0.00000   0.00000   0.00000   0.00000   0.00000
  31       13D-2        0.00000   0.00000   0.00000   0.00000   0.00000
  32       14D 0       -0.00000  -0.00015   0.00000   0.00000   0.00000
  33       14D+1        0.00000   0.00000   0.00000   0.00000   0.00000
  34       14D-1        0.00000   0.00000   0.00000   0.00000   0.00000
  35       14D+2        0.00000   0.00000   0.00000   0.00000   0.00000
  36       14D-2        0.00000   0.00000   0.00000   0.00000   0.00000
  37       15F 0        0.00000   0.00000   0.00000   0.00000  -0.00060
  38       15F+1        0.00000   0.00000  -0.00050   0.00000   0.00000
  39       15F-1        0.00000   0.00000   0.00000  -0.00050   0.00000
  40       15F+2        0.00000   0.00000   0.00000   0.00000  -0.00000
  41       15F-2        0.00000   0.00000   0.00000   0.00000   0.00000
  42       15F+3        0.00000   0.00000  -0.00000   0.00000   0.00000
  43       15F-3        0.00000   0.00000   0.00000   0.00000   0.00000
  44       16F 0        0.00000   0.00000   0.00000   0.00000   0.00023
  45       16F+1        0.00000   0.00000   0.00019   0.00000   0.00000
  46       16F-1        0.00000   0.00000   0.00000   0.00019   0.00000
  47       16F+2        0.00000   0.00000   0.00000   0.00000   0.00000
  48       16F-2        0.00000   0.00000   0.00000   0.00000   0.00000
  49       16F+3        0.00000   0.00000   0.00000   0.00000   0.00000
  50       16F-3        0.00000   0.00000   0.00000  -0.00000   0.00000
                           6         7         8         9        10
                           O         V         V         V         V
     Eigenvalues --    -0.29700  -0.07295  -0.07295  -0.05065   0.00728
   1 1   Al 1S          0.06482   0.00000   0.00000   0.00000  -0.02083
   2        2S         -0.28207   0.00000   0.00000   0.00000   0.12252
   3        3S          0.55713   0.00000   0.00000   0.00000  -0.12056
   4        4S          0.16586   0.00000   0.00000   0.00000  -0.08489
   5        5S          0.37352   0.00000   0.00000   0.00000  -1.10402
   6        6S          0.00103   0.00000   0.00000   0.00000   1.74414
   7        7PX         0.00000  -0.16140   0.00000   0.00000   0.00000
   8        7PY         0.00000   0.00000  -0.16140   0.00000   0.00000
   9        7PZ         0.00000   0.00000   0.00000  -0.14998   0.00000
  10        8PX         0.00000   0.45115   0.00000   0.00000   0.00000
  11        8PY         0.00000   0.00000   0.45115   0.00000   0.00000
  12        8PZ         0.00000   0.00000   0.00000   0.39350   0.00000
  13        9PX         0.00000   0.03147   0.00000   0.00000   0.00000
  14        9PY         0.00000   0.00000   0.03147   0.00000   0.00000
  15        9PZ         0.00000   0.00000   0.00000   0.03246   0.00000
  16       10PX         0.00000   0.56917   0.00000   0.00000   0.00000
  17       10PY         0.00000   0.00000   0.56917   0.00000   0.00000
  18       10PZ         0.00000   0.00000   0.00000   0.55920   0.00000
  19       11PX         0.00000   0.12292   0.00000   0.00000   0.00000
  20       11PY         0.00000   0.00000   0.12292   0.00000   0.00000
  21       11PZ         0.00000   0.00000   0.00000   0.21987   0.00000
  22       12D 0       -0.02475   0.00000   0.00000   0.00000  -0.00296
  23       12D+1        0.00000   0.00000   0.00000   0.00000   0.00000
  24       12D-1        0.00000   0.00000   0.00000   0.00000   0.00000
  25       12D+2        0.00000   0.00000   0.00000   0.00000   0.00000
  26       12D-2        0.00000   0.00000   0.00000   0.00000   0.00000
  27       13D 0       -0.02280   0.00000   0.00000   0.00000   0.00937
  28       13D+1        0.00000   0.00000   0.00000   0.00000   0.00000
  29       13D-1        0.00000   0.00000   0.00000   0.00000   0.00000
  30       13D+2        0.00000   0.00000   0.00000   0.00000  -0.00000
  31       13D-2        0.00000   0.00000   0.00000   0.00000   0.00000
  32       14D 0        0.00052   0.00000   0.00000   0.00000  -0.01945
  33       14D+1        0.00000   0.00000   0.00000   0.00000   0.00000
  34       14D-1        0.00000   0.00000   0.00000   0.00000   0.00000
  35       14D+2        0.00000   0.00000   0.00000   0.00000  -0.00000
  36       14D-2        0.00000   0.00000   0.00000   0.00000   0.00000
  37       15F 0        0.00000   0.00000   0.00000  -0.01436   0.00000
  38       15F+1        0.00000  -0.01342   0.00000   0.00000   0.00000
  39       15F-1        0.00000   0.00000  -0.01342   0.00000   0.00000
  40       15F+2        0.00000   0.00000   0.00000   0.00000   0.00000
  41       15F-2        0.00000   0.00000   0.00000   0.00000   0.00000
  42       15F+3        0.00000   0.00000   0.00000   0.00000   0.00000
  43       15F-3        0.00000   0.00000  -0.00000   0.00000   0.00000
  44       16F 0        0.00000   0.00000   0.00000  -0.01884   0.00000
  45       16F+1        0.00000  -0.01014   0.00000   0.00000   0.00000
  46       16F-1        0.00000   0.00000  -0.01014   0.00000   0.00000
  47       16F+2        0.00000   0.00000   0.00000   0.00000   0.00000
  48       16F-2        0.00000   0.00000   0.00000   0.00000   0.00000
  49       16F+3        0.00000  -0.00000   0.00000   0.00000   0.00000
  50       16F-3        0.00000   0.00000   0.00000   0.00000   0.00000
                          11        12        13        14        15
                           V         V         V         V         V
     Eigenvalues --     0.02376   0.02376   0.02743   0.05684   0.05684
   1 1   Al 1S          0.00000   0.00000   0.00000  -0.00000   0.00000
   2        2S          0.00000   0.00000   0.00000   0.00000   0.00000
   3        3S          0.00000   0.00000   0.00000  -0.00000   0.00000
   4        4S          0.00000   0.00000   0.00000  -0.00000   0.00000
   5        5S          0.00000   0.00000   0.00000   0.00000   0.00000
   6        6S          0.00000   0.00000   0.00000   0.00000   0.00000
   7        7PX         0.00000   0.07467   0.00000   0.00000   0.00000
   8        7PY         0.07467   0.00000   0.00000   0.00000   0.00000
   9        7PZ         0.00000   0.00000   0.08572   0.00000   0.00000
  10        8PX         0.00000  -0.20303   0.00000   0.00000   0.00000
  11        8PY        -0.20303   0.00000   0.00000   0.00000   0.00000
  12        8PZ         0.00000   0.00000  -0.20985   0.00000   0.00000
  13        9PX         0.00000  -0.01973   0.00000   0.00000   0.00000
  14        9PY        -0.01973   0.00000   0.00000   0.00000   0.00000
  15        9PZ         0.00000   0.00000  -0.02390   0.00000   0.00000
  16       10PX         0.00000  -0.48715   0.00000   0.00000   0.00000
  17       10PY        -0.48715   0.00000   0.00000   0.00000   0.00000
  18       10PZ         0.00000   0.00000  -0.58149   0.00000   0.00000
  19       11PX         0.00000   1.16261   0.00000   0.00000   0.00000
  20       11PY         1.16261   0.00000   0.00000   0.00000   0.00000
  21       11PZ         0.00000   0.00000   1.16109   0.00000   0.00000
  22       12D 0        0.00000   0.00000   0.00000   0.00000   0.00000
  23       12D+1        0.00000   0.00000   0.00000   0.00000   0.00000
  24       12D-1        0.00000   0.00000   0.00000   0.00000   0.00000
  25       12D+2        0.00000   0.00000   0.00000   0.04515   0.00000
  26       12D-2        0.00000   0.00000   0.00000   0.00000   0.04515
  27       13D 0        0.00000   0.00000   0.00000  -0.00000   0.00000
  28       13D+1        0.00000   0.00000   0.00000   0.00000   0.00000
  29       13D-1        0.00000   0.00000   0.00000   0.00000   0.00000
  30       13D+2        0.00000   0.00000   0.00000   0.07508   0.00000
  31       13D-2        0.00000   0.00000   0.00000   0.00000   0.07508
  32       14D 0        0.00000   0.00000   0.00000  -0.00000   0.00000
  33       14D+1        0.00000   0.00000   0.00000   0.00000   0.00000
  34       14D-1        0.00000   0.00000   0.00000   0.00000   0.00000
  35       14D+2        0.00000   0.00000   0.00000   0.95618   0.00000
  36       14D-2        0.00000   0.00000   0.00000   0.00000   0.95618
  37       15F 0        0.00000   0.00000   0.00916   0.00000   0.00000
  38       15F+1        0.00000   0.00589   0.00000   0.00000   0.00000
  39       15F-1        0.00589   0.00000   0.00000   0.00000   0.00000
  40       15F+2        0.00000   0.00000   0.00000   0.00000   0.00000
  41       15F-2        0.00000   0.00000   0.00000   0.00000   0.00000
  42       15F+3        0.00000  -0.00000   0.00000   0.00000   0.00000
  43       15F-3        0.00000   0.00000   0.00000   0.00000   0.00000
  44       16F 0        0.00000   0.00000   0.00339   0.00000   0.00000
  45       16F+1        0.00000   0.00310   0.00000   0.00000   0.00000
  46       16F-1        0.00310   0.00000   0.00000   0.00000   0.00000
  47       16F+2        0.00000   0.00000   0.00000   0.00000   0.00000
  48       16F-2        0.00000   0.00000   0.00000   0.00000   0.00000
  49       16F+3        0.00000   0.00000   0.00000   0.00000   0.00000
  50       16F-3       -0.00000   0.00000   0.00000   0.00000   0.00000
                          16        17        18        19        20
                           V         V         V         V         V
     Eigenvalues --     0.05958   0.05958   0.06317   0.22692   0.22692
   1 1   Al 1S          0.00000   0.00000   0.00211  -0.00000   0.00000
   2        2S          0.00000   0.00000  -0.00302  -0.00000   0.00000
   3        3S          0.00000   0.00000   0.03762  -0.00000   0.00000
   4        4S          0.00000   0.00000   0.01184  -0.00000   0.00000
   5        5S          0.00000   0.00000  -0.07349   0.00000   0.00000
   6        6S          0.00000   0.00000   0.06157  -0.00000   0.00000
   7        7PX         0.00000   0.00000   0.00000   0.00000   0.00000
   8        7PY         0.00000   0.00000   0.00000   0.00000   0.00000
   9        7PZ         0.00000   0.00000   0.00000   0.00000   0.00000
  10        8PX         0.00000   0.00000   0.00000   0.00000   0.00000
  11        8PY         0.00000   0.00000   0.00000   0.00000   0.00000
  12        8PZ         0.00000   0.00000   0.00000   0.00000   0.00000
  13        9PX         0.00000   0.00000   0.00000   0.00000   0.00000
  14        9PY         0.00000   0.00000   0.00000   0.00000   0.00000
  15        9PZ         0.00000   0.00000   0.00000   0.00000   0.00000
  16       10PX         0.00000   0.00000   0.00000   0.00000   0.00000
  17       10PY         0.00000   0.00000   0.00000   0.00000   0.00000
  18       10PZ         0.00000   0.00000   0.00000   0.00000   0.00000
  19       11PX         0.00000   0.00000   0.00000   0.00000   0.00000
  20       11PY         0.00000   0.00000   0.00000   0.00000   0.00000
  21       11PZ         0.00000   0.00000   0.00000   0.00000   0.00000
  22       12D 0        0.00000   0.00000  -0.00685   0.00000   0.00000
  23       12D+1        0.00000   0.00346   0.00000   0.00000   0.00000
  24       12D-1        0.00346   0.00000   0.00000   0.00000   0.00000
  25       12D+2        0.00000   0.00000   0.00000   1.14323   0.00000
  26       12D-2        0.00000   0.00000   0.00000   0.00000   1.14323
  27       13D 0        0.00000   0.00000   0.06881   0.00000   0.00000
  28       13D+1        0.00000   0.07025   0.00000   0.00000   0.00000
  29       13D-1        0.07025   0.00000   0.00000   0.00000   0.00000
  30       13D+2        0.00000   0.00000   0.00000   0.11600   0.00000
  31       13D-2        0.00000   0.00000   0.00000   0.00000   0.11600
  32       14D 0        0.00000   0.00000   0.99054  -0.00000   0.00000
  33       14D+1        0.00000   0.98428   0.00000   0.00000   0.00000
  34       14D-1        0.98428   0.00000   0.00000   0.00000   0.00000
  35       14D+2        0.00000   0.00000   0.00000  -0.78506   0.00000
  36       14D-2        0.00000   0.00000   0.00000   0.00000  -0.78506
  37       15F 0        0.00000   0.00000   0.00000   0.00000   0.00000
  38       15F+1        0.00000   0.00000   0.00000   0.00000   0.00000
  39       15F-1        0.00000   0.00000   0.00000   0.00000   0.00000
  40       15F+2        0.00000   0.00000   0.00000   0.00000   0.00000
  41       15F-2        0.00000   0.00000   0.00000   0.00000   0.00000
  42       15F+3        0.00000   0.00000   0.00000   0.00000   0.00000
  43       15F-3        0.00000   0.00000   0.00000   0.00000   0.00000
  44       16F 0        0.00000   0.00000   0.00000   0.00000   0.00000
  45       16F+1        0.00000   0.00000   0.00000   0.00000   0.00000
  46       16F-1        0.00000   0.00000   0.00000   0.00000   0.00000
  47       16F+2        0.00000   0.00000   0.00000   0.00000   0.00000
  48       16F-2        0.00000   0.00000   0.00000   0.00000   0.00000
  49       16F+3        0.00000   0.00000   0.00000   0.00000   0.00000
  50       16F-3        0.00000   0.00000   0.00000   0.00000   0.00000
                          21        22        23        24        25
                           V         V         V         V         V
     Eigenvalues --     0.23431   0.23431   0.23956   0.24118   0.24118
   1 1   Al 1S          0.00000   0.00000  -0.06813   0.00000   0.00000
   2        2S          0.00000   0.00000  -0.08667   0.00000   0.00000
   3        3S          0.00000   0.00000  -1.75858   0.00000   0.00000
   4        4S          0.00000   0.00000  -0.43424   0.00000   0.00000
   5        5S          0.00000   0.00000   3.39551   0.00000   0.00000
   6        6S          0.00000   0.00000  -1.57966   0.00000   0.00000
   7        7PX         0.17798   0.00000   0.00000   0.00000   0.00000
   8        7PY         0.00000   0.17798   0.00000   0.00000   0.00000
   9        7PZ         0.00000   0.00000   0.00000   0.00000   0.00000
  10        8PX        -1.26186   0.00000   0.00000   0.00000   0.00000
  11        8PY         0.00000  -1.26186   0.00000   0.00000   0.00000
  12        8PZ         0.00000   0.00000   0.00000   0.00000   0.00000
  13        9PX        -0.02413   0.00000   0.00000   0.00000   0.00000
  14        9PY         0.00000  -0.02413   0.00000   0.00000   0.00000
  15        9PZ         0.00000   0.00000   0.00000   0.00000   0.00000
  16       10PX         1.50467   0.00000   0.00000   0.00000   0.00000
  17       10PY         0.00000   1.50467   0.00000   0.00000   0.00000
  18       10PZ         0.00000   0.00000   0.00000   0.00000   0.00000
  19       11PX        -0.58748   0.00000   0.00000   0.00000   0.00000
  20       11PY         0.00000  -0.58748   0.00000   0.00000   0.00000
  21       11PZ         0.00000   0.00000   0.00000   0.00000   0.00000
  22       12D 0        0.00000   0.00000  -0.41873   0.00000   0.00000
  23       12D+1        0.00000   0.00000   0.00000   1.15681   0.00000
  24       12D-1        0.00000   0.00000   0.00000   0.00000   1.15681
  25       12D+2        0.00000   0.00000   0.00000   0.00000   0.00000
  26       12D-2        0.00000   0.00000   0.00000   0.00000   0.00000
  27       13D 0        0.00000   0.00000  -0.00567   0.00000   0.00000
  28       13D+1        0.00000   0.00000   0.00000   0.10388   0.00000
  29       13D-1        0.00000   0.00000   0.00000   0.00000   0.10388
  30       13D+2        0.00000   0.00000  -0.00000   0.00000   0.00000
  31       13D-2        0.00000   0.00000   0.00000   0.00000   0.00000
  32       14D 0        0.00000   0.00000   0.27874   0.00000   0.00000
  33       14D+1        0.00000   0.00000   0.00000  -0.75395   0.00000
  34       14D-1        0.00000   0.00000   0.00000   0.00000  -0.75395
  35       14D+2        0.00000   0.00000  -0.00000   0.00000   0.00000
  36       14D-2        0.00000   0.00000   0.00000   0.00000   0.00000
  37       15F 0        0.00000   0.00000   0.00000   0.00000   0.00000
  38       15F+1        0.01726   0.00000   0.00000   0.00000   0.00000
  39       15F-1        0.00000   0.01726   0.00000   0.00000   0.00000
  40       15F+2        0.00000   0.00000   0.00000   0.00000   0.00000
  41       15F-2        0.00000   0.00000   0.00000   0.00000   0.00000
  42       15F+3        0.00000   0.00000   0.00000   0.00000   0.00000
  43       15F-3        0.00000  -0.00000   0.00000   0.00000   0.00000
  44       16F 0        0.00000   0.00000   0.00000   0.00000   0.00000
  45       16F+1       -0.04685   0.00000   0.00000   0.00000   0.00000
  46       16F-1        0.00000  -0.04685   0.00000   0.00000   0.00000
  47       16F+2        0.00000   0.00000   0.00000   0.00000   0.00000
  48       16F-2        0.00000   0.00000   0.00000   0.00000   0.00000
  49       16F+3       -0.00000   0.00000   0.00000   0.00000   0.00000
  50       16F-3        0.00000   0.00000   0.00000   0.00000   0.00000
                          26        27        28        29        30
                           V         V         V         V         V
     Eigenvalues --     0.24850   0.25087   0.26341   0.26341   0.26794
   1 1   Al 1S         -0.02221   0.00000   0.00000   0.00000   0.00000
   2        2S         -0.05381   0.00000   0.00000   0.00000   0.00000
   3        3S         -0.64098   0.00000   0.00000   0.00000   0.00000
   4        4S         -0.13253   0.00000   0.00000   0.00000   0.00000
   5        5S          1.26721   0.00000   0.00000   0.00000   0.00000
   6        6S         -0.58710   0.00000   0.00000   0.00000   0.00000
   7        7PX         0.00000   0.00000   0.00000   0.00000   0.00000
   8        7PY         0.00000   0.00000  -0.00000   0.00000   0.00000
   9        7PZ         0.00000   0.18250   0.00000   0.00000  -0.00000
  10        8PX         0.00000   0.00000   0.00000  -0.00000   0.00000
  11        8PY         0.00000   0.00000   0.00000   0.00000   0.00000
  12        8PZ         0.00000  -1.26916   0.00000   0.00000   0.00000
  13        9PX         0.00000   0.00000   0.00000  -0.00000   0.00000
  14        9PY         0.00000   0.00000   0.00000   0.00000   0.00000
  15        9PZ         0.00000  -0.02560   0.00000   0.00000   0.00000
  16       10PX         0.00000   0.00000   0.00000   0.00000   0.00000
  17       10PY         0.00000   0.00000  -0.00000   0.00000   0.00000
  18       10PZ         0.00000   1.46065   0.00000   0.00000  -0.00000
  19       11PX         0.00000   0.00000   0.00000  -0.00000   0.00000
  20       11PY         0.00000   0.00000   0.00000   0.00000   0.00000
  21       11PZ         0.00000  -0.55688   0.00000   0.00000   0.00000
  22       12D 0        1.08165   0.00000   0.00000   0.00000   0.00000
  23       12D+1        0.00000   0.00000   0.00000   0.00000   0.00000
  24       12D-1        0.00000   0.00000   0.00000   0.00000   0.00000
  25       12D+2       -0.00000   0.00000   0.00000   0.00000   0.00000
  26       12D-2        0.00000   0.00000   0.00000   0.00000   0.00000
  27       13D 0        0.10461   0.00000   0.00000   0.00000   0.00000
  28       13D+1        0.00000   0.00000   0.00000   0.00000   0.00000
  29       13D-1        0.00000   0.00000   0.00000   0.00000   0.00000
  30       13D+2       -0.00000   0.00000   0.00000   0.00000   0.00000
  31       13D-2        0.00000   0.00000   0.00000   0.00000   0.00000
  32       14D 0       -0.69270   0.00000   0.00000   0.00000   0.00000
  33       14D+1        0.00000   0.00000   0.00000   0.00000   0.00000
  34       14D-1        0.00000   0.00000   0.00000   0.00000   0.00000
  35       14D+2        0.00000   0.00000   0.00000   0.00000   0.00000
  36       14D-2        0.00000   0.00000   0.00000   0.00000   0.00000
  37       15F 0        0.00000   0.03168   0.00000   0.00000  -0.00000
  38       15F+1        0.00000   0.00000   0.00000  -0.00000   0.00000
  39       15F-1        0.00000   0.00000   0.00000   0.00000   0.00000
  40       15F+2        0.00000  -0.00000   0.00000   0.00000  -0.08989
  41       15F-2        0.00000   0.00000   0.00000   0.00000   0.00000
  42       15F+3        0.00000   0.00000   0.00000  -0.08150   0.00000
  43       15F-3        0.00000   0.00000  -0.08150   0.00000   0.00000
  44       16F 0        0.00000  -0.15134   0.00000   0.00000   0.00000
  45       16F+1        0.00000   0.00000   0.00000   0.00000   0.00000
  46       16F-1        0.00000   0.00000  -0.00000   0.00000   0.00000
  47       16F+2        0.00000   0.00000   0.00000   0.00000   1.04711
  48       16F-2        0.00000   0.00000   0.00000   0.00000   0.00000
  49       16F+3        0.00000   0.00000   0.00000   1.04295   0.00000
  50       16F-3        0.00000   0.00000   1.04295   0.00000   0.00000
                          31        32        33        34        35
                       (A2U)--V      V         V         V         V
     Eigenvalues --     0.26794   0.27309   0.27309   0.27491   0.76032
   1 1   Al 1S          0.00000   0.00000   0.00000   0.00000  -0.00000
   2        2S          0.00000   0.00000   0.00000   0.00000   0.00000
   3        3S          0.00000   0.00000   0.00000   0.00000   0.00000
   4        4S          0.00000   0.00000   0.00000   0.00000  -0.00000
   5        5S          0.00000   0.00000   0.00000   0.00000  -0.00000
   6        6S          0.00000   0.00000   0.00000   0.00000   0.00000
   7        7PX         0.00000   0.00000   0.00286   0.00000   0.00000
   8        7PY         0.00000   0.00286   0.00000   0.00000   0.00000
   9        7PZ         0.00000   0.00000   0.00000   0.01961   0.00000
  10        8PX         0.00000   0.00000  -0.04065   0.00000   0.00000
  11        8PY         0.00000  -0.04065   0.00000   0.00000   0.00000
  12        8PZ         0.00000   0.00000   0.00000  -0.16260   0.00000
  13        9PX         0.00000   0.00000   0.00124   0.00000   0.00000
  14        9PY         0.00000   0.00124   0.00000   0.00000   0.00000
  15        9PZ         0.00000   0.00000   0.00000  -0.00104   0.00000
  16       10PX         0.00000   0.00000   0.07058   0.00000   0.00000
  17       10PY         0.00000   0.07058   0.00000   0.00000   0.00000
  18       10PZ         0.00000   0.00000   0.00000   0.21936   0.00000
  19       11PX         0.00000   0.00000  -0.02756   0.00000   0.00000
  20       11PY         0.00000  -0.02756   0.00000   0.00000   0.00000
  21       11PZ         0.00000   0.00000   0.00000  -0.07976   0.00000
  22       12D 0        0.00000   0.00000   0.00000   0.00000  -0.00000
  23       12D+1        0.00000   0.00000   0.00000   0.00000   0.00000
  24       12D-1        0.00000   0.00000   0.00000   0.00000   0.00000
  25       12D+2        0.00000   0.00000   0.00000   0.00000  -1.11934
  26       12D-2        0.00000   0.00000   0.00000   0.00000   0.00000
  27       13D 0        0.00000   0.00000   0.00000   0.00000   0.00000
  28       13D+1        0.00000   0.00000   0.00000   0.00000   0.00000
  29       13D-1        0.00000   0.00000   0.00000   0.00000   0.00000
  30       13D+2        0.00000   0.00000   0.00000   0.00000   1.29716
  31       13D-2        0.00000   0.00000   0.00000   0.00000   0.00000
  32       14D 0        0.00000   0.00000   0.00000   0.00000   0.00000
  33       14D+1        0.00000   0.00000   0.00000   0.00000   0.00000
  34       14D-1        0.00000   0.00000   0.00000   0.00000   0.00000
  35       14D+2        0.00000   0.00000   0.00000   0.00000   0.40924
  36       14D-2        0.00000   0.00000   0.00000   0.00000   0.00000
  37       15F 0        0.00000   0.00000   0.00000  -0.09181   0.00000
  38       15F+1        0.00000   0.00000  -0.09276   0.00000   0.00000
  39       15F-1        0.00000  -0.09276   0.00000   0.00000   0.00000
  40       15F+2        0.00000   0.00000   0.00000   0.00000   0.00000
  41       15F-2       -0.08989   0.00000   0.00000   0.00000   0.00000
  42       15F+3        0.00000   0.00000   0.00000   0.00000   0.00000
  43       15F-3        0.00000  -0.00000   0.00000   0.00000   0.00000
  44       16F 0        0.00000   0.00000   0.00000   1.03845   0.00000
  45       16F+1        0.00000   0.00000   1.04763   0.00000   0.00000
  46       16F-1        0.00000   1.04763   0.00000   0.00000   0.00000
  47       16F+2        0.00000   0.00000   0.00000  -0.00000   0.00000
  48       16F-2        1.04711   0.00000   0.00000   0.00000   0.00000
  49       16F+3        0.00000   0.00000  -0.00000   0.00000   0.00000
  50       16F-3        0.00000   0.00000   0.00000   0.00000   0.00000
                          36        37        38        39        40
                           V         V         V         V         V
     Eigenvalues --     0.76032   0.77869   0.77869   0.78567   0.89159
   1 1   Al 1S          0.00000   0.00000   0.00000   0.00250   0.00000
   2        2S          0.00000   0.00000   0.00000  -0.00333   0.00000
   3        3S          0.00000   0.00000   0.00000   0.04778   0.00000
   4        4S          0.00000   0.00000   0.00000   0.01538   0.00000
   5        5S          0.00000   0.00000   0.00000  -0.06560   0.00000
   6        6S          0.00000   0.00000   0.00000   0.02352   0.00000
   7        7PX         0.00000   0.00000   0.00000   0.00000  -0.00000
   8        7PY         0.00000   0.00000   0.00000   0.00000   0.00000
   9        7PZ         0.00000   0.00000   0.00000   0.00000   0.00000
  10        8PX         0.00000   0.00000   0.00000   0.00000   0.00000
  11        8PY         0.00000   0.00000   0.00000   0.00000   0.00000
  12        8PZ         0.00000   0.00000   0.00000   0.00000   0.00000
  13        9PX         0.00000   0.00000   0.00000   0.00000   0.00000
  14        9PY         0.00000   0.00000   0.00000   0.00000   0.00000
  15        9PZ         0.00000   0.00000   0.00000   0.00000   0.00000
  16       10PX         0.00000   0.00000   0.00000   0.00000  -0.00000
  17       10PY         0.00000   0.00000   0.00000   0.00000   0.00000
  18       10PZ         0.00000   0.00000   0.00000   0.00000   0.00000
  19       11PX         0.00000   0.00000   0.00000   0.00000   0.00000
  20       11PY         0.00000   0.00000   0.00000   0.00000   0.00000
  21       11PZ         0.00000   0.00000   0.00000   0.00000   0.00000
  22       12D 0        0.00000   0.00000   0.00000  -1.10269   0.00000
[...]
  41       15F-2       -0.00000   0.00000   0.00000   0.00000   0.00000
  42       15F+3        0.00000   0.00000   0.00000   0.00000   0.00000
  43       15F-3        0.00000   0.00000   0.00000   0.00000   0.00000
  44       16F 0       -0.00000   0.00000   0.00000   0.00000   0.00000
  45       16F+1        0.00000   0.00000   0.00000   0.00000   0.00000
  46       16F-1       -0.00000   0.00000   0.00000   0.00000   0.00000
  47       16F+2        0.00000   0.00000   0.00000   0.00000   0.00000
  48       16F-2        0.00000   0.00000   0.00000   0.00000   0.00000
  49       16F+3       -0.00000   0.00000   0.00000   0.00000   0.00000
  50       16F-3       -0.00000   0.00000   0.00000   0.00000   0.00000
                          26        27        28        29        30
  26       12D-2       -0.00000
  27       13D 0       -0.00000   0.00061
  28       13D+1        0.00000  -0.00000   0.00000
  29       13D-1        0.00000  -0.00000   0.00000   0.00000
  30       13D+2        0.00000   0.00000   0.00000   0.00000   0.00000
  31       13D-2        0.00000  -0.00000   0.00000   0.00000  -0.00000
  32       14D 0       -0.00000   0.00000  -0.00000  -0.00000   0.00000
  33       14D+1        0.00000  -0.00000   0.00000   0.00000   0.00000
  34       14D-1        0.00000  -0.00000   0.00000   0.00000  -0.00000
  35       14D+2        0.00000  -0.00000   0.00000  -0.00000   0.00000
  36       14D-2        0.00000  -0.00000   0.00000   0.00000  -0.00000
  37       15F 0        0.00000   0.00000   0.00000   0.00000   0.00000
  38       15F+1        0.00000   0.00000   0.00000   0.00000   0.00000
  39       15F-1        0.00000   0.00000   0.00000   0.00000   0.00000
  40       15F+2        0.00000   0.00000   0.00000   0.00000   0.00000
  41       15F-2        0.00000   0.00000   0.00000   0.00000   0.00000
  42       15F+3        0.00000   0.00000   0.00000   0.00000   0.00000
  43       15F-3        0.00000   0.00000   0.00000   0.00000   0.00000
  44       16F 0        0.00000   0.00000   0.00000   0.00000   0.00000
  45       16F+1        0.00000   0.00000   0.00000   0.00000   0.00000
  46       16F-1        0.00000   0.00000   0.00000   0.00000   0.00000
  47       16F+2        0.00000   0.00000   0.00000   0.00000   0.00000
  48       16F-2        0.00000   0.00000   0.00000   0.00000   0.00000
  49       16F+3        0.00000   0.00000   0.00000   0.00000   0.00000
  50       16F-3        0.00000   0.00000   0.00000   0.00000   0.00000
                          31        32        33        34        35
  31       13D-2       -0.00000
  32       14D 0        0.00000   0.00001
  33       14D+1        0.00000  -0.00000   0.00000
  34       14D-1        0.00000   0.00000   0.00000   0.00000
  35       14D+2       -0.00000   0.00000   0.00000  -0.00000   0.00000
  36       14D-2        0.00000  -0.00000   0.00000   0.00000   0.00000
  37       15F 0        0.00000   0.00000   0.00000   0.00000   0.00000
  38       15F+1        0.00000   0.00000   0.00000   0.00000   0.00000
  39       15F-1        0.00000   0.00000   0.00000   0.00000   0.00000
  40       15F+2        0.00000   0.00000   0.00000   0.00000   0.00000
  41       15F-2        0.00000   0.00000   0.00000   0.00000   0.00000
  42       15F+3        0.00000   0.00000   0.00000   0.00000   0.00000
  43       15F-3        0.00000   0.00000   0.00000   0.00000   0.00000
  44       16F 0        0.00000   0.00000   0.00000   0.00000   0.00000
  45       16F+1        0.00000   0.00000   0.00000   0.00000   0.00000
  46       16F-1        0.00000   0.00000   0.00000   0.00000   0.00000
  47       16F+2        0.00000   0.00000   0.00000   0.00000   0.00000
  48       16F-2        0.00000   0.00000   0.00000   0.00000   0.00000
  49       16F+3        0.00000   0.00000   0.00000   0.00000   0.00000
  50       16F-3        0.00000   0.00000   0.00000   0.00000   0.00000
                          36        37        38        39        40
  36       14D-2        0.00000
  37       15F 0        0.00000   0.00001
  38       15F+1        0.00000   0.00000   0.00000
  39       15F-1        0.00000  -0.00000   0.00000   0.00000
  40       15F+2        0.00000  -0.00000   0.00000   0.00000   0.00000
  41       15F-2        0.00000   0.00000  -0.00000  -0.00000   0.00000
  42       15F+3        0.00000   0.00000   0.00000  -0.00000   0.00000
  43       15F-3        0.00000  -0.00000  -0.00000   0.00000   0.00000
  44       16F 0        0.00000   0.00000  -0.00000  -0.00000  -0.00000
  45       16F+1        0.00000   0.00000  -0.00000  -0.00000   0.00000
  46       16F-1        0.00000   0.00000   0.00000  -0.00000   0.00000
  47       16F+2        0.00000   0.00000  -0.00000   0.00000  -0.00000
  48       16F-2        0.00000  -0.00000   0.00000  -0.00000   0.00000
  49       16F+3        0.00000   0.00000   0.00000   0.00000  -0.00000
  50       16F-3        0.00000   0.00000   0.00000   0.00000   0.00000
                          41        42        43        44        45
  41       15F-2        0.00000
  42       15F+3       -0.00000   0.00000
  43       15F-3       -0.00000  -0.00000   0.00000
  44       16F 0        0.00000   0.00000   0.00000   0.00000
  45       16F+1        0.00000  -0.00000  -0.00000   0.00000   0.00000
  46       16F-1        0.00000  -0.00000  -0.00000  -0.00000   0.00000
  47       16F+2        0.00000   0.00000   0.00000  -0.00000  -0.00000
  48       16F-2       -0.00000  -0.00000   0.00000  -0.00000  -0.00000
  49       16F+3        0.00000  -0.00000  -0.00000  -0.00000  -0.00000
  50       16F-3        0.00000   0.00000  -0.00000   0.00000   0.00000
                          46        47        48        49        50
  46       16F-1        0.00000
  47       16F+2       -0.00000   0.00000
  48       16F-2        0.00000   0.00000   0.00000
  49       16F+3        0.00000  -0.00000   0.00000   0.00000
  50       16F-3       -0.00000   0.00000   0.00000  -0.00000   0.00000
     Gross orbital populations:
                         Total     Alpha     Beta      Spin
   1 1   Al 1S          1.99992   0.99996   0.99996  -0.00000
   2        2S          1.93197   0.96613   0.96584   0.00029
   3        3S          1.09500   0.55613   0.53888   0.01725
   4        4S          0.29681   0.14271   0.15410  -0.01139
   5        5S          0.67773   0.33847   0.33926  -0.00079
   6        6S         -0.00394  -0.00412   0.00018  -0.00430
   7        7PX         1.73219   0.86624   0.86595   0.00028
   8        7PY         1.73219   0.86624   0.86595   0.00028
   9        7PZ         1.74828   0.88122   0.86706   0.01415
  10        8PX         0.00790   0.00397   0.00393   0.00003
  11        8PY         0.00790   0.00397   0.00393   0.00003
  12        8PZ         0.45791   0.45415   0.00376   0.45039
  13        9PX         0.26076   0.13023   0.13054  -0.00031
  14        9PY         0.26076   0.13023   0.13054  -0.00031
  15        9PZ         0.26718   0.13760   0.12958   0.00801
  16       10PX        -0.00091  -0.00046  -0.00045  -0.00000
  17       10PY        -0.00091  -0.00046  -0.00045  -0.00000
  18       10PZ         0.50359   0.50403  -0.00043   0.50446
  19       11PX         0.00006   0.00003   0.00003   0.00000
  20       11PY         0.00006   0.00003   0.00003   0.00000
  21       11PZ         0.02302   0.02299   0.00003   0.02296
  22       12D 0        0.00141   0.00047   0.00094  -0.00047
  23       12D+1        0.00000   0.00000   0.00000  -0.00000
  24       12D-1        0.00000   0.00000   0.00000  -0.00000
  25       12D+2       -0.00000  -0.00000  -0.00000   0.00000
  26       12D-2       -0.00000   0.00000  -0.00000   0.00000
  27       13D 0        0.00106   0.00020   0.00085  -0.00065
  28       13D+1        0.00000   0.00000   0.00000  -0.00000
  29       13D-1        0.00000   0.00000   0.00000  -0.00000
  30       13D+2        0.00000   0.00000   0.00000   0.00000
  31       13D-2       -0.00000  -0.00000  -0.00000   0.00000
  32       14D 0        0.00004   0.00005  -0.00001   0.00006
  33       14D+1        0.00000   0.00000  -0.00000   0.00000
  34       14D-1        0.00000   0.00000  -0.00000   0.00000
  35       14D+2        0.00000   0.00000   0.00000   0.00000
  36       14D-2        0.00000   0.00000   0.00000   0.00000
  37       15F 0        0.00001   0.00001   0.00000   0.00001
  38       15F+1        0.00000   0.00000   0.00000  -0.00000
  39       15F-1        0.00000   0.00000   0.00000  -0.00000
  40       15F+2       -0.00000  -0.00000   0.00000  -0.00000
  41       15F-2        0.00000   0.00000   0.00000  -0.00000
  42       15F+3       -0.00000  -0.00000  -0.00000  -0.00000
  43       15F-3       -0.00000  -0.00000  -0.00000  -0.00000
  44       16F 0        0.00001   0.00001  -0.00000   0.00001
  45       16F+1       -0.00000   0.00000  -0.00000   0.00000
  46       16F-1       -0.00000   0.00000  -0.00000   0.00000
  47       16F+2       -0.00000  -0.00000  -0.00000  -0.00000
  48       16F-2       -0.00000   0.00000  -0.00000   0.00000
  49       16F+3        0.00000   0.00000   0.00000   0.00000
  50       16F-3        0.00000   0.00000   0.00000   0.00000
          Condensed to atoms (all electrons):
               1
     1  Al  13.000000
          Atomic-Atomic Spin Densities.
               1
     1  Al   1.000000
 Mulliken charges and spin densities:
               1          2
     1  Al  -0.000000   1.000000
 Sum of Mulliken charges =  -0.00000   1.00000
 Mulliken charges and spin densities with hydrogens summed into heavy atoms:
               1          2
     1  Al  -0.000000   1.000000
 Electronic spatial extent (au):  <R**2>=             32.8061
 Charge=             -0.0000 electrons
 Dipole moment (field-independent basis, Debye):
    X=              0.0000    Y=              0.0000    Z=              0.0000  Tot=              0.0000
 Quadrupole moment (field-independent basis, Debye-Ang):
   XX=            -12.2338   YY=            -12.2338   ZZ=            -19.6577
   XY=             -0.0000   XZ=             -0.0000   YZ=              0.0000
 Traceless Quadrupole moment (field-independent basis, Debye-Ang):
   XX=              2.4746   YY=              2.4746   ZZ=             -4.9493
   XY=             -0.0000   XZ=             -0.0000   YZ=              0.0000
 Octapole moment (field-independent basis, Debye-Ang**2):
  XXX=              0.0000  YYY=              0.0000  ZZZ=              0.0000  XYY=              0.0000
  XXY=              0.0000  XXZ=              0.0000  XZZ=              0.0000  YZZ=              0.0000
  YYZ=              0.0000  XYZ=              0.0000
 Hexadecapole moment (field-independent basis, Debye-Ang**3):
 XXXX=            -27.3723 YYYY=            -27.3723 ZZZZ=            -75.3191 XXXY=              0.0000
 XXXZ=             -0.0000 YYYX=             -0.0000 YYYZ=              0.0000 ZZZX=             -0.0000
 ZZZY=              0.0000 XXYY=             -9.1241 XXZZ=            -17.0580 YYZZ=            -17.0580
 XXYZ=              0.0000 YYXZ=             -0.0000 ZZXY=             -0.0000
 N-N= 0.000000000000D+00 E-N=-5.782381484276D+02  KE= 2.415667624327D+02
 Symmetry AG   KE= 1.820187578305D+02
 Symmetry B1G  KE=-9.026107682639D-53
 Symmetry B2G  KE= 8.958572604784D-36
 Symmetry B3G  KE= 8.958572604783D-36
 Symmetry AU   KE= 2.122443533529D-39
 Symmetry B1U  KE= 2.029954671126D+01
 Symmetry B2U  KE= 1.962422894546D+01
 Symmetry B3U  KE= 1.962422894546D+01
 Symmetry AG   SP=-9.790995998697D-15
 Symmetry B1G  SP= 1.561788512398D-52
 Symmetry B2G  SP=-5.969125104661D-36
 Symmetry B3G  SP=-5.969125104661D-36
 Symmetry AU   SP=-1.644077514032D-39
 Symmetry B1U  SP= 1.000000000000D+00
 Symmetry B2U  SP= 1.374754896278D-15
 Symmetry B3U  SP= 1.198614292214D-15
 Orbital energies and kinetic energies (alpha):
                                 1                 2
   1         (A1G)--O        -56.076873         79.218740
   2         (A1G)--O         -4.152860         10.719541
   3         (T1U)--O         -2.706363          9.814044
   4         (T1U)--O         -2.706363          9.814044
   5         (T1U)--O         -2.703662          9.837215
   6         O                -0.321303          1.064383
   7         O                -0.133329          0.636137
   8         V                -0.077753          0.572956
   9         V                -0.077753          0.572956
  10         V                 0.004485          0.191866
  11         V                 0.018315          0.125414
  12         V                 0.023291          0.149039
  13         V                 0.023291          0.149039
  14         V                 0.051228          0.142160
  15         V                 0.051228          0.142160
  16         V                 0.054723          0.142357
  17         V                 0.058434          0.139087
  18         V                 0.058452          0.139101
  19         V                 0.217543          0.472957
  20         V                 0.217543          0.472957
  21         V                 0.220166          0.491080
  22         V                 0.224585          0.966115
  23         V                 0.226856          0.474107
  24         V                 0.226866          0.474097
  25         V                 0.232908          1.013625
  26         V                 0.232908          1.013625
  27         V                 0.233157          0.953303
  28         V                 0.260298          0.373600
  29         (A2U)--V          0.260299          0.373600
  30         V                 0.261538          0.373881
  31         V                 0.262863          0.375728
  32         V                 0.262863          0.375728
  33         V                 0.266504          0.373451
  34         V                 0.266504          0.373451
  35         (T2G)--V          0.757872          1.401013
  36         (T2G)--V          0.757872          1.401013
  37         (EG)--V           0.760410          1.400393
  38         (T2G)--V          0.762437          1.402936
  39         (EG)--V           0.762439          1.402933
  40         V                 0.887236          1.262699
  41         (A2U)--V          0.887236          1.262699
  42         V                 0.888314          1.262663
  43         V                 0.888750          1.262746
  44         V                 0.888750          1.262746
  45         V                 0.894723          1.262848
  46         V                 0.894723          1.262848
  47         (A1G)--V          1.596590          6.012581
  48         (T1U)--V          1.952940          8.140921
  49         (T1U)--V          1.952940          8.140921
  50         (T1U)--V          1.955854          8.127634
 Orbital energies and kinetic energies (beta):
                                 1                 2
   1         (A1G)--O        -56.074808         79.220005
   2         (A1G)--O         -4.150557         10.716909
   3         (T1U)--O         -2.705262          9.810185
   4         (T1U)--O         -2.705262          9.810185
   5         (T1U)--O         -2.695598          9.826195
   6         O                -0.297003          1.079181
   7         V                -0.072953          0.562798
   8         V                -0.072953          0.562798
   9         V                -0.050648          0.484122
  10         V                 0.007280          0.187013
  11         V                 0.023758          0.157250
  12         V                 0.023758          0.157250
  13         V                 0.027434          0.193008
  14         V                 0.056840          0.138336
  15         V                 0.056840          0.138336
  16         V                 0.059579          0.132329
  17         V                 0.059579          0.132329
  18         V                 0.063174          0.131709
  19         V                 0.226925          0.475102
  20         V                 0.226925          0.475102
  21         V                 0.234307          1.024934
  22         V                 0.234307          1.024934
  23         V                 0.239561          0.933762
  24         V                 0.241182          0.475993
  25         V                 0.241182          0.475993
  26         V                 0.248501          0.515378
  27         V                 0.250868          1.060133
  28         V                 0.263407          0.373347
  29         V                 0.263407          0.373347
  30         V                 0.267940          0.372494
  31         (A2U)--V          0.267940          0.372494
  32         V                 0.273094          0.372316
  33         V                 0.273094          0.372316
  34         V                 0.274906          0.380305
  35         V                 0.760321          1.402693
  36         V                 0.760321          1.402692
  37         V                 0.778688          1.407808
  38         V                 0.778688          1.407808
  39         V                 0.785665          1.409238
  40         V                 0.891585          1.262953
  41         V                 0.891585          1.262953
  42         V                 0.907170          1.263805
  43         (A2U)--V          0.907170          1.263805
  44         V                 0.916966          1.264679
  45         V                 0.916966          1.264679
  46         V                 0.920507          1.265197
  47         (A1G)--V          1.603800          6.001051
  48         (T1U)--V          1.954028          8.136896
  49         (T1U)--V          1.954028          8.136896
  50         (T1U)--V          1.973295          8.120099
 Total kinetic energy from orbitals= 2.415667624327D+02
                          Isotropic Fermi Contact Couplings
        Atom                 a.u.       MegaHertz       Gauss      10(-4) cm-1
     1  Al(27)            -0.02753     -32.09144     -11.45102     -10.70455
 --------------------------------------------------------
       Center         ----  Spin Dipole Couplings  ----
                      3XX-RR        3YY-RR        3ZZ-RR
 --------------------------------------------------------
     1   Atom       -0.534116     -0.534116      1.068231
 --------------------------------------------------------
                        XY            XZ            YZ
 --------------------------------------------------------
     1   Atom        0.000000      0.000000      0.000000
 --------------------------------------------------------


 ---------------------------------------------------------------------------------
              Anisotropic Spin Dipole Couplings in Principal Axis System
 ---------------------------------------------------------------------------------

       Atom             a.u.   MegaHertz   Gauss  10(-4) cm-1        Axes

              Baa    -0.5341   -74.315   -26.517   -24.789  1.0000  0.0000  0.0000
     1 Al(27) Bbb    -0.5341   -74.315   -26.517   -24.789 -0.0000  1.0000  0.0000
              Bcc     1.0682   148.630    53.035    49.578  0.0000  0.0000  1.0000
 

 ---------------------------------------------------------------------------------

 1\1\GINC-LOGIN\SP\UB3LYP\Aug-CC-pVTZ\Al1(2)\C7441090\20-Nov-2023\0\\# 
 B3LYP/aug-cc-pVTZ EmpiricalDispersion=GD3 Pop=Full\\Aluminum\\0,2\Al,0
 ,0.,0.,0.\\Version=ES64L-G16RevA.03\HF=-242.3897875\S2=0.754766\S2-1=0
 .\S2A=0.75\RMSD=1.565e-09\Dipole=0.,0.,0.\Quadrupole=-3.6796662,1.8398
 331,1.8398331,0.,0.,0.\PG=OH [O(Al1)]\\@


 NOTHING RESEMBLES A NEW PHENOMENON AS MUCH AS A MISTAKE.

                               -- ENRICO FERMI (?)
 Job cpu time:       0 days  0 hours  0 minutes  8.7 seconds.
 Elapsed time:       0 days  0 hours  0 minutes  4.8 seconds.
 File lengths (MBytes):  RWF=      5 Int=      0 D2E=      0 Chk=      1 Scr=      1
 Normal termination of Gaussian 16 at Mon Nov 20 23:50:48 2023.
