Argon                                                                   
SP        RB3LYP                                                      Aug-CC-pVTZ         
Number of atoms                            I                1
Info1-9                                    I   N=           9
          12          11           0           0           0         110
           1          18        -502
Full Title                                 C   N=           1
Argon       
Route                                      C   N=           5
# B3LYP/aug-cc-pVTZ EmpiricalDispersion=GD3 Pop=Full        
Charge                                     I                0
Multiplicity                               I                1
Number of electrons                        I               18
Number of alpha electrons                  I                9
Number of beta electrons                   I                9
Number of basis functions                  I               50
Number of independent functions            I               50
Number of point charges in /Mol/           I                0
Number of translation vectors              I                0
Atomic numbers                             I   N=           1
          18
Nuclear charges                            R   N=           1
  1.80000000E+01
Current cartesian coordinates              R   N=           3
  0.00000000E+00  0.00000000E+00  0.00000000E+00
Number of symbols in /Mol/                 I                0
Force Field                                I                0
Atom Types                                 C   N=           1
            
Int Atom Types                             I   N=           1
           0
MM charges                                 R   N=           1
  0.00000000E+00
Integer atomic weights                     I   N=           1
          40
Real atomic weights                        R   N=           1
  3.99623831E+01
Atom fragment info                         I   N=           1
           0
Atom residue num                           I   N=           1
           0
Nuclear spins                              I   N=           1
           0
Nuclear ZEff                               R   N=           1
 -1.49000000E+01
Nuclear ZNuc                               R   N=           1
  1.80000000E+01
Nuclear QMom                               R   N=           1
  0.00000000E+00
Nuclear GFac                               R   N=           1
  0.00000000E+00
MicOpt                                     I   N=           1
          -1
Number of residues                         I                0
Number of secondary structures             I                0
SymInf integers                            I   N=          26
           1           8           1           1           1           1
          -1          -1          -1           1          -1          -1
          -1           1          -1          -1          -1          -1
           1           1           1          -1           1           1
           1          -1
RotTr to input orientation                 R   N=          12
  0.00000000E+00  0.00000000E+00 -1.00000000E+00  0.00000000E+00  1.00000000E+00
  0.00000000E+00  1.00000000E+00  0.00000000E+00  0.00000000E+00  0.00000000E+00
  0.00000000E+00  0.00000000E+00
Number of contracted shells                I               16
Number of primitive shells                 I               50
Pure/Cartesian d shells                    I                0
Pure/Cartesian f shells                    I                0
Highest angular momentum                   I                3
Largest degree of contraction              I               11
Shell types                                I   N=          16
           0           0           0           0           0           0
           1           1           1           1           1          -2
          -2          -2          -3          -3
Number of primitives per shell             I   N=          16
          11           8           8           1           1           1
           6           6           1           1           1           1
           1           1           1           1
Shell to atom map                          I   N=          16
           1           1           1           1           1           1
           1           1           1           1           1           1
           1           1           1           1
Primitive exponents                        R   N=          50
  5.45000000E+05  8.16400000E+04  1.85800000E+04  5.26100000E+03  1.71700000E+03
  6.19900000E+02  2.41600000E+02  9.97900000E+01  4.31500000E+01  1.91400000E+01
  7.48800000E+00  1.71700000E+03  6.19900000E+02  2.41600000E+02  9.97900000E+01
  4.31500000E+01  1.91400000E+01  7.48800000E+00  3.20500000E+00  1.71700000E+03
  2.41600000E+02  9.97900000E+01  4.31500000E+01  1.91400000E+01  7.48800000E+00
  3.20500000E+00  5.20400000E-01  1.19600000E+00  1.95400000E-01  6.85000000E-02
  7.61800000E+02  1.80200000E+02  5.75000000E+01  2.12400000E+01  8.38800000E+00
  3.41600000E+00  1.80200000E+02  5.75000000E+01  2.12400000E+01  8.38800000E+00
  3.41600000E+00  4.52300000E-01  1.20600000E+00  1.54500000E-01  4.87000000E-02
  4.10000000E-01  1.25400000E+00  1.69000000E-01  8.90000000E-01  4.06000000E-01
Contraction coefficients                   R   N=          50
  4.55893516E-05  3.54182434E-04  1.85835229E-03  7.77010822E-03  2.74289723E-02
  8.24014893E-02  2.01278593E-01  3.56885344E-01  3.49721895E-01  1.18296751E-01
  5.18997091E-03 -1.56295049E-04 -1.12978242E-03 -8.66244649E-03 -3.72792742E-02
 -1.04880086E-01 -7.77948436E-03  4.99709162E-01  5.93553178E-01  3.75511099E-06
  2.01805158E-04  8.29911424E-04  4.64060756E-03  1.71232874E-03 -7.38065500E-02
 -3.71894969E-01  1.17117735E+00  1.00000000E+00  1.00000000E+00  1.00000000E+00
  2.43401649E-03  1.95358959E-02  9.04618294E-02  2.63294790E-01  4.50437785E-01
  3.57037347E-01  4.98192178E-05 -1.33870903E-03 -6.31105590E-03 -3.14331895E-02
  8.17695974E-03  1.00113946E+00  1.00000000E+00  1.00000000E+00  1.00000000E+00
  1.00000000E+00  1.00000000E+00  1.00000000E+00  1.00000000E+00  1.00000000E+00
Coordinates of each shell                  R   N=          48
  0.00000000E+00  0.00000000E+00  0.00000000E+00  0.00000000E+00  0.00000000E+00
  0.00000000E+00  0.00000000E+00  0.00000000E+00  0.00000000E+00  0.00000000E+00
  0.00000000E+00  0.00000000E+00  0.00000000E+00  0.00000000E+00  0.00000000E+00
  0.00000000E+00  0.00000000E+00  0.00000000E+00  0.00000000E+00  0.00000000E+00
  0.00000000E+00  0.00000000E+00  0.00000000E+00  0.00000000E+00  0.00000000E+00
  0.00000000E+00  0.00000000E+00  0.00000000E+00  0.00000000E+00  0.00000000E+00
  0.00000000E+00  0.00000000E+00  0.00000000E+00  0.00000000E+00  0.00000000E+00
  0.00000000E+00  0.00000000E+00  0.00000000E+00  0.00000000E+00  0.00000000E+00
  0.00000000E+00  0.00000000E+00  0.00000000E+00  0.00000000E+00  0.00000000E+00
  0.00000000E+00  0.00000000E+00  0.00000000E+00
Num ILSW                                   I              100
ILSW                                       I   N=         100
           0           0           0           0           2           0
           0           0           0           0         402          -1
           5           0           0           0           0           0
           0           0           1           0           0           0
           1           0           0           0           0           0
           0           0      100000           0          -1           0
           0           0           0           0           0           0
           0           0           0           1           0           0
           0 -2000000000           1           0           0           0
           0           0         131          52           0           0
           0           0           5           0           0           0
           0           0           0           0           0           1
           0           0           0           0           0           0
           0           0           0           0           0           0
           0           0           0           0           0           0
           0           0           0           0           0           0
           0           0           0           0
Num RLSW                                   I               52
RLSW                                       R   N=          52
  8.00000000E-01  7.20000000E-01  1.00000000E+00  8.10000000E-01  2.00000000E-01
  0.00000000E+00  0.00000000E+00  1.00000000E+00  0.00000000E+00  0.00000000E+00
  0.00000000E+00  0.00000000E+00  1.00000000E+00  0.00000000E+00  0.00000000E+00
  0.00000000E+00  0.00000000E+00  1.00000000E+00  0.00000000E+00  0.00000000E+00
  0.00000000E+00  0.00000000E+00  1.00000000E+00  0.00000000E+00  0.00000000E+00
  0.00000000E+00  0.00000000E+00  1.00000000E+00  0.00000000E+00  0.00000000E+00
  0.00000000E+00  0.00000000E+00  1.00000000E+00  0.00000000E+00  0.00000000E+00
  0.00000000E+00  0.00000000E+00  0.00000000E+00  1.00000000E+00  1.00000000E+00
  0.00000000E+00  1.00000000E+00  0.00000000E+00  0.00000000E+00  0.00000000E+00
  0.00000000E+00  0.00000000E+00  0.00000000E+00  0.00000000E+00  0.00000000E+00
  0.00000000E+00  0.00000000E+00
MxBond                                     I                1
NBond                                      I   N=           1
           0
IBond                                      I   N=           1
           0
RBond                                      R   N=           1
  0.00000000E+00
Virial Ratio                               R      2.002556665213001E+00
SCF Energy                                 R     -5.275600019755194E+02
Total Energy                               R     -5.275600019755194E+02
RMS Density                                R      6.727727592080055E-09
Job Status                                 I                1
Nuclear derivative order                   I                0
External E-field                           R   N=          35
  0.00000000E+00  0.00000000E+00  0.00000000E+00  0.00000000E+00  0.00000000E+00
  0.00000000E+00  0.00000000E+00  0.00000000E+00  0.00000000E+00  0.00000000E+00
  0.00000000E+00  0.00000000E+00  0.00000000E+00  0.00000000E+00  0.00000000E+00
  0.00000000E+00  0.00000000E+00  0.00000000E+00  0.00000000E+00  0.00000000E+00
  0.00000000E+00  0.00000000E+00  0.00000000E+00  0.00000000E+00  0.00000000E+00
  0.00000000E+00  0.00000000E+00  0.00000000E+00  0.00000000E+00  0.00000000E+00
  0.00000000E+00  0.00000000E+00  0.00000000E+00  0.00000000E+00  0.00000000E+00
IOpCl                                      I                0
IROHF                                      I                0
Alpha Orbital Energies                     R   N=          50
 -1.15121549E+02 -1.11450494E+01 -8.69619598E+00 -8.69619598E+00 -8.69619598E+00
 -9.71314178E-01 -4.29284833E-01 -4.29284833E-01 -4.29284833E-01  4.80385564E-02
  7.27129138E-02  7.27129138E-02  7.27129138E-02  2.63876616E-01  2.63876616E-01
  2.63876616E-01  2.63876616E-01  2.63876616E-01  5.47729580E-01  5.47729580E-01
  5.47729580E-01  8.29627263E-01  8.29627263E-01  8.29627263E-01  8.29627263E-01
  8.29627263E-01  8.56016632E-01  1.25811951E+00  1.25811951E+00  1.25811951E+00
  1.25811951E+00  1.25811951E+00  1.25811951E+00  1.25811951E+00  2.53360182E+00
  2.53360182E+00  2.53360182E+00  2.53360182E+00  2.53360182E+00  2.64258377E+00
  2.64258377E+00  2.64258377E+00  3.39876116E+00  3.39876116E+00  3.39876116E+00
  3.39876116E+00  3.39876116E+00  3.39876116E+00  3.39876116E+00  5.53811447E+00
Alpha MO coefficients                      R   N=        2500
  9.99801020E-01  2.70853883E-03  2.18469990E-03 -2.68525278E-03 -1.34366134E-03
  4.07929430E-04  0.00000000E+00  0.00000000E+00  0.00000000E+00  0.00000000E+00
  0.00000000E+00  0.00000000E+00  0.00000000E+00  0.00000000E+00  0.00000000E+00
  0.00000000E+00  0.00000000E+00  0.00000000E+00  0.00000000E+00  0.00000000E+00
  0.00000000E+00  1.28641996E-16  0.00000000E+00  0.00000000E+00 -1.01310337E-16
  0.00000000E+00 -1.20150490E-16  0.00000000E+00  0.00000000E+00  8.17867718E-17
  0.00000000E+00 -1.76212294E-17  0.00000000E+00  0.00000000E+00  4.25275148E-17
  0.00000000E+00  0.00000000E+00  0.00000000E+00  0.00000000E+00  0.00000000E+00
  0.00000000E+00  0.00000000E+00  0.00000000E+00  0.00000000E+00  0.00000000E+00
  0.00000000E+00  0.00000000E+00  0.00000000E+00  0.00000000E+00  0.00000000E+00
 -2.84015194E-01  9.51946913E-01 -1.69130418E-02  1.13935251E-01  7.48006198E-03
 -1.97776603E-03  0.00000000E+00  0.00000000E+00  0.00000000E+00  0.00000000E+00
  0.00000000E+00  0.00000000E+00  0.00000000E+00  0.00000000E+00  0.00000000E+00
  0.00000000E+00  0.00000000E+00  0.00000000E+00  0.00000000E+00  0.00000000E+00
  0.00000000E+00 -2.42910649E-16  0.00000000E+00  0.00000000E+00  3.49062084E-16
  0.00000000E+00  2.39705188E-16  0.00000000E+00  0.00000000E+00 -3.33207597E-16
  0.00000000E+00  4.21307843E-17  0.00000000E+00  0.00000000E+00 -1.19652664E-16
  0.00000000E+00  0.00000000E+00  0.00000000E+00  0.00000000E+00  0.00000000E+00
  0.00000000E+00  0.00000000E+00  0.00000000E+00  0.00000000E+00  0.00000000E+00
  0.00000000E+00  0.00000000E+00  0.00000000E+00  0.00000000E+00  0.00000000E+00
  0.00000000E+00  0.00000000E+00  0.00000000E+00  0.00000000E+00  0.00000000E+00
  0.00000000E+00  9.69835256E-01  0.00000000E+00  0.00000000E+00 -7.10031901E-03
  0.00000000E+00  0.00000000E+00  6.47738031E-02  0.00000000E+00  0.00000000E+00
  2.51262330E-03  0.00000000E+00  0.00000000E+00 -7.13482963E-04  0.00000000E+00
  0.00000000E+00  0.00000000E+00  0.00000000E+00  0.00000000E+00  0.00000000E+00
  0.00000000E+00  0.00000000E+00  0.00000000E+00  0.00000000E+00  0.00000000E+00
  0.00000000E+00  0.00000000E+00  0.00000000E+00  0.00000000E+00  0.00000000E+00
  0.00000000E+00  0.00000000E+00  1.75696387E-13  0.00000000E+00  0.00000000E+00
  0.00000000E+00 -2.27470675E-13  0.00000000E+00  0.00000000E+00 -6.93751369E-14
  0.00000000E+00  0.00000000E+00  0.00000000E+00  8.99603490E-14  0.00000000E+00
  0.00000000E+00  0.00000000E+00  0.00000000E+00  0.00000000E+00  0.00000000E+00
  0.00000000E+00  0.00000000E+00  9.69835256E-01  0.00000000E+00  0.00000000E+00
 -7.10031901E-03  0.00000000E+00  0.00000000E+00  6.47738031E-02  0.00000000E+00
  0.00000000E+00  2.51262330E-03  0.00000000E+00  0.00000000E+00 -7.13482963E-04
  0.00000000E+00  0.00000000E+00  0.00000000E+00  0.00000000E+00  0.00000000E+00
  0.00000000E+00  0.00000000E+00  0.00000000E+00  0.00000000E+00  0.00000000E+00
  0.00000000E+00  0.00000000E+00  0.00000000E+00  0.00000000E+00  0.00000000E+00
  0.00000000E+00  0.00000000E+00  0.00000000E+00  1.75596572E-13  0.00000000E+00
  0.00000000E+00  0.00000000E+00  2.27763420E-13  0.00000000E+00  0.00000000E+00
 -6.93138645E-14  0.00000000E+00  0.00000000E+00  0.00000000E+00 -9.01235641E-14
  0.00000000E+00  0.00000000E+00  0.00000000E+00  0.00000000E+00  0.00000000E+00
  0.00000000E+00  0.00000000E+00  0.00000000E+00  9.69835256E-01  0.00000000E+00
  0.00000000E+00 -7.10031901E-03  0.00000000E+00  0.00000000E+00  6.47738031E-02
  0.00000000E+00  0.00000000E+00  2.51262330E-03  0.00000000E+00  0.00000000E+00
 -7.13482963E-04  0.00000000E+00  0.00000000E+00  0.00000000E+00  0.00000000E+00
  0.00000000E+00  0.00000000E+00  0.00000000E+00  0.00000000E+00  0.00000000E+00
  0.00000000E+00  0.00000000E+00  0.00000000E+00  0.00000000E+00  0.00000000E+00
  0.00000000E+00 -2.87672738E-13  0.00000000E+00  0.00000000E+00  6.92000751E-16
  0.00000000E+00  0.00000000E+00  0.00000000E+00  1.13759327E-13  0.00000000E+00
  0.00000000E+00 -9.00764820E-16  0.00000000E+00  0.00000000E+00  0.00000000E+00
  9.19510149E-02 -3.38870627E-01  6.28484933E-01  8.49932287E-02  3.78920434E-01
  8.28642271E-03  0.00000000E+00  0.00000000E+00  0.00000000E+00  0.00000000E+00
  0.00000000E+00  0.00000000E+00  0.00000000E+00  0.00000000E+00  0.00000000E+00
  0.00000000E+00  0.00000000E+00  0.00000000E+00  0.00000000E+00  0.00000000E+00
  0.00000000E+00 -1.17080936E-16  0.00000000E+00  0.00000000E+00 -6.78038675E-19
  0.00000000E+00  8.33441583E-16  0.00000000E+00  0.00000000E+00  6.38264607E-16
  0.00000000E+00 -4.10777852E-16  0.00000000E+00  0.00000000E+00 -4.40588212E-17
  0.00000000E+00  0.00000000E+00  0.00000000E+00  0.00000000E+00  0.00000000E+00
  0.00000000E+00  0.00000000E+00  0.00000000E+00  0.00000000E+00  0.00000000E+00
  0.00000000E+00  0.00000000E+00  0.00000000E+00  0.00000000E+00  0.00000000E+00
  0.00000000E+00  0.00000000E+00  0.00000000E+00  0.00000000E+00  0.00000000E+00
  0.00000000E+00 -2.83380827E-01  0.00000000E+00  0.00000000E+00  5.44343371E-01
  0.00000000E+00  0.00000000E+00  2.99286792E-01  0.00000000E+00  0.00000000E+00
  3.22030639E-01  0.00000000E+00  0.00000000E+00  1.91031791E-02  0.00000000E+00
  0.00000000E+00  0.00000000E+00  0.00000000E+00  0.00000000E+00  0.00000000E+00
  0.00000000E+00  0.00000000E+00  0.00000000E+00  0.00000000E+00  0.00000000E+00
  0.00000000E+00  0.00000000E+00  0.00000000E+00  0.00000000E+00  0.00000000E+00
  0.00000000E+00  0.00000000E+00  4.93388518E-12  0.00000000E+00  0.00000000E+00
  0.00000000E+00 -6.37062190E-12  0.00000000E+00  0.00000000E+00  5.49104308E-12
  0.00000000E+00  0.00000000E+00  0.00000000E+00 -7.08986117E-12  0.00000000E+00
  0.00000000E+00  0.00000000E+00  0.00000000E+00  0.00000000E+00  0.00000000E+00
  0.00000000E+00  0.00000000E+00  0.00000000E+00 -2.83380827E-01  0.00000000E+00
  0.00000000E+00  5.44343371E-01  0.00000000E+00  0.00000000E+00  2.99286792E-01
  0.00000000E+00  0.00000000E+00  3.22030639E-01  0.00000000E+00  0.00000000E+00
  1.91031791E-02  0.00000000E+00  0.00000000E+00  0.00000000E+00  0.00000000E+00
  0.00000000E+00  0.00000000E+00  0.00000000E+00  0.00000000E+00  0.00000000E+00
  0.00000000E+00  0.00000000E+00  0.00000000E+00  0.00000000E+00  0.00000000E+00
  0.00000000E+00 -8.05737979E-12  0.00000000E+00  0.00000000E+00 -3.69779016E-16
  0.00000000E+00  0.00000000E+00  0.00000000E+00 -8.96832608E-12  0.00000000E+00
  0.00000000E+00 -1.11829014E-16  0.00000000E+00  0.00000000E+00  0.00000000E+00
  0.00000000E+00  0.00000000E+00  0.00000000E+00  0.00000000E+00  0.00000000E+00
  0.00000000E+00  0.00000000E+00 -2.83380827E-01  0.00000000E+00  0.00000000E+00
  5.44343371E-01  0.00000000E+00  0.00000000E+00  2.99286792E-01  0.00000000E+00
  0.00000000E+00  3.22030639E-01  0.00000000E+00  0.00000000E+00  1.91031791E-02
  0.00000000E+00  0.00000000E+00  0.00000000E+00  0.00000000E+00  0.00000000E+00
  0.00000000E+00  0.00000000E+00  0.00000000E+00  0.00000000E+00  0.00000000E+00
  0.00000000E+00  0.00000000E+00  0.00000000E+00  0.00000000E+00  0.00000000E+00
  0.00000000E+00  0.00000000E+00  0.00000000E+00  4.93366422E-12  0.00000000E+00
  0.00000000E+00  0.00000000E+00  6.37079808E-12  0.00000000E+00  0.00000000E+00
  5.49148593E-12  0.00000000E+00  0.00000000E+00  0.00000000E+00  7.08946008E-12
 -2.48000076E-02  1.51459777E-01 -1.00576748E-01 -6.24109926E-02 -1.04492534E+00
  1.64877583E+00  0.00000000E+00  0.00000000E+00  0.00000000E+00  0.00000000E+00
  0.00000000E+00  0.00000000E+00  0.00000000E+00  0.00000000E+00  0.00000000E+00
  0.00000000E+00  0.00000000E+00  0.00000000E+00  0.00000000E+00  0.00000000E+00
  0.00000000E+00 -2.62244374E-15  0.00000000E+00  0.00000000E+00  8.93002398E-16
  0.00000000E+00 -3.44563675E-15  0.00000000E+00  0.00000000E+00 -2.72365411E-15
  0.00000000E+00 -3.41662779E-15  0.00000000E+00  0.00000000E+00  1.11342249E-15
  0.00000000E+00  0.00000000E+00  0.00000000E+00  0.00000000E+00  0.00000000E+00
  0.00000000E+00  0.00000000E+00  0.00000000E+00  0.00000000E+00  0.00000000E+00
  0.00000000E+00  0.00000000E+00  0.00000000E+00  0.00000000E+00  0.00000000E+00
  0.00000000E+00  0.00000000E+00  0.00000000E+00  0.00000000E+00  0.00000000E+00
  0.00000000E+00  8.35381972E-02  0.00000000E+00  0.00000000E+00 -1.06564026E-01
  0.00000000E+00  0.00000000E+00 -1.12666934E-01  0.00000000E+00  0.00000000E+00
 -3.84558372E-01  0.00000000E+00  0.00000000E+00  1.20302237E+00  0.00000000E+00
  0.00000000E+00  0.00000000E+00  0.00000000E+00  0.00000000E+00  0.00000000E+00
  0.00000000E+00  0.00000000E+00  0.00000000E+00  0.00000000E+00  0.00000000E+00
  0.00000000E+00  0.00000000E+00  0.00000000E+00  0.00000000E+00  0.00000000E+00
  0.00000000E+00  0.00000000E+00 -1.85791791E-12  0.00000000E+00  0.00000000E+00
  0.00000000E+00  2.39860294E-12  0.00000000E+00  0.00000000E+00  5.04633744E-13
  0.00000000E+00  0.00000000E+00  0.00000000E+00 -6.50634174E-13  0.00000000E+00
  0.00000000E+00  0.00000000E+00  0.00000000E+00  0.00000000E+00  0.00000000E+00
  0.00000000E+00  0.00000000E+00  8.35381972E-02  0.00000000E+00  0.00000000E+00
 -1.06564026E-01  0.00000000E+00  0.00000000E+00 -1.12666934E-01  0.00000000E+00
  0.00000000E+00 -3.84558372E-01  0.00000000E+00  0.00000000E+00  1.20302237E+00
  0.00000000E+00  0.00000000E+00  0.00000000E+00  0.00000000E+00  0.00000000E+00
  0.00000000E+00  0.00000000E+00  0.00000000E+00  0.00000000E+00  0.00000000E+00
  0.00000000E+00  0.00000000E+00  0.00000000E+00  0.00000000E+00  0.00000000E+00
  0.00000000E+00  0.00000000E+00  0.00000000E+00 -1.85804820E-12  0.00000000E+00
  0.00000000E+00  0.00000000E+00 -2.39846881E-12  0.00000000E+00  0.00000000E+00
  5.04872380E-13  0.00000000E+00  0.00000000E+00  0.00000000E+00  6.50460953E-13
  0.00000000E+00  0.00000000E+00  0.00000000E+00  0.00000000E+00  0.00000000E+00
  0.00000000E+00  0.00000000E+00  0.00000000E+00  8.35381972E-02  0.00000000E+00
  0.00000000E+00 -1.06564026E-01  0.00000000E+00  0.00000000E+00 -1.12666934E-01
  0.00000000E+00  0.00000000E+00 -3.84558372E-01  0.00000000E+00  0.00000000E+00
  1.20302237E+00  0.00000000E+00  0.00000000E+00  0.00000000E+00  0.00000000E+00
  0.00000000E+00  0.00000000E+00  0.00000000E+00  0.00000000E+00  0.00000000E+00
  0.00000000E+00  0.00000000E+00  0.00000000E+00  0.00000000E+00  0.00000000E+00
  0.00000000E+00  3.03434057E-12  0.00000000E+00  0.00000000E+00  7.55794712E-17
  0.00000000E+00  0.00000000E+00  0.00000000E+00 -8.23862714E-13  0.00000000E+00
  0.00000000E+00 -4.28318302E-17  0.00000000E+00  0.00000000E+00  0.00000000E+00
  0.00000000E+00  0.00000000E+00  0.00000000E+00  0.00000000E+00  0.00000000E+00
  0.00000000E+00  0.00000000E+00  0.00000000E+00  0.00000000E+00  0.00000000E+00
  0.00000000E+00  0.00000000E+00  0.00000000E+00  0.00000000E+00  0.00000000E+00
  0.00000000E+00  0.00000000E+00  0.00000000E+00  0.00000000E+00  0.00000000E+00
  0.00000000E+00  0.00000000E+00  2.75438774E-02  0.00000000E+00  0.00000000E+00
  0.00000000E+00  0.00000000E+00  1.89547780E-01  0.00000000E+00  0.00000000E+00
  0.00000000E+00  0.00000000E+00  9.19179793E-01  0.00000000E+00  0.00000000E+00
  0.00000000E+00  0.00000000E+00  0.00000000E+00  0.00000000E+00  0.00000000E+00
  0.00000000E+00  0.00000000E+00  0.00000000E+00  0.00000000E+00  0.00000000E+00
  0.00000000E+00  0.00000000E+00  0.00000000E+00  0.00000000E+00  0.00000000E+00
  0.00000000E+00  0.00000000E+00  0.00000000E+00  0.00000000E+00  0.00000000E+00
  0.00000000E+00  0.00000000E+00  0.00000000E+00  0.00000000E+00  0.00000000E+00
  0.00000000E+00  0.00000000E+00  0.00000000E+00  0.00000000E+00  0.00000000E+00
  0.00000000E+00  0.00000000E+00  0.00000000E+00  0.00000000E+00  0.00000000E+00
  0.00000000E+00  0.00000000E+00  0.00000000E+00  2.75438774E-02  0.00000000E+00
  0.00000000E+00  0.00000000E+00  0.00000000E+00  1.89547780E-01  0.00000000E+00
  0.00000000E+00  0.00000000E+00  0.00000000E+00  9.19179793E-01  0.00000000E+00
  0.00000000E+00  0.00000000E+00  0.00000000E+00  0.00000000E+00  0.00000000E+00
  0.00000000E+00  0.00000000E+00  0.00000000E+00  0.00000000E+00  0.00000000E+00
  0.00000000E+00  0.00000000E+00  0.00000000E+00  0.00000000E+00  0.00000000E+00
  0.00000000E+00  0.00000000E+00  0.00000000E+00  0.00000000E+00  0.00000000E+00
  0.00000000E+00  0.00000000E+00  0.00000000E+00  0.00000000E+00  0.00000000E+00
  0.00000000E+00  0.00000000E+00  0.00000000E+00  0.00000000E+00  0.00000000E+00
  0.00000000E+00  0.00000000E+00  0.00000000E+00  0.00000000E+00  0.00000000E+00
  0.00000000E+00  0.00000000E+00  0.00000000E+00  0.00000000E+00  0.00000000E+00
  2.75438774E-02  0.00000000E+00  0.00000000E+00  0.00000000E+00  0.00000000E+00
  1.89547780E-01  0.00000000E+00  0.00000000E+00  0.00000000E+00  0.00000000E+00
  9.19179793E-01  0.00000000E+00  0.00000000E+00  0.00000000E+00  0.00000000E+00
  0.00000000E+00  0.00000000E+00  0.00000000E+00  0.00000000E+00  0.00000000E+00
  0.00000000E+00  0.00000000E+00  0.00000000E+00  0.00000000E+00  0.00000000E+00
 -6.68871456E-16 -1.44472422E-15 -1.14848967E-14  9.11598797E-16  8.55258860E-15
  4.85840891E-15  0.00000000E+00  0.00000000E+00  0.00000000E+00  0.00000000E+00
  0.00000000E+00  0.00000000E+00  0.00000000E+00  0.00000000E+00  0.00000000E+00
  0.00000000E+00  0.00000000E+00  0.00000000E+00  0.00000000E+00  0.00000000E+00
  0.00000000E+00  2.50338657E-02  0.00000000E+00  0.00000000E+00 -1.14878523E-02
  0.00000000E+00  1.72274716E-01  0.00000000E+00  0.00000000E+00 -7.90555690E-02
  0.00000000E+00  8.35417002E-01  0.00000000E+00  0.00000000E+00 -3.83366566E-01
  0.00000000E+00  0.00000000E+00  0.00000000E+00  0.00000000E+00  0.00000000E+00
  0.00000000E+00  0.00000000E+00  0.00000000E+00  0.00000000E+00  0.00000000E+00
  0.00000000E+00  0.00000000E+00  0.00000000E+00  0.00000000E+00  0.00000000E+00
 -2.68631872E-17  1.32612384E-15  1.50131421E-15 -1.17669238E-15 -4.52680208E-15
  4.74990528E-15  0.00000000E+00  0.00000000E+00  0.00000000E+00  0.00000000E+00
  0.00000000E+00  0.00000000E+00  0.00000000E+00  0.00000000E+00  0.00000000E+00
  0.00000000E+00  0.00000000E+00  0.00000000E+00  0.00000000E+00  0.00000000E+00
  0.00000000E+00  1.14878523E-02  0.00000000E+00  0.00000000E+00  2.50338657E-02
  0.00000000E+00  7.90555690E-02  0.00000000E+00  0.00000000E+00  1.72274716E-01
  0.00000000E+00  3.83366566E-01  0.00000000E+00  0.00000000E+00  8.35417002E-01
  0.00000000E+00  0.00000000E+00  0.00000000E+00  0.00000000E+00  0.00000000E+00
  0.00000000E+00  0.00000000E+00  0.00000000E+00  0.00000000E+00  0.00000000E+00
  0.00000000E+00  0.00000000E+00  0.00000000E+00  0.00000000E+00  0.00000000E+00
  0.00000000E+00  0.00000000E+00  0.00000000E+00  0.00000000E+00  0.00000000E+00
  0.00000000E+00  0.00000000E+00  1.59338516E-01  0.00000000E+00  0.00000000E+00
 -1.16529458E+00  0.00000000E+00  0.00000000E+00 -1.07859221E-01  0.00000000E+00
  0.00000000E+00  1.92646611E+00  0.00000000E+00  0.00000000E+00 -8.59251092E-01
  0.00000000E+00  0.00000000E+00  0.00000000E+00  0.00000000E+00  0.00000000E+00
  0.00000000E+00  0.00000000E+00  0.00000000E+00  0.00000000E+00  0.00000000E+00
  0.00000000E+00  0.00000000E+00  0.00000000E+00  0.00000000E+00  0.00000000E+00
  0.00000000E+00  0.00000000E+00  0.00000000E+00 -6.29271039E-12  0.00000000E+00
  0.00000000E+00  0.00000000E+00 -8.12862125E-12  0.00000000E+00  0.00000000E+00
  9.14519916E-12  0.00000000E+00  0.00000000E+00  0.00000000E+00  1.18151089E-11
  0.00000000E+00  0.00000000E+00  0.00000000E+00  0.00000000E+00  0.00000000E+00
  0.00000000E+00  1.59338516E-01  0.00000000E+00  0.00000000E+00 -1.16529458E+00
  0.00000000E+00  0.00000000E+00 -1.07859221E-01  0.00000000E+00  0.00000000E+00
  1.92646611E+00  0.00000000E+00  0.00000000E+00 -8.59251092E-01  0.00000000E+00
  0.00000000E+00  0.00000000E+00  0.00000000E+00  0.00000000E+00  0.00000000E+00
  0.00000000E+00  0.00000000E+00  0.00000000E+00  0.00000000E+00  0.00000000E+00
  0.00000000E+00  0.00000000E+00  0.00000000E+00  0.00000000E+00  0.00000000E+00
  0.00000000E+00  0.00000000E+00 -6.29340111E-12  0.00000000E+00  0.00000000E+00
  0.00000000E+00  8.12782204E-12  0.00000000E+00  0.00000000E+00  9.14638961E-12
  0.00000000E+00  0.00000000E+00  0.00000000E+00 -1.18139278E-11  0.00000000E+00
  0.00000000E+00  0.00000000E+00  0.00000000E+00  0.00000000E+00  0.00000000E+00
  0.00000000E+00  0.00000000E+00  0.00000000E+00  1.59338516E-01  0.00000000E+00
  0.00000000E+00 -1.16529458E+00  0.00000000E+00  0.00000000E+00 -1.07859221E-01
  0.00000000E+00  0.00000000E+00  1.92646611E+00  0.00000000E+00  0.00000000E+00
 -8.59251092E-01  0.00000000E+00  0.00000000E+00  0.00000000E+00  0.00000000E+00
  0.00000000E+00  0.00000000E+00  0.00000000E+00  0.00000000E+00  0.00000000E+00
  0.00000000E+00  0.00000000E+00  0.00000000E+00  0.00000000E+00  0.00000000E+00
  0.00000000E+00  1.02746827E-11  0.00000000E+00  0.00000000E+00  1.07775567E-16
  0.00000000E+00  0.00000000E+00  0.00000000E+00 -1.49333204E-11  0.00000000E+00
  0.00000000E+00 -1.19262120E-15  0.00000000E+00  0.00000000E+00  0.00000000E+00
  0.00000000E+00  0.00000000E+00  0.00000000E+00  0.00000000E+00  0.00000000E+00
  0.00000000E+00  0.00000000E+00  0.00000000E+00  0.00000000E+00  0.00000000E+00
  0.00000000E+00  0.00000000E+00  0.00000000E+00  0.00000000E+00  0.00000000E+00
  0.00000000E+00  0.00000000E+00  0.00000000E+00  0.00000000E+00  0.00000000E+00
  0.00000000E+00  0.00000000E+00  0.00000000E+00  0.00000000E+00  0.00000000E+00
  1.12799861E+00  0.00000000E+00  0.00000000E+00  0.00000000E+00  0.00000000E+00
  2.81538656E-01  0.00000000E+00  0.00000000E+00  0.00000000E+00  0.00000000E+00
 -1.03618548E+00  0.00000000E+00  0.00000000E+00  0.00000000E+00  0.00000000E+00
  0.00000000E+00  0.00000000E+00  0.00000000E+00  0.00000000E+00  0.00000000E+00
  0.00000000E+00  0.00000000E+00  0.00000000E+00  0.00000000E+00  0.00000000E+00
  0.00000000E+00  0.00000000E+00  0.00000000E+00  0.00000000E+00  0.00000000E+00
  0.00000000E+00  0.00000000E+00  0.00000000E+00  0.00000000E+00  0.00000000E+00
  0.00000000E+00  0.00000000E+00  0.00000000E+00  0.00000000E+00  0.00000000E+00
  0.00000000E+00  0.00000000E+00  0.00000000E+00  0.00000000E+00  0.00000000E+00
  0.00000000E+00  0.00000000E+00  1.12799861E+00  0.00000000E+00  0.00000000E+00