 Entering Gaussian System, Link 0=g16
 Input=Ar.com
 Output=Ar.log
 Initial command:
 /usr/site/hpc/x86_64/glibc-2.17/broadwell/gaussian/g16_a.03/pgi-16.5/g16/l1.exe "/home/c744/c7441090/data/Gau-3858047.inp" -scrdir="/home/c744/c7441090/data/"
 Entering Link 1 = /usr/site/hpc/x86_64/glibc-2.17/broadwell/gaussian/g16_a.03/pgi-16.5/g16/l1.exe PID=   3858048.
  
 Copyright (c) 1988,1990,1992,1993,1995,1998,2003,2009,2016,
            Gaussian, Inc.  All Rights Reserved.
  
 This is part of the Gaussian(R) 16 program.  It is based on
 the Gaussian(R) 09 system (copyright 2009, Gaussian, Inc.),
 the Gaussian(R) 03 system (copyright 2003, Gaussian, Inc.),
 the Gaussian(R) 98 system (copyright 1998, Gaussian, Inc.),
 the Gaussian(R) 94 system (copyright 1995, Gaussian, Inc.),
 the Gaussian 92(TM) system (copyright 1992, Gaussian, Inc.),
 the Gaussian 90(TM) system (copyright 1990, Gaussian, Inc.),
 the Gaussian 88(TM) system (copyright 1988, Gaussian, Inc.),
 the Gaussian 86(TM) system (copyright 1986, Carnegie Mellon
 University), and the Gaussian 82(TM) system (copyright 1983,
 Carnegie Mellon University). Gaussian is a federally registered
 trademark of Gaussian, Inc.
  
 This software contains proprietary and confidential information,
 including trade secrets, belonging to Gaussian, Inc.
  
 This software is provided under written license and may be
 used, copied, transmitted, or stored only in accord with that
 written license.
  
 The following legend is applicable only to US Government
 contracts under FAR:
  
                    RESTRICTED RIGHTS LEGEND
  
 Use, reproduction and disclosure by the US Government is
 subject to restrictions as set forth in subparagraphs (a)
 and (c) of the Commercial Computer Software - Restricted
 Rights clause in FAR 52.227-19.
  
 Gaussian, Inc.
 340 Quinnipiac St., Bldg. 40, Wallingford CT 06492
  
  
 ---------------------------------------------------------------
 Warning -- This program may not be used in any manner that
 competes with the business of Gaussian, Inc. or will provide
 assistance to any competitor of Gaussian, Inc.  The licensee
 of this program is prohibited from giving any competitor of
 Gaussian, Inc. access to this program.  By using this program,
 the user acknowledges that Gaussian, Inc. is engaged in the
 business of creating and licensing software in the field of
 computational chemistry and represents and warrants to the
 licensee that it is not a competitor of Gaussian, Inc. and that
 it will not use this program in any manner prohibited above.
 ---------------------------------------------------------------
  

 Cite this work as:
 Gaussian 16, Revision A.03,
 M. J. Frisch, G. W. Trucks, H. B. Schlegel, G. E. Scuseria, 
 M. A. Robb, J. R. Cheeseman, G. Scalmani, V. Barone, 
 G. A. Petersson, H. Nakatsuji, X. Li, M. Caricato, A. V. Marenich, 
 J. Bloino, B. G. Janesko, R. Gomperts, B. Mennucci, H. P. Hratchian, 
 J. V. Ortiz, A. F. Izmaylov, J. L. Sonnenberg, D. Williams-Young, 
 F. Ding, F. Lipparini, F. Egidi, J. Goings, B. Peng, A. Petrone, 
 T. Henderson, D. Ranasinghe, V. G. Zakrzewski, J. Gao, N. Rega, 
 G. Zheng, W. Liang, M. Hada, M. Ehara, K. Toyota, R. Fukuda, 
 J. Hasegawa, M. Ishida, T. Nakajima, Y. Honda, O. Kitao, H. Nakai, 
 T. Vreven, K. Throssell, J. A. Montgomery, Jr., J. E. Peralta, 
 F. Ogliaro, M. J. Bearpark, J. J. Heyd, E. N. Brothers, K. N. Kudin, 
 V. N. Staroverov, T. A. Keith, R. Kobayashi, J. Normand, 
 K. Raghavachari, A. P. Rendell, J. C. Burant, S. S. Iyengar, 
 J. Tomasi, M. Cossi, J. M. Millam, M. Klene, C. Adamo, R. Cammi, 
 J. W. Ochterski, R. L. Martin, K. Morokuma, O. Farkas, 
 J. B. Foresman, and D. J. Fox, Gaussian, Inc., Wallingford CT, 2016.
 
 ******************************************
 Gaussian 16:  ES64L-G16RevA.03 25-Dec-2016
                20-Nov-2023 
 ******************************************
 %NProcShared=4
 Will use up to    4 processors via shared memory.
 %Mem=1GB
 %Chk=Ar.chk
 ----------------------------------------------------
 # B3LYP/aug-cc-pVTZ EmpiricalDispersion=GD3 Pop=Full
 ----------------------------------------------------
 1/38=1,172=1/1;
 2/12=2,17=6,18=5,40=1/2;
 3/5=16,6=1,7=10,11=2,25=1,30=1,74=-5,124=31/1,2,3;
 4//1;
 5/5=2,38=5/2;
 6/7=3,28=1/1;
 99/5=1,9=1/99;
 -----
 Argon
 -----
 Symbolic Z-matrix:
 Charge =  0 Multiplicity = 1
 Ar                    0.        0.        0. 
 
                          Input orientation:                          
 ---------------------------------------------------------------------
 Center     Atomic      Atomic             Coordinates (Angstroms)
 Number     Number       Type             X           Y           Z
 ---------------------------------------------------------------------
      1         18           0        0.000000    0.000000    0.000000
 ---------------------------------------------------------------------
 Stoichiometry    Ar
 Framework group  OH[O(Ar)]
 Deg. of freedom     0
 Full point group                 OH      NOp  48
 Largest Abelian subgroup         D2H     NOp   8
 Largest concise Abelian subgroup C1      NOp   1
                         Standard orientation:                         
 ---------------------------------------------------------------------
 Center     Atomic      Atomic             Coordinates (Angstroms)
 Number     Number       Type             X           Y           Z
 ---------------------------------------------------------------------
      1         18           0        0.000000    0.000000    0.000000
 ---------------------------------------------------------------------
 Standard basis: Aug-CC-pVTZ (5D, 7F)
 There are    15 symmetry adapted cartesian basis functions of AG  symmetry.
 There are     3 symmetry adapted cartesian basis functions of B1G symmetry.
 There are     3 symmetry adapted cartesian basis functions of B2G symmetry.
 There are     3 symmetry adapted cartesian basis functions of B3G symmetry.
 There are     2 symmetry adapted cartesian basis functions of AU  symmetry.
 There are    11 symmetry adapted cartesian basis functions of B1U symmetry.
 There are    11 symmetry adapted cartesian basis functions of B2U symmetry.
 There are    11 symmetry adapted cartesian basis functions of B3U symmetry.
 There are    12 symmetry adapted basis functions of AG  symmetry.
 There are     3 symmetry adapted basis functions of B1G symmetry.
 There are     3 symmetry adapted basis functions of B2G symmetry.
 There are     3 symmetry adapted basis functions of B3G symmetry.
 There are     2 symmetry adapted basis functions of AU  symmetry.
 There are     9 symmetry adapted basis functions of B1U symmetry.
 There are     9 symmetry adapted basis functions of B2U symmetry.
 There are     9 symmetry adapted basis functions of B3U symmetry.
    50 basis functions,   113 primitive gaussians,    59 cartesian basis functions
     9 alpha electrons        9 beta electrons
       nuclear repulsion energy         0.0000000000 Hartrees.
 NAtoms=    1 NActive=    1 NUniq=    1 SFac= 1.00D+00 NAtFMM=   60 NAOKFM=F Big=F
 Integral buffers will be    131072 words long.
 Raffenetti 2 integral format.
 Two-electron integral symmetry is turned on.
 Nuclear repulsion after empirical dispersion term =        0.0000000000 Hartrees.
 One-electron integrals computed using PRISM.
 NBasis=    50 RedAO= T EigKep=  1.65D-02  NBF=    12     3     3     3     2     9     9     9
 NBsUse=    50 1.00D-06 EigRej= -1.00D+00 NBFU=    12     3     3     3     2     9     9     9
 ExpMin= 4.87D-02 ExpMax= 5.45D+05 ExpMxC= 1.72D+03 IAcc=3 IRadAn=         5 AccDes= 0.00D+00
 Harris functional with IExCor=  402 and IRadAn=       5 diagonalized for initial guess.
 HarFok:  IExCor=  402 AccDes= 0.00D+00 IRadAn=         5 IDoV= 1 UseB2=F ITyADJ=14
 ICtDFT=  3500011 ScaDFX=  1.000000  1.000000  1.000000  1.000000
 FoFCou: FMM=F IPFlag=           0 FMFlag=      100000 FMFlg1=           0
         NFxFlg=           0 DoJE=T BraDBF=F KetDBF=T FulRan=T
         wScrn=  0.000000 ICntrl=       500 IOpCl=  0 I1Cent=   200000004 NGrid=           0
         NMat0=    1 NMatS0=      1 NMatT0=    0 NMatD0=    1 NMtDS0=    0 NMtDT0=    0
 Petite list used in FoFCou.
 Initial guess orbital symmetries:
       Occupied  (A1G) (A1G) (T1U) (T1U) (T1U) (A1G) (T1U) (T1U)
                 (T1U)
       Virtual   (A1G) (T1U) (T1U) (T1U) (T2G) (T2G) (T2G) (EG)
                 (EG) (T1U) (T1U) (T1U) (T2G) (T2G) (T2G) (EG)
                 (EG) (A1G) (T2U) (T2U) (T2U) (A2U) (T1U) (T1U)
                 (T1U) (T2G) (T2G) (T2G) (EG) (EG) (T1U) (T1U)
                 (T1U) (T2U) (T2U) (T2U) (A2U) (T1U) (T1U) (T1U)
                 (A1G)
 The electronic state of the initial guess is 1-A1G.
 Keep R1 ints in memory in symmetry-blocked form, NReq=4341620.
 Requested convergence on RMS density matrix=1.00D-08 within 128 cycles.
 Requested convergence on MAX density matrix=1.00D-06.
 Requested convergence on             energy=1.00D-06.
 No special actions if energy rises.
 SCF Done:  E(RB3LYP) =  -527.560001976     A.U. after    6 cycles
            NFock=  6  Conv=0.67D-08     -V/T= 2.0026

 **********************************************************************

            Population analysis using the SCF density.

 **********************************************************************

 Orbital symmetries:
       Occupied  (A1G) (A1G) (T1U) (T1U) (T1U) (A1G) (T1U) (T1U)
                 (T1U)
       Virtual   (A1G) (T1U) (T1U) (T1U) (T2G) (T2G) (T2G) (EG)
                 (EG) (T1U) (T1U) (T1U) (T2G) (T2G) (T2G) (EG)
                 (EG) (A1G) (T2U) (T2U) (T2U) (A2U) (T1U) (T1U)
                 (T1U) (T2G) (T2G) (T2G) (EG) (EG) (T1U) (T1U)
                 (T1U) (T2U) (T2U) (T2U) (A2U) (T1U) (T1U) (T1U)
                 (A1G)
 The electronic state is 1-A1G.
 Alpha  occ. eigenvalues -- -115.12155 -11.14505  -8.69620  -8.69620  -8.69620
 Alpha  occ. eigenvalues --   -0.97131  -0.42928  -0.42928  -0.42928
 Alpha virt. eigenvalues --    0.04804   0.07271   0.07271   0.07271   0.26388
 Alpha virt. eigenvalues --    0.26388   0.26388   0.26388   0.26388   0.54773
 Alpha virt. eigenvalues --    0.54773   0.54773   0.82963   0.82963   0.82963
 Alpha virt. eigenvalues --    0.82963   0.82963   0.85602   1.25812   1.25812
 Alpha virt. eigenvalues --    1.25812   1.25812   1.25812   1.25812   1.25812
 Alpha virt. eigenvalues --    2.53360   2.53360   2.53360   2.53360   2.53360
 Alpha virt. eigenvalues --    2.64258   2.64258   2.64258   3.39876   3.39876
 Alpha virt. eigenvalues --    3.39876   3.39876   3.39876   3.39876   3.39876
 Alpha virt. eigenvalues --    5.53811
     Molecular Orbital Coefficients:
                           1         2         3         4         5
                       (A1G)--O  (A1G)--O  (T1U)--O  (T1U)--O  (T1U)--O
     Eigenvalues --  -115.12155 -11.14505  -8.69620  -8.69620  -8.69620
   1 1   Ar 1S          0.99980  -0.28402   0.00000   0.00000   0.00000
   2        2S          0.00271   0.95195   0.00000   0.00000   0.00000
   3        3S          0.00218  -0.01691   0.00000   0.00000   0.00000
   4        4S         -0.00269   0.11394   0.00000   0.00000   0.00000
   5        5S         -0.00134   0.00748   0.00000   0.00000   0.00000
   6        6S          0.00041  -0.00198   0.00000   0.00000   0.00000
   7        7PX         0.00000   0.00000   0.96984   0.00000   0.00000
   8        7PY         0.00000   0.00000   0.00000   0.96984   0.00000
   9        7PZ         0.00000   0.00000   0.00000   0.00000   0.96984
  10        8PX         0.00000   0.00000  -0.00710   0.00000   0.00000
  11        8PY         0.00000   0.00000   0.00000  -0.00710   0.00000
  12        8PZ         0.00000   0.00000   0.00000   0.00000  -0.00710
  13        9PX         0.00000   0.00000   0.06477   0.00000   0.00000
  14        9PY         0.00000   0.00000   0.00000   0.06477   0.00000
  15        9PZ         0.00000   0.00000   0.00000   0.00000   0.06477
  16       10PX         0.00000   0.00000   0.00251   0.00000   0.00000
  17       10PY         0.00000   0.00000   0.00000   0.00251   0.00000
  18       10PZ         0.00000   0.00000   0.00000   0.00000   0.00251
  19       11PX         0.00000   0.00000  -0.00071   0.00000   0.00000
  20       11PY         0.00000   0.00000   0.00000  -0.00071   0.00000
  21       11PZ         0.00000   0.00000   0.00000   0.00000  -0.00071
  22       12D 0        0.00000  -0.00000   0.00000   0.00000   0.00000
  23       12D+1        0.00000   0.00000   0.00000   0.00000   0.00000
  24       12D-1        0.00000   0.00000   0.00000   0.00000   0.00000
  25       12D+2       -0.00000   0.00000   0.00000   0.00000   0.00000
  26       12D-2        0.00000   0.00000   0.00000   0.00000   0.00000
  27       13D 0       -0.00000   0.00000   0.00000   0.00000   0.00000
  28       13D+1        0.00000   0.00000   0.00000   0.00000   0.00000
  29       13D-1        0.00000   0.00000   0.00000   0.00000   0.00000
  30       13D+2        0.00000  -0.00000   0.00000   0.00000   0.00000
  31       13D-2        0.00000   0.00000   0.00000   0.00000   0.00000
  32       14D 0       -0.00000   0.00000   0.00000   0.00000   0.00000
  33       14D+1        0.00000   0.00000   0.00000   0.00000   0.00000
  34       14D-1        0.00000   0.00000   0.00000   0.00000   0.00000
  35       14D+2        0.00000  -0.00000   0.00000   0.00000   0.00000
  36       14D-2        0.00000   0.00000   0.00000   0.00000   0.00000
  37       15F 0        0.00000   0.00000   0.00000   0.00000  -0.00000
  38       15F+1        0.00000   0.00000   0.00000   0.00000   0.00000
  39       15F-1        0.00000   0.00000   0.00000   0.00000   0.00000
  40       15F+2        0.00000   0.00000   0.00000   0.00000   0.00000
  41       15F-2        0.00000   0.00000   0.00000   0.00000   0.00000
  42       15F+3        0.00000   0.00000  -0.00000   0.00000   0.00000
  43       15F-3        0.00000   0.00000   0.00000   0.00000   0.00000
  44       16F 0        0.00000   0.00000   0.00000   0.00000   0.00000
  45       16F+1        0.00000   0.00000  -0.00000   0.00000   0.00000
  46       16F-1        0.00000   0.00000   0.00000  -0.00000   0.00000
  47       16F+2        0.00000   0.00000   0.00000   0.00000  -0.00000
  48       16F-2        0.00000   0.00000   0.00000   0.00000   0.00000
  49       16F+3        0.00000   0.00000   0.00000   0.00000   0.00000
  50       16F-3        0.00000   0.00000   0.00000  -0.00000   0.00000
                           6         7         8         9        10
                       (A1G)--O  (T1U)--O  (T1U)--O  (T1U)--O  (A1G)--V
     Eigenvalues --    -0.97131  -0.42928  -0.42928  -0.42928   0.04804
   1 1   Ar 1S          0.09195   0.00000   0.00000   0.00000  -0.02480
   2        2S         -0.33887   0.00000   0.00000   0.00000   0.15146
   3        3S          0.62848   0.00000   0.00000   0.00000  -0.10058
   4        4S          0.08499   0.00000   0.00000   0.00000  -0.06241
   5        5S          0.37892   0.00000   0.00000   0.00000  -1.04493
   6        6S          0.00829   0.00000   0.00000   0.00000   1.64878
   7        7PX         0.00000  -0.28338   0.00000   0.00000   0.00000
   8        7PY         0.00000   0.00000   0.00000  -0.28338   0.00000
   9        7PZ         0.00000   0.00000  -0.28338   0.00000   0.00000
  10        8PX         0.00000   0.54434   0.00000   0.00000   0.00000
  11        8PY         0.00000   0.00000   0.00000   0.54434   0.00000
  12        8PZ         0.00000   0.00000   0.54434   0.00000   0.00000
  13        9PX         0.00000   0.29929   0.00000   0.00000   0.00000
  14        9PY         0.00000   0.00000   0.00000   0.29929   0.00000
  15        9PZ         0.00000   0.00000   0.29929   0.00000   0.00000
  16       10PX         0.00000   0.32203   0.00000   0.00000   0.00000
  17       10PY         0.00000   0.00000   0.00000   0.32203   0.00000
  18       10PZ         0.00000   0.00000   0.32203   0.00000   0.00000
  19       11PX         0.00000   0.01910   0.00000   0.00000   0.00000
  20       11PY         0.00000   0.00000   0.00000   0.01910   0.00000
  21       11PZ         0.00000   0.00000   0.01910   0.00000   0.00000
  22       12D 0       -0.00000   0.00000   0.00000   0.00000  -0.00000
  23       12D+1        0.00000   0.00000   0.00000   0.00000   0.00000
  24       12D-1        0.00000   0.00000   0.00000   0.00000   0.00000
  25       12D+2       -0.00000   0.00000   0.00000   0.00000   0.00000
  26       12D-2        0.00000   0.00000   0.00000   0.00000   0.00000
  27       13D 0        0.00000   0.00000   0.00000   0.00000  -0.00000
  28       13D+1        0.00000   0.00000   0.00000   0.00000   0.00000
  29       13D-1        0.00000   0.00000   0.00000   0.00000   0.00000
  30       13D+2        0.00000   0.00000   0.00000   0.00000  -0.00000
  31       13D-2        0.00000   0.00000   0.00000   0.00000   0.00000
  32       14D 0       -0.00000   0.00000   0.00000   0.00000  -0.00000
  33       14D+1        0.00000   0.00000   0.00000   0.00000   0.00000
  34       14D-1        0.00000   0.00000   0.00000   0.00000   0.00000
  35       14D+2       -0.00000   0.00000   0.00000   0.00000   0.00000
  36       14D-2        0.00000   0.00000   0.00000   0.00000   0.00000
  37       15F 0        0.00000   0.00000  -0.00000   0.00000   0.00000
  38       15F+1        0.00000   0.00000   0.00000   0.00000   0.00000
  39       15F-1        0.00000   0.00000   0.00000   0.00000   0.00000
  40       15F+2        0.00000   0.00000  -0.00000   0.00000   0.00000
  41       15F-2        0.00000   0.00000   0.00000   0.00000   0.00000
  42       15F+3        0.00000  -0.00000   0.00000   0.00000   0.00000
  43       15F-3        0.00000   0.00000   0.00000   0.00000   0.00000
  44       16F 0        0.00000   0.00000  -0.00000   0.00000   0.00000
  45       16F+1        0.00000   0.00000   0.00000   0.00000   0.00000
  46       16F-1        0.00000   0.00000   0.00000   0.00000   0.00000
  47       16F+2        0.00000   0.00000  -0.00000   0.00000   0.00000
  48       16F-2        0.00000   0.00000   0.00000   0.00000   0.00000
  49       16F+3        0.00000  -0.00000   0.00000   0.00000   0.00000
  50       16F-3        0.00000   0.00000   0.00000   0.00000   0.00000
                          11        12        13        14        15
                       (T1U)--V  (T1U)--V  (T1U)--V  (T2G)--V  (T2G)--V
     Eigenvalues --     0.07271   0.07271   0.07271   0.26388   0.26388
   1 1   Ar 1S          0.00000   0.00000   0.00000   0.00000   0.00000
   2        2S          0.00000   0.00000   0.00000   0.00000   0.00000
   3        3S          0.00000   0.00000   0.00000   0.00000   0.00000
   4        4S          0.00000   0.00000   0.00000   0.00000   0.00000
   5        5S          0.00000   0.00000   0.00000   0.00000   0.00000
   6        6S          0.00000   0.00000   0.00000   0.00000   0.00000
   7        7PX         0.08354   0.00000   0.00000   0.00000   0.00000
   8        7PY         0.00000   0.08354   0.00000   0.00000   0.00000
   9        7PZ         0.00000   0.00000   0.08354   0.00000   0.00000
  10        8PX        -0.10656   0.00000   0.00000   0.00000   0.00000
  11        8PY         0.00000  -0.10656   0.00000   0.00000   0.00000
  12        8PZ         0.00000   0.00000  -0.10656   0.00000   0.00000
  13        9PX        -0.11267   0.00000   0.00000   0.00000   0.00000
  14        9PY         0.00000  -0.11267   0.00000   0.00000   0.00000
  15        9PZ         0.00000   0.00000  -0.11267   0.00000   0.00000
  16       10PX        -0.38456   0.00000   0.00000   0.00000   0.00000
  17       10PY         0.00000  -0.38456   0.00000   0.00000   0.00000
  18       10PZ         0.00000   0.00000  -0.38456   0.00000   0.00000
  19       11PX         1.20302   0.00000   0.00000   0.00000   0.00000
  20       11PY         0.00000   1.20302   0.00000   0.00000   0.00000
  21       11PZ         0.00000   0.00000   1.20302   0.00000   0.00000
  22       12D 0        0.00000   0.00000   0.00000   0.00000   0.00000
  23       12D+1        0.00000   0.00000   0.00000   0.02754   0.00000
  24       12D-1        0.00000   0.00000   0.00000   0.00000   0.02754
  25       12D+2        0.00000   0.00000   0.00000   0.00000   0.00000
  26       12D-2        0.00000   0.00000   0.00000   0.00000   0.00000
  27       13D 0        0.00000   0.00000   0.00000   0.00000   0.00000
  28       13D+1        0.00000   0.00000   0.00000   0.18955   0.00000
  29       13D-1        0.00000   0.00000   0.00000   0.00000   0.18955
  30       13D+2        0.00000   0.00000   0.00000   0.00000   0.00000
  31       13D-2        0.00000   0.00000   0.00000   0.00000   0.00000
  32       14D 0        0.00000   0.00000   0.00000   0.00000   0.00000
  33       14D+1        0.00000   0.00000   0.00000   0.91918   0.00000
  34       14D-1        0.00000   0.00000   0.00000   0.00000   0.91918
  35       14D+2        0.00000   0.00000   0.00000   0.00000   0.00000
  36       14D-2        0.00000   0.00000   0.00000   0.00000   0.00000
  37       15F 0        0.00000   0.00000   0.00000   0.00000   0.00000
  38       15F+1       -0.00000   0.00000   0.00000   0.00000   0.00000
  39       15F-1        0.00000  -0.00000   0.00000   0.00000   0.00000
  40       15F+2        0.00000   0.00000   0.00000   0.00000   0.00000
  41       15F-2        0.00000   0.00000   0.00000   0.00000   0.00000
  42       15F+3        0.00000   0.00000   0.00000   0.00000   0.00000
  43       15F-3        0.00000  -0.00000   0.00000   0.00000   0.00000
  44       16F 0        0.00000   0.00000  -0.00000   0.00000   0.00000
  45       16F+1        0.00000   0.00000   0.00000   0.00000   0.00000
  46       16F-1        0.00000   0.00000   0.00000   0.00000   0.00000
  47       16F+2        0.00000   0.00000  -0.00000   0.00000   0.00000
  48       16F-2        0.00000   0.00000   0.00000   0.00000   0.00000
  49       16F+3       -0.00000   0.00000   0.00000   0.00000   0.00000
  50       16F-3        0.00000   0.00000   0.00000   0.00000   0.00000
                          16        17        18        19        20
                       (T2G)--V   (EG)--V   (EG)--V  (T1U)--V  (T1U)--V
     Eigenvalues --     0.26388   0.26388   0.26388   0.54773   0.54773
   1 1   Ar 1S          0.00000  -0.00000  -0.00000   0.00000   0.00000
   2        2S          0.00000  -0.00000   0.00000   0.00000   0.00000
   3        3S          0.00000  -0.00000   0.00000   0.00000   0.00000
   4        4S          0.00000   0.00000  -0.00000   0.00000   0.00000
   5        5S          0.00000   0.00000  -0.00000   0.00000   0.00000
   6        6S          0.00000   0.00000   0.00000   0.00000   0.00000
   7        7PX         0.00000   0.00000   0.00000   0.00000   0.15934
   8        7PY         0.00000   0.00000   0.00000   0.15934   0.00000
   9        7PZ         0.00000   0.00000   0.00000   0.00000   0.00000
  10        8PX         0.00000   0.00000   0.00000   0.00000  -1.16529
  11        8PY         0.00000   0.00000   0.00000  -1.16529   0.00000
  12        8PZ         0.00000   0.00000   0.00000   0.00000   0.00000
  13        9PX         0.00000   0.00000   0.00000   0.00000  -0.10786
  14        9PY         0.00000   0.00000   0.00000  -0.10786   0.00000
  15        9PZ         0.00000   0.00000   0.00000   0.00000   0.00000
  16       10PX         0.00000   0.00000   0.00000   0.00000   1.92647
  17       10PY         0.00000   0.00000   0.00000   1.92647   0.00000
  18       10PZ         0.00000   0.00000   0.00000   0.00000   0.00000
  19       11PX         0.00000   0.00000   0.00000   0.00000  -0.85925
  20       11PY         0.00000   0.00000   0.00000  -0.85925   0.00000
  21       11PZ         0.00000   0.00000   0.00000   0.00000   0.00000
  22       12D 0        0.00000   0.02503   0.01149   0.00000   0.00000
  23       12D+1        0.00000   0.00000   0.00000   0.00000   0.00000
  24       12D-1        0.00000   0.00000   0.00000   0.00000   0.00000
  25       12D+2        0.00000  -0.01149   0.02503   0.00000   0.00000
  26       12D-2        0.02754   0.00000   0.00000   0.00000   0.00000
  27       13D 0        0.00000   0.17227   0.07906   0.00000   0.00000
  28       13D+1        0.00000   0.00000   0.00000   0.00000   0.00000
  29       13D-1        0.00000   0.00000   0.00000   0.00000   0.00000
  30       13D+2        0.00000  -0.07906   0.17227   0.00000   0.00000
  31       13D-2        0.18955   0.00000   0.00000   0.00000   0.00000
  32       14D 0        0.00000   0.83542   0.38337   0.00000   0.00000
  33       14D+1        0.00000   0.00000   0.00000   0.00000   0.00000
  34       14D-1        0.00000   0.00000   0.00000   0.00000   0.00000
  35       14D+2        0.00000  -0.38337   0.83542   0.00000   0.00000
  36       14D-2        0.91918   0.00000   0.00000   0.00000   0.00000
  37       15F 0        0.00000   0.00000   0.00000   0.00000   0.00000
  38       15F+1        0.00000   0.00000   0.00000   0.00000  -0.00000
  39       15F-1        0.00000   0.00000   0.00000  -0.00000   0.00000
  40       15F+2        0.00000   0.00000   0.00000   0.00000   0.00000
  41       15F-2        0.00000   0.00000   0.00000   0.00000   0.00000
  42       15F+3        0.00000   0.00000   0.00000   0.00000   0.00000
  43       15F-3        0.00000   0.00000   0.00000  -0.00000   0.00000
  44       16F 0        0.00000   0.00000   0.00000   0.00000   0.00000
  45       16F+1        0.00000   0.00000   0.00000   0.00000   0.00000
  46       16F-1        0.00000   0.00000   0.00000   0.00000   0.00000
  47       16F+2        0.00000   0.00000   0.00000   0.00000   0.00000
  48       16F-2        0.00000   0.00000   0.00000   0.00000   0.00000
  49       16F+3        0.00000   0.00000   0.00000   0.00000  -0.00000
  50       16F-3        0.00000   0.00000   0.00000   0.00000   0.00000
                          21        22        23        24        25
                       (T1U)--V  (T2G)--V  (T2G)--V  (T2G)--V   (EG)--V
     Eigenvalues --     0.54773   0.82963   0.82963   0.82963   0.82963
   1 1   Ar 1S          0.00000   0.00000   0.00000   0.00000   0.00000
   2        2S          0.00000   0.00000   0.00000   0.00000   0.00000
   3        3S          0.00000   0.00000   0.00000   0.00000   0.00000
   4        4S          0.00000   0.00000   0.00000   0.00000   0.00000
   5        5S          0.00000   0.00000   0.00000   0.00000  -0.00000
   6        6S          0.00000   0.00000   0.00000   0.00000   0.00000
   7        7PX         0.00000   0.00000   0.00000   0.00000   0.00000
   8        7PY         0.00000   0.00000   0.00000   0.00000   0.00000
   9        7PZ         0.15934   0.00000   0.00000   0.00000   0.00000
  10        8PX         0.00000   0.00000   0.00000   0.00000   0.00000
  11        8PY         0.00000   0.00000   0.00000   0.00000   0.00000
  12        8PZ        -1.16529   0.00000   0.00000   0.00000   0.00000
  13        9PX         0.00000   0.00000   0.00000   0.00000   0.00000
  14        9PY         0.00000   0.00000   0.00000   0.00000   0.00000
  15        9PZ        -0.10786   0.00000   0.00000   0.00000   0.00000
  16       10PX         0.00000   0.00000   0.00000   0.00000   0.00000
  17       10PY         0.00000   0.00000   0.00000   0.00000   0.00000
  18       10PZ         1.92647   0.00000   0.00000   0.00000   0.00000
  19       11PX         0.00000   0.00000   0.00000   0.00000   0.00000
  20       11PY         0.00000   0.00000   0.00000   0.00000   0.00000
  21       11PZ        -0.85925   0.00000   0.00000   0.00000   0.00000
  22       12D 0        0.00000   0.00000   0.00000   0.00000  -0.07382
  23       12D+1        0.00000   0.00000   1.12800   0.00000   0.00000
  24       12D-1        0.00000   0.00000   0.00000   1.12800   0.00000
  25       12D+2        0.00000   0.00000   0.00000   0.00000   1.12558
  26       12D-2        0.00000   1.12800   0.00000   0.00000   0.00000
  27       13D 0        0.00000   0.00000   0.00000   0.00000  -0.01843
  28       13D+1        0.00000   0.00000   0.28154   0.00000   0.00000
  29       13D-1        0.00000   0.00000   0.00000   0.28154   0.00000
  30       13D+2        0.00000   0.00000   0.00000   0.00000   0.28094
  31       13D-2        0.00000   0.28154   0.00000   0.00000   0.00000
  32       14D 0        0.00000   0.00000   0.00000   0.00000   0.06781
  33       14D+1        0.00000   0.00000  -1.03619   0.00000   0.00000
  34       14D-1        0.00000   0.00000   0.00000  -1.03619   0.00000
  35       14D+2        0.00000   0.00000   0.00000   0.00000  -1.03396
  36       14D-2        0.00000  -1.03619   0.00000   0.00000   0.00000
  37       15F 0        0.00000   0.00000   0.00000   0.00000   0.00000
  38       15F+1        0.00000   0.00000   0.00000   0.00000   0.00000
  39       15F-1        0.00000   0.00000   0.00000   0.00000   0.00000
  40       15F+2        0.00000   0.00000   0.00000   0.00000   0.00000
  41       15F-2        0.00000   0.00000   0.00000   0.00000   0.00000
  42       15F+3        0.00000   0.00000   0.00000   0.00000   0.00000
  43       15F-3        0.00000   0.00000   0.00000   0.00000   0.00000
  44       16F 0       -0.00000   0.00000   0.00000   0.00000   0.00000
  45       16F+1        0.00000   0.00000   0.00000   0.00000   0.00000
  46       16F-1        0.00000   0.00000   0.00000   0.00000   0.00000
  47       16F+2       -0.00000   0.00000   0.00000   0.00000   0.00000
  48       16F-2        0.00000   0.00000   0.00000   0.00000   0.00000
  49       16F+3        0.00000   0.00000   0.00000   0.00000   0.00000
  50       16F-3        0.00000   0.00000   0.00000   0.00000   0.00000
                          26        27        28        29        30
                        (EG)--V  (A1G)--V  (T2U)--V  (T2U)--V  (T2U)--V
     Eigenvalues --     0.82963   0.85602   1.25812   1.25812   1.25812
   1 1   Ar 1S          0.00000  -0.11725   0.00000   0.00000   0.00000
   2        2S          0.00000  -0.22259   0.00000   0.00000   0.00000
   3        3S          0.00000  -2.13757   0.00000   0.00000   0.00000
   4        4S          0.00000  -0.16788   0.00000   0.00000   0.00000
   5        5S         -0.00000   3.44079   0.00000   0.00000   0.00000
   6        6S          0.00000  -1.43911   0.00000   0.00000   0.00000
   7        7PX         0.00000   0.00000   0.00000   0.00000  -0.00000
   8        7PY         0.00000   0.00000   0.00000   0.00000   0.00000
   9        7PZ         0.00000   0.00000   0.00000   0.00000   0.00000
  10        8PX         0.00000   0.00000   0.00000   0.00000  -0.00000
  11        8PY         0.00000   0.00000  -0.00000   0.00000   0.00000
  12        8PZ         0.00000   0.00000   0.00000   0.00000   0.00000
  13        9PX         0.00000   0.00000   0.00000   0.00000   0.00000
  14        9PY         0.00000   0.00000  -0.00000   0.00000   0.00000
  15        9PZ         0.00000   0.00000   0.00000  -0.00000   0.00000
  16       10PX         0.00000   0.00000   0.00000   0.00000   0.00000
  17       10PY         0.00000   0.00000   0.00000   0.00000   0.00000
  18       10PZ         0.00000   0.00000   0.00000   0.00000   0.00000
  19       11PX         0.00000   0.00000   0.00000   0.00000  -0.00000
  20       11PY         0.00000   0.00000  -0.00000   0.00000   0.00000
  21       11PZ         0.00000   0.00000   0.00000  -0.00000   0.00000
  22       12D 0        1.12558   0.00000   0.00000   0.00000   0.00000
  23       12D+1        0.00000   0.00000   0.00000   0.00000   0.00000
  24       12D-1        0.00000   0.00000   0.00000   0.00000   0.00000
  25       12D+2        0.07382   0.00000   0.00000   0.00000   0.00000
  26       12D-2        0.00000   0.00000   0.00000   0.00000   0.00000
  27       13D 0        0.28094   0.00000   0.00000   0.00000   0.00000
  28       13D+1        0.00000   0.00000   0.00000   0.00000   0.00000
  29       13D-1        0.00000   0.00000   0.00000   0.00000   0.00000
  30       13D+2        0.01843   0.00000   0.00000   0.00000   0.00000
  31       13D-2        0.00000   0.00000   0.00000   0.00000   0.00000
  32       14D 0       -1.03396  -0.00000   0.00000   0.00000   0.00000
  33       14D+1        0.00000   0.00000   0.00000   0.00000   0.00000
  34       14D-1        0.00000   0.00000   0.00000   0.00000   0.00000
  35       14D+2       -0.06781  -0.00000   0.00000   0.00000   0.00000
  36       14D-2        0.00000   0.00000   0.00000   0.00000   0.00000
  37       15F 0        0.00000   0.00000   0.00000  -0.00000   0.00000
  38       15F+1        0.00000   0.00000   0.00000   0.00000  -0.12825
  39       15F-1        0.00000   0.00000  -0.12826   0.00000   0.00000
  40       15F+2        0.00000   0.00000   0.00000  -0.16223   0.00000
  41       15F-2        0.00000   0.00000   0.00000   0.00000   0.00000
  42       15F+3        0.00000   0.00000   0.00000   0.00000  -0.09935
  43       15F-3        0.00000   0.00000   0.09933   0.00000   0.00000
  44       16F 0        0.00000   0.00000   0.00000   0.00003   0.00000
  45       16F+1        0.00000   0.00000   0.00000   0.00000   0.87688
  46       16F-1        0.00000   0.00000   0.87698   0.00000   0.00000
  47       16F+2        0.00000   0.00000   0.00000   1.10922   0.00000
  48       16F-2        0.00000   0.00000   0.00000   0.00000   0.00000
  49       16F+3        0.00000   0.00000   0.00000   0.00000   0.67930
  50       16F-3        0.00000   0.00000  -0.67918   0.00000   0.00000
                          31        32        33        34        35
                       (A2U)--V  (T1U)--V  (T1U)--V  (T1U)--V  (T2G)--V
     Eigenvalues --     1.25812   1.25812   1.25812   1.25812   2.53360
   1 1   Ar 1S          0.00000   0.00000   0.00000   0.00000   0.00000
   2        2S          0.00000   0.00000   0.00000   0.00000   0.00000
   3        3S          0.00000   0.00000   0.00000   0.00000   0.00000
   4        4S          0.00000   0.00000   0.00000   0.00000   0.00000
   5        5S          0.00000   0.00000   0.00000   0.00000   0.00000
   6        6S          0.00000   0.00000   0.00000   0.00000   0.00000
   7        7PX         0.00000   0.00000   0.00000  -0.00000   0.00000
   8        7PY         0.00000   0.00000   0.00000   0.00000   0.00000
   9        7PZ         0.00000  -0.00000   0.00000   0.00000   0.00000
  10        8PX         0.00000   0.00000   0.00000  -0.00000   0.00000
  11        8PY         0.00000   0.00000   0.00000   0.00000   0.00000
  12        8PZ         0.00000  -0.00000   0.00000   0.00000   0.00000
  13        9PX         0.00000   0.00000   0.00000   0.00000   0.00000
  14        9PY         0.00000   0.00000  -0.00000   0.00000   0.00000
  15        9PZ         0.00000   0.00000   0.00000   0.00000   0.00000
  16       10PX         0.00000   0.00000   0.00000   0.00000   0.00000
  17       10PY         0.00000   0.00000  -0.00000   0.00000   0.00000
  18       10PZ         0.00000   0.00000   0.00000   0.00000   0.00000
  19       11PX         0.00000   0.00000   0.00000  -0.00000   0.00000
  20       11PY         0.00000   0.00000   0.00000   0.00000   0.00000
  21       11PZ         0.00000  -0.00000   0.00000   0.00000   0.00000
  22       12D 0        0.00000   0.00000   0.00000   0.00000   0.00000
  23       12D+1        0.00000   0.00000   0.00000   0.00000   1.49635
  24       12D-1        0.00000   0.00000   0.00000   0.00000   0.00000
  25       12D+2        0.00000   0.00000   0.00000   0.00000   0.00000
  26       12D-2        0.00000   0.00000   0.00000   0.00000   0.00000
  27       13D 0        0.00000   0.00000   0.00000   0.00000   0.00000
  28       13D+1        0.00000   0.00000   0.00000   0.00000  -1.29518
  29       13D-1        0.00000   0.00000   0.00000   0.00000   0.00000
  30       13D+2        0.00000   0.00000   0.00000   0.00000   0.00000
  31       13D-2        0.00000   0.00000   0.00000   0.00000   0.00000
  32       14D 0        0.00000   0.00000   0.00000   0.00000   0.00000
  33       14D+1        0.00000   0.00000   0.00000   0.00000  -0.68310
  34       14D-1        0.00000   0.00000   0.00000   0.00000   0.00000
  35       14D+2        0.00000   0.00000   0.00000   0.00000   0.00000
  36       14D-2        0.00000   0.00000   0.00000   0.00000   0.00000
  37       15F 0        0.00000  -0.16223   0.00000   0.00000   0.00000
  38       15F+1        0.00000   0.00000   0.00000   0.09935   0.00000
  39       15F-1        0.00000   0.00000  -0.09933   0.00000   0.00000
  40       15F+2        0.00000   0.00000   0.00000   0.00000   0.00000
  41       15F-2       -0.16223   0.00000   0.00000   0.00000   0.00000
  42       15F+3        0.00000   0.00000   0.00000  -0.12825   0.00000
  43       15F-3        0.00000   0.00000  -0.12826   0.00000   0.00000
  44       16F 0        0.00000   1.10922   0.00000   0.00000   0.00000
  45       16F+1        0.00000   0.00000   0.00000  -0.67930   0.00000
  46       16F-1        0.00000   0.00000   0.67918   0.00000   0.00000
  47       16F+2        0.00000  -0.00003   0.00000   0.00000   0.00000
  48       16F-2        1.10922   0.00000   0.00000   0.00000   0.00000
  49       16F+3        0.00000   0.00000   0.00000   0.87688   0.00000
  50       16F-3        0.00000   0.00000   0.87698   0.00000   0.00000
                          36        37        38        39        40
                       (T2G)--V  (T2G)--V   (EG)--V   (EG)--V  (T1U)--V
     Eigenvalues --     2.53360   2.53360   2.53360   2.53360   2.64258
   1 1   Ar 1S          0.00000   0.00000  -0.00000  -0.00000   0.00000
   2        2S          0.00000   0.00000   0.00000   0.00000   0.00000
   3        3S          0.00000   0.00000  -0.00000  -0.00000   0.00000
   4        4S          0.00000   0.00000  -0.00000  -0.00000   0.00000
   5        5S          0.00000   0.00000   0.00000   0.00000   0.00000
   6        6S          0.00000   0.00000  -0.00000  -0.00000   0.00000
   7        7PX         0.00000   0.00000   0.00000   0.00000   0.64211
   8        7PY         0.00000   0.00000   0.00000   0.00000   0.00000
   9        7PZ         0.00000   0.00000   0.00000   0.00000   0.00000
  10        8PX         0.00000   0.00000   0.00000   0.00000   2.28534
  11        8PY         0.00000   0.00000   0.00000   0.00000   0.00000
  12        8PZ         0.00000   0.00000   0.00000   0.00000   0.00000
  13        9PX         0.00000   0.00000   0.00000   0.00000  -2.00209
  14        9PY         0.00000   0.00000   0.00000   0.00000   0.00000
  15        9PZ         0.00000   0.00000   0.00000   0.00000   0.00000
  16       10PX         0.00000   0.00000   0.00000   0.00000  -1.17739
  17       10PY         0.00000   0.00000   0.00000   0.00000   0.00000
  18       10PZ         0.00000   0.00000   0.00000   0.00000   0.00000
  19       11PX         0.00000   0.00000   0.00000   0.00000   0.35562
  20       11PY         0.00000   0.00000   0.00000   0.00000   0.00000
  21       11PZ         0.00000   0.00000   0.00000   0.00000   0.00000
  22       12D 0        0.00000   0.00000   1.40145   0.52438   0.00000
  23       12D+1        0.00000   0.00000   0.00000   0.00000   0.00000
  24       12D-1        0.00000   1.49635   0.00000   0.00000   0.00000
  25       12D+2        0.00000   0.00000  -0.52438   1.40145   0.00000
  26       12D-2        1.49635   0.00000   0.00000   0.00000   0.00000
  27       13D 0        0.00000   0.00000  -1.21304  -0.45389   0.00000
  28       13D+1        0.00000   0.00000   0.00000   0.00000   0.00000
  29       13D-1        0.00000  -1.29518   0.00000   0.00000   0.00000
  30       13D+2        0.00000   0.00000   0.45389  -1.21304   0.00000
  31       13D-2       -1.29518   0.00000   0.00000   0.00000   0.00000
  32       14D 0        0.00000   0.00000  -0.63978  -0.23939   0.00000
  33       14D+1        0.00000   0.00000   0.00000   0.00000   0.00000
  34       14D-1        0.00000  -0.68310   0.00000   0.00000   0.00000
  35       14D+2        0.00000   0.00000   0.23939  -0.63978   0.00000
  36       14D-2       -0.68310   0.00000   0.00000   0.00000   0.00000
  37       15F 0        0.00000   0.00000   0.00000   0.00000   0.00000
  38       15F+1        0.00000   0.00000   0.00000   0.00000   0.00000
  39       15F-1        0.00000   0.00000   0.00000   0.00000   0.00000
  40       15F+2        0.00000   0.00000   0.00000   0.00000   0.00000
  41       15F-2        0.00000   0.00000   0.00000   0.00000   0.00000
  42       15F+3        0.00000   0.00000   0.00000   0.00000  -0.00000
  43       15F-3        0.00000   0.00000   0.00000   0.00000   0.00000
  44       16F 0        0.00000   0.00000   0.00000   0.00000   0.00000
  45       16F+1        0.00000   0.00000   0.00000   0.00000  -0.00000
  46       16F-1        0.00000   0.00000   0.00000   0.00000   0.00000
  47       16F+2        0.00000   0.00000   0.00000   0.00000   0.00000
  48       16F-2        0.00000   0.00000   0.00000   0.00000   0.00000
  49       16F+3        0.00000   0.00000   0.00000   0.00000   0.00000
  50       16F-3        0.00000   0.00000   0.00000   0.00000   0.00000
                          41        42        43        44        45
                       (T1U)--V  (T1U)--V  (T2U)--V  (T2U)--V  (T2U)--V
     Eigenvalues --     2.64258   2.64258   3.39876   3.39876   3.39876
   1 1   Ar 1S          0.00000   0.00000   0.00000   0.00000   0.00000
   2        2S          0.00000   0.00000   0.00000   0.00000   0.00000
   3        3S          0.00000   0.00000   0.00000   0.00000   0.00000
   4        4S          0.00000   0.00000   0.00000   0.00000   0.00000
   5        5S          0.00000   0.00000   0.00000   0.00000   0.00000
   6        6S          0.00000   0.00000   0.00000   0.00000   0.00000
   7        7PX         0.00000   0.00000   0.00000   0.00000   0.00000
   8        7PY         0.64211   0.00000   0.00000   0.00000   0.00000
   9        7PZ         0.00000   0.64211  -0.00000   0.00000   0.00000
  10        8PX         0.00000   0.00000   0.00000   0.00000   0.00000
  11        8PY         2.28534   0.00000   0.00000   0.00000   0.00000
  12        8PZ         0.00000   2.28534  -0.00000   0.00000   0.00000
  13        9PX         0.00000   0.00000   0.00000  -0.00000   0.00000
  14        9PY        -2.00209   0.00000   0.00000   0.00000  -0.00000
  15        9PZ         0.00000  -2.00209   0.00000   0.00000   0.00000
  16       10PX         0.00000   0.00000   0.00000  -0.00000   0.00000
  17       10PY        -1.17739   0.00000   0.00000   0.00000  -0.00000
  18       10PZ         0.00000  -1.17739   0.00000   0.00000   0.00000
  19       11PX         0.00000   0.00000   0.00000   0.00000   0.00000
  20       11PY         0.35562   0.00000   0.00000   0.00000   0.00000
  21       11PZ         0.00000   0.35562  -0.00000   0.00000   0.00000
  22       12D 0        0.00000   0.00000   0.00000   0.00000   0.00000
  23       12D+1        0.00000   0.00000   0.00000   0.00000   0.00000
  24       12D-1        0.00000   0.00000   0.00000   0.00000   0.00000
  25       12D+2        0.00000   0.00000   0.00000   0.00000   0.00000
  26       12D-2        0.00000   0.00000   0.00000   0.00000   0.00000
  27       13D 0        0.00000   0.00000   0.00000   0.00000   0.00000
  28       13D+1        0.00000   0.00000   0.00000   0.00000   0.00000
  29       13D-1        0.00000   0.00000   0.00000   0.00000   0.00000
  30       13D+2        0.00000   0.00000   0.00000   0.00000   0.00000
  31       13D-2        0.00000   0.00000   0.00000   0.00000   0.00000
  32       14D 0        0.00000   0.00000   0.00000   0.00000   0.00000
  33       14D+1        0.00000   0.00000   0.00000   0.00000   0.00000
  34       14D-1        0.00000   0.00000   0.00000   0.00000   0.00000
  35       14D+2        0.00000   0.00000   0.00000   0.00000   0.00000
  36       14D-2        0.00000   0.00000   0.00000   0.00000   0.00000
  37       15F 0        0.00000  -0.00000   0.00003   0.00000   0.00000
  38       15F+1        0.00000   0.00000   0.00000   1.12063   0.00000
  39       15F-1        0.00000   0.00000   0.00000   0.00000   1.12069
  40       15F+2        0.00000   0.00000   1.41740   0.00000   0.00000
  41       15F-2        0.00000   0.00000   0.00000   0.00000   0.00000
  42       15F+3        0.00000   0.00000   0.00000   0.86788   0.00000
  43       15F-3        0.00000   0.00000   0.00000   0.00000  -0.86780
  44       16F 0        0.00000   0.00000  -0.00002   0.00000   0.00000
  45       16F+1        0.00000   0.00000   0.00000  -0.70935   0.00000
  46       16F-1       -0.00000   0.00000   0.00000   0.00000  -0.70939
  47       16F+2        0.00000  -0.00000  -0.89721   0.00000   0.00000
  48       16F-2        0.00000   0.00000   0.00000   0.00000   0.00000
  49       16F+3        0.00000   0.00000   0.00000  -0.54936   0.00000
  50       16F-3       -0.00000   0.00000   0.00000   0.00000   0.54931
                          46        47        48        49        50
                       (A2U)--V  (T1U)--V  (T1U)--V  (T1U)--V  (A1G)--V
     Eigenvalues --     3.39876   3.39876   3.39876   3.39876   5.53811
   1 1   Ar 1S          0.00000   0.00000   0.00000   0.00000   0.04896
   2        2S          0.00000   0.00000   0.00000   0.00000   3.03326
   3        3S          0.00000   0.00000   0.00000   0.00000   4.16326
   4        4S          0.00000   0.00000   0.00000   0.00000  -4.02381
   5        5S          0.00000   0.00000   0.00000   0.00000  -2.69210
   6        6S          0.00000   0.00000   0.00000   0.00000   0.80183
   7        7PX         0.00000   0.00000   0.00000   0.00000   0.00000
   8        7PY         0.00000   0.00000  -0.00000   0.00000   0.00000
   9        7PZ         0.00000   0.00000   0.00000   0.00000   0.00000
  10        8PX         0.00000   0.00000   0.00000   0.00000   0.00000
  11        8PY         0.00000   0.00000  -0.00000   0.00000   0.00000
  12        8PZ         0.00000   0.00000   0.00000   0.00000   0.00000
  13        9PX         0.00000  -0.00000   0.00000   0.00000   0.00000
  14        9PY         0.00000   0.00000   0.00000   0.00000   0.00000
  15        9PZ         0.00000   0.00000   0.00000  -0.00000   0.00000
  16       10PX         0.00000  -0.00000   0.00000   0.00000   0.00000
  17       10PY         0.00000   0.00000   0.00000   0.00000   0.00000
  18       10PZ         0.00000   0.00000   0.00000  -0.00000   0.00000
  19       11PX         0.00000   0.00000   0.00000   0.00000   0.00000
  20       11PY         0.00000   0.00000  -0.00000   0.00000   0.00000
  21       11PZ         0.00000   0.00000   0.00000   0.00000   0.00000
  22       12D 0        0.00000   0.00000   0.00000   0.00000  -0.00000
  23       12D+1        0.00000   0.00000   0.00000   0.00000   0.00000
  24       12D-1        0.00000   0.00000   0.00000   0.00000   0.00000
  25       12D+2        0.00000   0.00000   0.00000   0.00000  -0.00000
  26       12D-2        0.00000   0.00000   0.00000   0.00000   0.00000
  27       13D 0        0.00000   0.00000   0.00000   0.00000   0.00000
  28       13D+1        0.00000   0.00000   0.00000   0.00000   0.00000
  29       13D-1        0.00000   0.00000   0.00000   0.00000   0.00000
  30       13D+2        0.00000   0.00000   0.00000   0.00000   0.00000
  31       13D-2        0.00000   0.00000   0.00000   0.00000   0.00000
  32       14D 0        0.00000   0.00000   0.00000   0.00000   0.00000
  33       14D+1        0.00000   0.00000   0.00000   0.00000   0.00000
  34       14D-1        0.00000   0.00000   0.00000   0.00000   0.00000
  35       14D+2        0.00000   0.00000   0.00000   0.00000   0.00000
  36       14D-2        0.00000   0.00000   0.00000   0.00000   0.00000
  37       15F 0        0.00000   0.00000   0.00000   1.41740   0.00000
  38       15F+1        0.00000  -0.86788   0.00000   0.00000   0.00000
  39       15F-1        0.00000   0.00000   0.86780   0.00000   0.00000
  40       15F+2        0.00000   0.00000   0.00000  -0.00003   0.00000
  41       15F-2        1.41740   0.00000   0.00000   0.00000   0.00000
  42       15F+3        0.00000   1.12063   0.00000   0.00000   0.00000
  43       15F-3        0.00000   0.00000   1.12069   0.00000   0.00000
  44       16F 0        0.00000   0.00000   0.00000  -0.89721   0.00000
  45       16F+1        0.00000   0.54936   0.00000   0.00000   0.00000
  46       16F-1        0.00000   0.00000  -0.54931   0.00000   0.00000
  47       16F+2        0.00000   0.00000   0.00000   0.00002   0.00000
  48       16F-2       -0.89721   0.00000   0.00000   0.00000   0.00000
  49       16F+3        0.00000  -0.70935   0.00000   0.00000   0.00000
  50       16F-3        0.00000   0.00000  -0.70939   0.00000   0.00000
     Density Matrix:
                           1         2         3         4         5
   1 1   Ar 1S          2.17744
   2        2S         -0.59764   2.04209
   3        3S          0.12956  -0.45814   0.79057
   4        4S         -0.05446   0.15930   0.10297   0.04042
   5        5S          0.06275  -0.24258   0.47603   0.06612   0.28728
   6        6S          0.00346  -0.00938   0.01048   0.00096   0.00625
   7        7PX         0.00000   0.00000   0.00000   0.00000   0.00000
   8        7PY         0.00000   0.00000   0.00000   0.00000   0.00000
   9        7PZ         0.00000   0.00000   0.00000   0.00000   0.00000
  10        8PX         0.00000   0.00000   0.00000   0.00000   0.00000
  11        8PY         0.00000   0.00000   0.00000   0.00000   0.00000
  12        8PZ         0.00000   0.00000   0.00000   0.00000   0.00000
  13        9PX         0.00000   0.00000   0.00000   0.00000   0.00000
  14        9PY         0.00000   0.00000   0.00000   0.00000   0.00000
  15        9PZ         0.00000   0.00000   0.00000   0.00000   0.00000
  16       10PX         0.00000   0.00000   0.00000   0.00000   0.00000
  17       10PY         0.00000   0.00000   0.00000   0.00000   0.00000
  18       10PZ         0.00000   0.00000   0.00000   0.00000   0.00000
  19       11PX         0.00000   0.00000   0.00000   0.00000   0.00000
  20       11PY         0.00000   0.00000   0.00000   0.00000   0.00000
  21       11PZ         0.00000   0.00000   0.00000   0.00000   0.00000
  22       12D 0       -0.00000   0.00000  -0.00000   0.00000   0.00000
  23       12D+1        0.00000  -0.00000  -0.00000  -0.00000  -0.00000
  24       12D-1       -0.00000   0.00000   0.00000   0.00000   0.00000
  25       12D+2        0.00000  -0.00000  -0.00000  -0.00000  -0.00000
  26       12D-2        0.00000  -0.00000  -0.00000  -0.00000  -0.00000
  27       13D 0        0.00000  -0.00000  -0.00000  -0.00000  -0.00000
  28       13D+1       -0.00000   0.00000  -0.00000   0.00000  -0.00000
  29       13D-1        0.00000  -0.00000  -0.00000  -0.00000  -0.00000
  30       13D+2       -0.00000   0.00000  -0.00000  -0.00000  -0.00000
  31       13D-2       -0.00000   0.00000  -0.00000   0.00000  -0.00000
  32       14D 0        0.00000  -0.00000  -0.00000   0.00000   0.00000
  33       14D+1       -0.00000   0.00000  -0.00000   0.00000  -0.00000
  34       14D-1        0.00000  -0.00000   0.00000   0.00000   0.00000
  35       14D+2       -0.00000  -0.00000   0.00000  -0.00000  -0.00000
  36       14D-2       -0.00000   0.00000  -0.00000   0.00000  -0.00000
  37       15F 0        0.00000   0.00000   0.00000   0.00000   0.00000
  38       15F+1        0.00000   0.00000   0.00000   0.00000   0.00000
  39       15F-1        0.00000   0.00000   0.00000   0.00000   0.00000
  40       15F+2        0.00000   0.00000   0.00000   0.00000   0.00000
  41       15F-2        0.00000   0.00000   0.00000   0.00000   0.00000
  42       15F+3        0.00000   0.00000   0.00000   0.00000   0.00000
  43       15F-3        0.00000   0.00000   0.00000   0.00000   0.00000
  44       16F 0        0.00000   0.00000   0.00000   0.00000   0.00000
  45       16F+1        0.00000   0.00000   0.00000   0.00000   0.00000
  46       16F-1        0.00000   0.00000   0.00000   0.00000   0.00000
  47       16F+2        0.00000   0.00000   0.00000   0.00000   0.00000
  48       16F-2        0.00000   0.00000   0.00000   0.00000   0.00000
  49       16F+3        0.00000   0.00000   0.00000   0.00000   0.00000
  50       16F-3        0.00000   0.00000   0.00000   0.00000   0.00000
                           6         7         8         9        10
   6        6S          0.00015
   7        7PX         0.00000   2.04177
   8        7PY         0.00000  -0.00000   2.04177
   9        7PZ         0.00000  -0.00000   0.00000   2.04177
  10        8PX         0.00000  -0.32229   0.00000   0.00000   0.59272
  11        8PY         0.00000   0.00000  -0.32229   0.00000  -0.00000
  12        8PZ         0.00000   0.00000   0.00000  -0.32229  -0.00000
  13        9PX         0.00000  -0.04398  -0.00000  -0.00000   0.32491
  14        9PY         0.00000  -0.00000  -0.04398  -0.00000   0.00000
  15        9PZ         0.00000  -0.00000  -0.00000  -0.04398   0.00000
  16       10PX         0.00000  -0.17764   0.00000   0.00000   0.35055
  17       10PY         0.00000   0.00000  -0.17764  -0.00000  -0.00000
  18       10PZ         0.00000   0.00000  -0.00000  -0.17764  -0.00000
  19       11PX         0.00000  -0.01221  -0.00000  -0.00000   0.02081
  20       11PY         0.00000  -0.00000  -0.01221   0.00000   0.00000
  21       11PZ         0.00000  -0.00000   0.00000  -0.01221   0.00000
  22       12D 0        0.00000   0.00000   0.00000   0.00000   0.00000
  23       12D+1        0.00000   0.00000   0.00000   0.00000   0.00000
  24       12D-1        0.00000   0.00000   0.00000   0.00000   0.00000
  25       12D+2        0.00000   0.00000   0.00000   0.00000   0.00000
  26       12D-2        0.00000   0.00000   0.00000   0.00000   0.00000
  27       13D 0       -0.00000   0.00000   0.00000   0.00000   0.00000
  28       13D+1       -0.00000   0.00000   0.00000   0.00000   0.00000
  29       13D-1       -0.00000   0.00000   0.00000   0.00000   0.00000
  30       13D+2       -0.00000   0.00000   0.00000   0.00000   0.00000
  31       13D-2       -0.00000   0.00000   0.00000   0.00000   0.00000
  32       14D 0        0.00000   0.00000   0.00000   0.00000   0.00000
  33       14D+1       -0.00000   0.00000   0.00000   0.00000   0.00000
  34       14D-1        0.00000   0.00000   0.00000   0.00000   0.00000
  35       14D+2        0.00000   0.00000   0.00000   0.00000   0.00000
  36       14D-2       -0.00000   0.00000   0.00000   0.00000   0.00000
  37       15F 0        0.00000   0.00000  -0.00000   0.00000  -0.00000
  38       15F+1        0.00000  -0.00000  -0.00000   0.00000   0.00000
  39       15F-1        0.00000  -0.00000  -0.00000  -0.00000   0.00000
  40       15F+2        0.00000  -0.00000  -0.00000   0.00000   0.00000
  41       15F-2        0.00000   0.00000  -0.00000  -0.00000   0.00000
  42       15F+3        0.00000   0.00000   0.00000  -0.00000  -0.00000
  43       15F-3        0.00000   0.00000  -0.00000  -0.00000  -0.00000
  44       16F 0        0.00000   0.00000  -0.00000   0.00000  -0.00000
  45       16F+1        0.00000  -0.00000   0.00000   0.00000   0.00000
  46       16F-1        0.00000   0.00000  -0.00000  -0.00000  -0.00000
  47       16F+2        0.00000  -0.00000  -0.00000  -0.00000   0.00000
  48       16F-2        0.00000  -0.00000   0.00000  -0.00000   0.00000
  49       16F+3        0.00000   0.00000   0.00000  -0.00000  -0.00000
  50       16F-3        0.00000   0.00000  -0.00000  -0.00000  -0.00000
                          11        12        13        14        15
  11        8PY         0.59272
  12        8PZ        -0.00000   0.59272
  13        9PX         0.00000   0.00000   0.18754
  14        9PY         0.32491  -0.00000   0.00000   0.18754
  15        9PZ        -0.00000   0.32491   0.00000   0.00000   0.18754
  16       10PX        -0.00000  -0.00000   0.19308   0.00000  -0.00000
  17       10PY         0.35055   0.00000   0.00000   0.19308   0.00000
  18       10PZ         0.00000   0.35055  -0.00000   0.00000   0.19308
  19       11PX         0.00000   0.00000   0.01134   0.00000   0.00000
  20       11PY         0.02081  -0.00000   0.00000   0.01134  -0.00000
  21       11PZ        -0.00000   0.02081   0.00000  -0.00000   0.01134
  22       12D 0        0.00000   0.00000   0.00000   0.00000   0.00000
  23       12D+1        0.00000   0.00000   0.00000   0.00000   0.00000
  24       12D-1        0.00000   0.00000   0.00000   0.00000   0.00000
  25       12D+2        0.00000   0.00000   0.00000   0.00000   0.00000
  26       12D-2        0.00000   0.00000   0.00000   0.00000   0.00000
  27       13D 0        0.00000   0.00000   0.00000   0.00000   0.00000
  28       13D+1        0.00000   0.00000   0.00000   0.00000   0.00000
  29       13D-1        0.00000   0.00000   0.00000   0.00000   0.00000
  30       13D+2        0.00000   0.00000   0.00000   0.00000   0.00000
  31       13D-2        0.00000   0.00000   0.00000   0.00000   0.00000
  32       14D 0        0.00000   0.00000   0.00000   0.00000   0.00000
  33       14D+1        0.00000   0.00000   0.00000   0.00000   0.00000
  34       14D-1        0.00000   0.00000   0.00000   0.00000   0.00000
  35       14D+2        0.00000   0.00000   0.00000   0.00000   0.00000
  36       14D-2        0.00000   0.00000   0.00000   0.00000   0.00000
  37       15F 0        0.00000  -0.00000  -0.00000   0.00000  -0.00000
  38       15F+1        0.00000  -0.00000   0.00000   0.00000  -0.00000
  39       15F-1        0.00000   0.00000   0.00000   0.00000   0.00000
  40       15F+2        0.00000  -0.00000   0.00000   0.00000  -0.00000
  41       15F-2       -0.00000  -0.00000   0.00000  -0.00000  -0.00000
  42       15F+3       -0.00000   0.00000  -0.00000  -0.00000   0.00000
  43       15F-3        0.00000   0.00000  -0.00000   0.00000   0.00000
  44       16F 0        0.00000  -0.00000  -0.00000   0.00000  -0.00000
  45       16F+1       -0.00000  -0.00000   0.00000  -0.00000  -0.00000
  46       16F-1        0.00000   0.00000  -0.00000   0.00000   0.00000
  47       16F+2        0.00000   0.00000   0.00000   0.00000  -0.00000
  48       16F-2        0.00000   0.00000   0.00000   0.00000   0.00000
  49       16F+3       -0.00000   0.00000  -0.00000  -0.00000   0.00000
  50       16F-3        0.00000   0.00000  -0.00000   0.00000   0.00000
                          16        17        18        19        20
  16       10PX         0.20742
  17       10PY        -0.00000   0.20742
  18       10PZ        -0.00000   0.00000   0.20742
  19       11PX         0.01230   0.00000   0.00000   0.00073
  20       11PY         0.00000   0.01230  -0.00000   0.00000   0.00073
  21       11PZ         0.00000  -0.00000   0.01230   0.00000  -0.00000
  22       12D 0        0.00000   0.00000   0.00000   0.00000   0.00000
  23       12D+1        0.00000   0.00000   0.00000   0.00000   0.00000
  24       12D-1        0.00000   0.00000   0.00000   0.00000   0.00000
  25       12D+2        0.00000   0.00000   0.00000   0.00000   0.00000
  26       12D-2        0.00000   0.00000   0.00000   0.00000   0.00000
  27       13D 0        0.00000   0.00000   0.00000   0.00000   0.00000
  28       13D+1        0.00000   0.00000   0.00000   0.00000   0.00000
  29       13D-1        0.00000   0.00000   0.00000   0.00000   0.00000
  30       13D+2        0.00000   0.00000   0.00000   0.00000   0.00000
  31       13D-2        0.00000   0.00000   0.00000   0.00000   0.00000
  32       14D 0        0.00000   0.00000   0.00000   0.00000   0.00000
  33       14D+1        0.00000   0.00000   0.00000   0.00000   0.00000
  34       14D-1        0.00000   0.00000   0.00000   0.00000   0.00000
  35       14D+2        0.00000   0.00000   0.00000   0.00000   0.00000
  36       14D-2        0.00000   0.00000   0.00000   0.00000   0.00000
  37       15F 0       -0.00000   0.00000  -0.00000  -0.00000   0.00000
  38       15F+1        0.00000   0.00000  -0.00000   0.00000   0.00000
  39       15F-1        0.00000   0.00000   0.00000   0.00000   0.00000
  40       15F+2        0.00000   0.00000   0.00000   0.00000   0.00000
  41       15F-2        0.00000  -0.00000  -0.00000   0.00000   0.00000
  42       15F+3       -0.00000  -0.00000   0.00000  -0.00000  -0.00000
  43       15F-3       -0.00000   0.00000   0.00000  -0.00000   0.00000
  44       16F 0       -0.00000   0.00000  -0.00000  -0.00000   0.00000
  45       16F+1        0.00000  -0.00000  -0.00000   0.00000  -0.00000
  46       16F-1       -0.00000   0.00000   0.00000  -0.00000   0.00000
  47       16F+2        0.00000   0.00000  -0.00000   0.00000   0.00000
  48       16F-2        0.00000   0.00000   0.00000   0.00000   0.00000
  49       16F+3       -0.00000  -0.00000   0.00000  -0.00000  -0.00000
  50       16F-3       -0.00000   0.00000   0.00000  -0.00000   0.00000
                          21        22        23        24        25
  21       11PZ         0.00073
  22       12D 0        0.00000   0.00000
  23       12D+1        0.00000   0.00000   0.00000
  24       12D-1        0.00000  -0.00000   0.00000   0.00000
  25       12D+2        0.00000  -0.00000  -0.00000  -0.00000   0.00000
  26       12D-2        0.00000   0.00000   0.00000  -0.00000   0.00000
  27       13D 0        0.00000  -0.00000  -0.00000   0.00000  -0.00000
  28       13D+1        0.00000  -0.00000  -0.00000  -0.00000   0.00000
  29       13D-1        0.00000   0.00000  -0.00000  -0.00000   0.00000
  30       13D+2        0.00000  -0.00000   0.00000   0.00000  -0.00000
  31       13D-2        0.00000  -0.00000  -0.00000   0.00000  -0.00000
  32       14D 0        0.00000  -0.00000  -0.00000  -0.00000  -0.00000
  33       14D+1        0.00000  -0.00000   0.00000  -0.00000   0.00000
  34       14D-1        0.00000  -0.00000  -0.00000  -0.00000   0.00000
  35       14D+2        0.00000  -0.00000   0.00000   0.00000  -0.00000
  36       14D-2        0.00000  -0.00000   0.00000   0.00000   0.00000
  37       15F 0       -0.00000   0.00000   0.00000   0.00000   0.00000
  38       15F+1       -0.00000   0.00000   0.00000   0.00000   0.00000
  39       15F-1        0.00000   0.00000   0.00000   0.00000   0.00000
  40       15F+2       -0.00000   0.00000   0.00000   0.00000   0.00000
  41       15F-2       -0.00000   0.00000   0.00000   0.00000   0.00000
  42       15F+3        0.00000   0.00000   0.00000   0.00000   0.00000
  43       15F-3        0.00000   0.00000   0.00000   0.00000   0.00000
  44       16F 0       -0.00000   0.00000   0.00000   0.00000   0.00000
  45       16F+1       -0.00000   0.00000   0.00000   0.00000   0.00000
  46       16F-1        0.00000   0.00000   0.00000   0.00000   0.00000
  47       16F+2       -0.00000   0.00000   0.00000   0.00000   0.00000
  48       16F-2        0.00000   0.00000   0.00000   0.00000   0.00000
  49       16F+3        0.00000   0.00000   0.00000   0.00000   0.00000
  50       16F-3        0.00000   0.00000   0.00000   0.00000   0.00000
                          26        27        28        29        30
  26       12D-2        0.00000
  27       13D 0        0.00000   0.00000
  28       13D+1       -0.00000   0.00000   0.00000
  29       13D-1       -0.00000  -0.00000  -0.00000   0.00000
  30       13D+2       -0.00000  -0.00000   0.00000  -0.00000   0.00000
  31       13D-2       -0.00000  -0.00000   0.00000   0.00000   0.00000
  32       14D 0       -0.00000  -0.00000  -0.00000   0.00000   0.00000
  33       14D+1        0.00000  -0.00000  -0.00000   0.00000  -0.00000
  34       14D-1        0.00000   0.00000   0.00000  -0.00000  -0.00000
  35       14D+2        0.00000   0.00000  -0.00000   0.00000  -0.00000
  36       14D-2        0.00000   0.00000  -0.00000  -0.00000  -0.00000
  37       15F 0        0.00000   0.00000   0.00000   0.00000   0.00000
  38       15F+1        0.00000   0.00000   0.00000   0.00000   0.00000
  39       15F-1        0.00000   0.00000   0.00000   0.00000   0.00000
  40       15F+2        0.00000   0.00000   0.00000   0.00000   0.00000
  41       15F-2        0.00000   0.00000   0.00000   0.00000   0.00000
  42       15F+3        0.00000   0.00000   0.00000   0.00000   0.00000
  43       15F-3        0.00000   0.00000   0.00000   0.00000   0.00000
  44       16F 0        0.00000   0.00000   0.00000   0.00000   0.00000
  45       16F+1        0.00000   0.00000   0.00000   0.00000   0.00000
  46       16F-1        0.00000   0.00000   0.00000   0.00000   0.00000
  47       16F+2        0.00000   0.00000   0.00000   0.00000   0.00000
  48       16F-2        0.00000   0.00000   0.00000   0.00000   0.00000
  49       16F+3        0.00000   0.00000   0.00000   0.00000   0.00000
  50       16F-3        0.00000   0.00000   0.00000   0.00000   0.00000
                          31        32        33        34        35
  31       13D-2        0.00000
  32       14D 0       -0.00000   0.00000
  33       14D+1       -0.00000   0.00000   0.00000
  34       14D-1       -0.00000  -0.00000  -0.00000   0.00000
  35       14D+2       -0.00000   0.00000  -0.00000  -0.00000   0.00000
  36       14D-2       -0.00000  -0.00000   0.00000   0.00000   0.00000
  37       15F 0        0.00000   0.00000   0.00000   0.00000   0.00000
  38       15F+1        0.00000   0.00000   0.00000   0.00000   0.00000
  39       15F-1        0.00000   0.00000   0.00000   0.00000   0.00000
  40       15F+2        0.00000   0.00000   0.00000   0.00000   0.00000
  41       15F-2        0.00000   0.00000   0.00000   0.00000   0.00000
  42       15F+3        0.00000   0.00000   0.00000   0.00000   0.00000
  43       15F-3        0.00000   0.00000   0.00000   0.00000   0.00000
  44       16F 0        0.00000   0.00000   0.00000   0.00000   0.00000
  45       16F+1        0.00000   0.00000   0.00000   0.00000   0.00000
  46       16F-1        0.00000   0.00000   0.00000   0.00000   0.00000
  47       16F+2        0.00000   0.00000   0.00000   0.00000   0.00000
  48       16F-2        0.00000   0.00000   0.00000   0.00000   0.00000
  49       16F+3        0.00000   0.00000   0.00000   0.00000   0.00000
  50       16F-3        0.00000   0.00000   0.00000   0.00000   0.00000
                          36        37        38        39        40
  36       14D-2        0.00000
  37       15F 0        0.00000   0.00000
  38       15F+1        0.00000   0.00000   0.00000
  39       15F-1        0.00000  -0.00000   0.00000   0.00000
  40       15F+2        0.00000  -0.00000   0.00000   0.00000   0.00000
  41       15F-2        0.00000   0.00000   0.00000  -0.00000   0.00000
  42       15F+3        0.00000   0.00000  -0.00000  -0.00000  -0.00000
  43       15F-3        0.00000   0.00000  -0.00000   0.00000   0.00000
  44       16F 0        0.00000   0.00000   0.00000  -0.00000   0.00000
  45       16F+1        0.00000   0.00000   0.00000   0.00000   0.00000
  46       16F-1        0.00000  -0.00000   0.00000   0.00000   0.00000
  47       16F+2        0.00000  -0.00000   0.00000   0.00000  -0.00000
  48       16F-2        0.00000  -0.00000   0.00000   0.00000   0.00000
  49       16F+3        0.00000   0.00000  -0.00000  -0.00000  -0.00000
  50       16F-3        0.00000   0.00000  -0.00000   0.00000   0.00000
                          41        42        43        44        45
  41       15F-2        0.00000
  42       15F+3       -0.00000   0.00000
  43       15F-3       -0.00000  -0.00000   0.00000
  44       16F 0        0.00000   0.00000   0.00000   0.00000
  45       16F+1        0.00000  -0.00000  -0.00000   0.00000   0.00000
  46       16F-1       -0.00000  -0.00000   0.00000  -0.00000  -0.00000
  47       16F+2        0.00000  -0.00000   0.00000  -0.00000   0.00000
  48       16F-2        0.00000  -0.00000   0.00000  -0.00000   0.00000
  49       16F+3       -0.00000   0.00000  -0.00000   0.00000  -0.00000
  50       16F-3       -0.00000  -0.00000   0.00000   0.00000  -0.00000
                          46        47        48        49        50
  46       16F-1        0.00000
  47       16F+2        0.00000   0.00000
  48       16F-2        0.00000   0.00000   0.00000
  49       16F+3       -0.00000  -0.00000  -0.00000   0.00000
  50       16F-3        0.00000   0.00000   0.00000   0.00000   0.00000
    Full Mulliken population analysis:
                           1         2         3         4         5
   1 1   Ar 1S          2.17744
   2        2S         -0.16623   2.04209
   3        3S         -0.00544  -0.07161   0.79057
   4        4S         -0.00842   0.12075   0.06996   0.04042
   5        5S          0.00260  -0.06545   0.40665   0.03830   0.28728
   6        6S          0.00007  -0.00121   0.00565   0.00029   0.00513
   7        7PX         0.00000   0.00000   0.00000   0.00000   0.00000
   8        7PY         0.00000   0.00000   0.00000   0.00000   0.00000
   9        7PZ         0.00000   0.00000   0.00000   0.00000   0.00000
  10        8PX         0.00000   0.00000   0.00000   0.00000   0.00000
  11        8PY         0.00000   0.00000   0.00000   0.00000   0.00000
  12        8PZ         0.00000   0.00000   0.00000   0.00000   0.00000
  13        9PX         0.00000   0.00000   0.00000   0.00000   0.00000
  14        9PY         0.00000   0.00000   0.00000   0.00000   0.00000
  15        9PZ         0.00000   0.00000   0.00000   0.00000   0.00000
  16       10PX         0.00000   0.00000   0.00000   0.00000   0.00000
  17       10PY         0.00000   0.00000   0.00000   0.00000   0.00000
  18       10PZ         0.00000   0.00000   0.00000   0.00000   0.00000
  19       11PX         0.00000   0.00000   0.00000   0.00000   0.00000
  20       11PY         0.00000   0.00000   0.00000   0.00000   0.00000
  21       11PZ         0.00000   0.00000   0.00000   0.00000   0.00000
  22       12D 0        0.00000   0.00000   0.00000   0.00000   0.00000
  23       12D+1        0.00000  -0.00000   0.00000   0.00000   0.00000
  24       12D-1        0.00000  -0.00000   0.00000   0.00000   0.00000
  25       12D+2       -0.00000   0.00000   0.00000  -0.00000  -0.00000
  26       12D-2       -0.00000   0.00000   0.00000   0.00000   0.00000
  27       13D 0        0.00000   0.00000   0.00000   0.00000   0.00000
  28       13D+1        0.00000   0.00000   0.00000   0.00000   0.00000
  29       13D-1        0.00000   0.00000  -0.00000  -0.00000  -0.00000
  30       13D+2        0.00000   0.00000  -0.00000  -0.00000  -0.00000
  31       13D-2        0.00000   0.00000   0.00000  -0.00000   0.00000
  32       14D 0        0.00000   0.00000   0.00000   0.00000   0.00000
  33       14D+1        0.00000  -0.00000   0.00000   0.00000   0.00000
  34       14D-1        0.00000   0.00000  -0.00000   0.00000   0.00000
  35       14D+2        0.00000  -0.00000   0.00000   0.00000   0.00000
  36       14D-2        0.00000   0.00000   0.00000   0.00000   0.00000
  37       15F 0        0.00000   0.00000   0.00000   0.00000   0.00000
  38       15F+1        0.00000   0.00000   0.00000   0.00000   0.00000
  39       15F-1        0.00000   0.00000   0.00000   0.00000   0.00000
  40       15F+2        0.00000   0.00000   0.00000   0.00000   0.00000
  41       15F-2        0.00000   0.00000   0.00000   0.00000   0.00000
  42       15F+3        0.00000   0.00000   0.00000   0.00000   0.00000
  43       15F-3        0.00000   0.00000   0.00000   0.00000   0.00000
  44       16F 0        0.00000   0.00000   0.00000   0.00000   0.00000
  45       16F+1        0.00000   0.00000   0.00000   0.00000   0.00000
  46       16F-1        0.00000   0.00000   0.00000   0.00000   0.00000
  47       16F+2        0.00000   0.00000   0.00000   0.00000   0.00000
  48       16F-2        0.00000   0.00000   0.00000   0.00000   0.00000
  49       16F+3        0.00000   0.00000   0.00000   0.00000   0.00000
  50       16F-3        0.00000   0.00000   0.00000   0.00000   0.00000
                           6         7         8         9        10
   6        6S          0.00015
   7        7PX         0.00000   2.04177
   8        7PY         0.00000   0.00000   2.04177
   9        7PZ         0.00000   0.00000   0.00000   2.04177
  10        8PX         0.00000  -0.05146   0.00000  -0.00000   0.59272
  11        8PY         0.00000  -0.00000  -0.05146   0.00000   0.00000
  12        8PZ         0.00000  -0.00000   0.00000  -0.05146   0.00000
  13        9PX         0.00000  -0.02021   0.00000   0.00000   0.24155
  14        9PY         0.00000   0.00000  -0.02021  -0.00000   0.00000
  15        9PZ         0.00000   0.00000  -0.00000  -0.02021  -0.00000
  16       10PX         0.00000  -0.01024  -0.00000  -0.00000   0.24856
  17       10PY         0.00000  -0.00000  -0.01024  -0.00000   0.00000
  18       10PZ         0.00000  -0.00000  -0.00000  -0.01024   0.00000
  19       11PX         0.00000  -0.00018  -0.00000   0.00000   0.00563
  20       11PY         0.00000   0.00000  -0.00018   0.00000  -0.00000
  21       11PZ         0.00000   0.00000   0.00000  -0.00018   0.00000
  22       12D 0       -0.00000   0.00000   0.00000   0.00000   0.00000
  23       12D+1        0.00000   0.00000   0.00000   0.00000   0.00000
  24       12D-1        0.00000   0.00000   0.00000   0.00000   0.00000
  25       12D+2       -0.00000   0.00000   0.00000   0.00000   0.00000
  26       12D-2       -0.00000   0.00000   0.00000   0.00000   0.00000
  27       13D 0        0.00000   0.00000   0.00000   0.00000   0.00000
  28       13D+1        0.00000   0.00000   0.00000   0.00000   0.00000
  29       13D-1       -0.00000   0.00000   0.00000   0.00000   0.00000
  30       13D+2        0.00000   0.00000   0.00000   0.00000   0.00000
  31       13D-2        0.00000   0.00000   0.00000   0.00000   0.00000
  32       14D 0       -0.00000   0.00000   0.00000   0.00000   0.00000
  33       14D+1        0.00000   0.00000   0.00000   0.00000   0.00000
  34       14D-1        0.00000   0.00000   0.00000   0.00000   0.00000
  35       14D+2       -0.00000   0.00000   0.00000   0.00000   0.00000
  36       14D-2        0.00000   0.00000   0.00000   0.00000   0.00000
  37       15F 0        0.00000   0.00000   0.00000  -0.00000  -0.00000
  38       15F+1        0.00000  -0.00000  -0.00000  -0.00000   0.00000
  39       15F-1        0.00000  -0.00000  -0.00000   0.00000   0.00000
  40       15F+2        0.00000   0.00000   0.00000  -0.00000  -0.00000
  41       15F-2        0.00000   0.00000   0.00000  -0.00000   0.00000
  42       15F+3        0.00000  -0.00000  -0.00000  -0.00000   0.00000
  43       15F-3        0.00000  -0.00000  -0.00000  -0.00000  -0.00000
  44       16F 0        0.00000   0.00000  -0.00000   0.00000  -0.00000
  45       16F+1        0.00000   0.00000   0.00000  -0.00000   0.00000
  46       16F-1        0.00000   0.00000   0.00000  -0.00000   0.00000
  47       16F+2        0.00000   0.00000   0.00000   0.00000  -0.00000
  48       16F-2        0.00000  -0.00000  -0.00000  -0.00000   0.00000
  49       16F+3        0.00000   0.00000  -0.00000  -0.00000   0.00000
  50       16F-3        0.00000  -0.00000   0.00000  -0.00000   0.00000
                          11        12        13        14        15
  11        8PY         0.59272
  12        8PZ        -0.00000   0.59272
  13        9PX        -0.00000  -0.00000   0.18754
  14        9PY         0.24155  -0.00000  -0.00000   0.18754
  15        9PZ         0.00000   0.24155  -0.00000   0.00000   0.18754
  16       10PX         0.00000   0.00000   0.06193   0.00000   0.00000
  17       10PY         0.24856   0.00000   0.00000   0.06193   0.00000
  18       10PZ         0.00000   0.24856   0.00000   0.00000   0.06193
  19       11PX        -0.00000  -0.00000   0.00105  -0.00000  -0.00000
  20       11PY         0.00563  -0.00000  -0.00000   0.00105  -0.00000
  21       11PZ        -0.00000   0.00563  -0.00000  -0.00000   0.00105
  22       12D 0        0.00000   0.00000   0.00000   0.00000   0.00000
  23       12D+1        0.00000   0.00000   0.00000   0.00000   0.00000
  24       12D-1        0.00000   0.00000   0.00000   0.00000   0.00000
  25       12D+2        0.00000   0.00000   0.00000   0.00000   0.00000
  26       12D-2        0.00000   0.00000   0.00000   0.00000   0.00000
  27       13D 0        0.00000   0.00000   0.00000   0.00000   0.00000
  28       13D+1        0.00000   0.00000   0.00000   0.00000   0.00000
  29       13D-1        0.00000   0.00000   0.00000   0.00000   0.00000
  30       13D+2        0.00000   0.00000   0.00000   0.00000   0.00000
  31       13D-2        0.00000   0.00000   0.00000   0.00000   0.00000
  32       14D 0        0.00000   0.00000   0.00000   0.00000   0.00000
  33       14D+1        0.00000   0.00000   0.00000   0.00000   0.00000
  34       14D-1        0.00000   0.00000   0.00000   0.00000   0.00000
  35       14D+2        0.00000   0.00000   0.00000   0.00000   0.00000
  36       14D-2        0.00000   0.00000   0.00000   0.00000   0.00000
  37       15F 0       -0.00000   0.00000  -0.00000  -0.00000   0.00000
  38       15F+1       -0.00000  -0.00000  -0.00000  -0.00000  -0.00000
  39       15F-1        0.00000  -0.00000   0.00000  -0.00000  -0.00000
  40       15F+2       -0.00000   0.00000  -0.00000  -0.00000  -0.00000
  41       15F-2       -0.00000  -0.00000   0.00000   0.00000  -0.00000
  42       15F+3       -0.00000   0.00000   0.00000   0.00000   0.00000
  43       15F-3        0.00000  -0.00000   0.00000   0.00000   0.00000
  44       16F 0       -0.00000   0.00000  -0.00000  -0.00000   0.00000
  45       16F+1       -0.00000   0.00000   0.00000  -0.00000  -0.00000
  46       16F-1        0.00000  -0.00000   0.00000   0.00000  -0.00000
  47       16F+2       -0.00000   0.00000  -0.00000  -0.00000   0.00000
  48       16F-2        0.00000   0.00000   0.00000  -0.00000   0.00000
  49       16F+3       -0.00000   0.00000   0.00000   0.00000  -0.00000
  50       16F-3        0.00000   0.00000   0.00000   0.00000   0.00000
                          16        17        18        19        20
  16       10PX         0.20742
  17       10PY         0.00000   0.20742
  18       10PZ         0.00000   0.00000   0.20742
  19       11PX         0.00828  -0.00000   0.00000   0.00073
  20       11PY         0.00000   0.00828   0.00000  -0.00000   0.00073
  21       11PZ         0.00000  -0.00000   0.00828  -0.00000  -0.00000
  22       12D 0        0.00000   0.00000   0.00000   0.00000   0.00000
  23       12D+1        0.00000   0.00000   0.00000   0.00000   0.00000
  24       12D-1        0.00000   0.00000   0.00000   0.00000   0.00000
  25       12D+2        0.00000   0.00000   0.00000   0.00000   0.00000
  26       12D-2        0.00000   0.00000   0.00000   0.00000   0.00000
  27       13D 0        0.00000   0.00000   0.00000   0.00000   0.00000
  28       13D+1        0.00000   0.00000   0.00000   0.00000   0.00000
  29       13D-1        0.00000   0.00000   0.00000   0.00000   0.00000
  30       13D+2        0.00000   0.00000   0.00000   0.00000   0.00000
  31       13D-2        0.00000   0.00000   0.00000   0.00000   0.00000
  32       14D 0        0.00000   0.00000   0.00000   0.00000   0.00000
  33       14D+1        0.00000   0.00000   0.00000   0.00000   0.00000
  34       14D-1        0.00000   0.00000   0.00000   0.00000   0.00000
  35       14D+2        0.00000   0.00000   0.00000   0.00000   0.00000
  36       14D-2        0.00000   0.00000   0.00000   0.00000   0.00000
  37       15F 0       -0.00000   0.00000  -0.00000   0.00000   0.00000
  38       15F+1       -0.00000   0.00000  -0.00000   0.00000   0.00000
  39       15F-1       -0.00000  -0.00000  -0.00000  -0.00000   0.00000
  40       15F+2       -0.00000  -0.00000  -0.00000  -0.00000  -0.00000
  41       15F-2        0.00000   0.00000   0.00000   0.00000   0.00000
  42       15F+3       -0.00000   0.00000   0.00000   0.00000   0.00000
  43       15F-3        0.00000  -0.00000   0.00000   0.00000   0.00000
  44       16F 0       -0.00000  -0.00000  -0.00000  -0.00000   0.00000
  45       16F+1       -0.00000  -0.00000   0.00000  -0.00000  -0.00000
  46       16F-1        0.00000  -0.00000  -0.00000  -0.00000  -0.00000
  47       16F+2       -0.00000  -0.00000   0.00000  -0.00000  -0.00000
  48       16F-2        0.00000  -0.00000   0.00000   0.00000   0.00000
  49       16F+3        0.00000   0.00000  -0.00000   0.00000   0.00000
  50       16F-3        0.00000   0.00000   0.00000   0.00000   0.00000
                          21        22        23        24        25
  21       11PZ         0.00073
  22       12D 0        0.00000   0.00000
  23       12D+1        0.00000  -0.00000   0.00000
  24       12D-1        0.00000  -0.00000  -0.00000   0.00000
  25       12D+2        0.00000   0.00000  -0.00000   0.00000   0.00000
  26       12D-2        0.00000   0.00000   0.00000   0.00000  -0.00000
  27       13D 0        0.00000  -0.00000  -0.00000  -0.00000  -0.00000
  28       13D+1        0.00000   0.00000  -0.00000  -0.00000  -0.00000
  29       13D-1        0.00000   0.00000   0.00000  -0.00000  -0.00000
  30       13D+2        0.00000  -0.00000  -0.00000  -0.00000  -0.00000
  31       13D-2        0.00000  -0.00000  -0.00000   0.00000   0.00000
  32       14D 0        0.00000  -0.00000   0.00000  -0.00000   0.00000
  33       14D+1        0.00000   0.00000   0.00000   0.00000   0.00000
  34       14D-1        0.00000  -0.00000  -0.00000  -0.00000   0.00000
  35       14D+2        0.00000   0.00000   0.00000   0.00000  -0.00000
  36       14D-2        0.00000  -0.00000   0.00000   0.00000  -0.00000
  37       15F 0        0.00000   0.00000   0.00000   0.00000   0.00000
  38       15F+1       -0.00000   0.00000   0.00000   0.00000   0.00000
  39       15F-1       -0.00000   0.00000   0.00000   0.00000   0.00000
  40       15F+2        0.00000   0.00000   0.00000   0.00000   0.00000
  41       15F-2       -0.00000   0.00000   0.00000   0.00000   0.00000
  42       15F+3        0.00000   0.00000   0.00000   0.00000   0.00000
  43       15F-3        0.00000   0.00000   0.00000   0.00000   0.00000
  44       16F 0        0.00000   0.00000   0.00000   0.00000   0.00000
  45       16F+1        0.00000   0.00000   0.00000   0.00000   0.00000
  46       16F-1       -0.00000   0.00000   0.00000   0.00000   0.00000
  47       16F+2       -0.00000   0.00000   0.00000   0.00000   0.00000
  48       16F-2        0.00000   0.00000   0.00000   0.00000   0.00000
  49       16F+3        0.00000   0.00000   0.00000   0.00000   0.00000
  50       16F-3        0.00000   0.00000   0.00000   0.00000   0.00000
                          26        27        28        29        30
  26       12D-2        0.00000
  27       13D 0        0.00000   0.00000
  28       13D+1       -0.00000  -0.00000   0.00000
  29       13D-1        0.00000  -0.00000  -0.00000   0.00000
  30       13D+2        0.00000   0.00000  -0.00000   0.00000   0.00000
  31       13D-2       -0.00000  -0.00000   0.00000  -0.00000   0.00000
  32       14D 0        0.00000  -0.00000   0.00000   0.00000  -0.00000
  33       14D+1        0.00000   0.00000  -0.00000  -0.00000  -0.00000
  34       14D-1       -0.00000   0.00000   0.00000  -0.00000   0.00000
  35       14D+2       -0.00000  -0.00000  -0.00000   0.00000  -0.00000
  36       14D-2        0.00000  -0.00000  -0.00000   0.00000  -0.00000
  37       15F 0        0.00000   0.00000   0.00000   0.00000   0.00000
  38       15F+1        0.00000   0.00000   0.00000   0.00000   0.00000
  39       15F-1        0.00000   0.00000   0.00000   0.00000   0.00000
  40       15F+2        0.00000   0.00000   0.00000   0.00000   0.00000
  41       15F-2        0.00000   0.00000   0.00000   0.00000   0.00000
  42       15F+3        0.00000   0.00000   0.00000   0.00000   0.00000
  43       15F-3        0.00000   0.00000   0.00000   0.00000   0.00000
  44       16F 0        0.00000   0.00000   0.00000   0.00000   0.00000
  45       16F+1        0.00000   0.00000   0.00000   0.00000   0.00000
  46       16F-1        0.00000   0.00000   0.00000   0.00000   0.00000
  47       16F+2        0.00000   0.00000   0.00000   0.00000   0.00000
  48       16F-2        0.00000   0.00000   0.00000   0.00000   0.00000
  49       16F+3        0.00000   0.00000   0.00000   0.00000   0.00000
  50       16F-3        0.00000   0.00000   0.00000   0.00000   0.00000
                          31        32        33        34        35
  31       13D-2        0.00000
  32       14D 0       -0.00000   0.00000
  33       14D+1        0.00000  -0.00000   0.00000
  34       14D-1        0.00000  -0.00000  -0.00000   0.00000
  35       14D+2        0.00000  -0.00000   0.00000   0.00000   0.00000
  36       14D-2       -0.00000  -0.00000   0.00000   0.00000   0.00000
  37       15F 0        0.00000   0.00000   0.00000   0.00000   0.00000
  38       15F+1        0.00000   0.00000   0.00000   0.00000   0.00000
  39       15F-1        0.00000   0.00000   0.00000   0.00000   0.00000
  40       15F+2        0.00000   0.00000   0.00000   0.00000   0.00000
  41       15F-2        0.00000   0.00000   0.00000   0.00000   0.00000
  42       15F+3        0.00000   0.00000   0.00000   0.00000   0.00000
  43       15F-3        0.00000   0.00000   0.00000   0.00000   0.00000
  44       16F 0        0.00000   0.00000   0.00000   0.00000   0.00000
  45       16F+1        0.00000   0.00000   0.00000   0.00000   0.00000
  46       16F-1        0.00000   0.00000   0.00000   0.00000   0.00000
  47       16F+2        0.00000   0.00000   0.00000   0.00000   0.00000
  48       16F-2        0.00000   0.00000   0.00000   0.00000   0.00000
  49       16F+3        0.00000   0.00000   0.00000   0.00000   0.00000
  50       16F-3        0.00000   0.00000   0.00000   0.00000   0.00000
                          36        37        38        39        40
  36       14D-2        0.00000
  37       15F 0        0.00000   0.00000
  38       15F+1        0.00000   0.00000   0.00000
  39       15F-1        0.00000   0.00000  -0.00000   0.00000
  40       15F+2        0.00000  -0.00000   0.00000   0.00000   0.00000
  41       15F-2        0.00000  -0.00000  -0.00000   0.00000  -0.00000
  42       15F+3        0.00000  -0.00000  -0.00000  -0.00000   0.00000
  43       15F-3        0.00000  -0.00000  -0.00000  -0.00000  -0.00000
  44       16F 0        0.00000   0.00000  -0.00000   0.00000   0.00000
  45       16F+1        0.00000  -0.00000   0.00000  -0.00000   0.00000
  46       16F-1        0.00000  -0.00000   0.00000   0.00000   0.00000
  47       16F+2        0.00000  -0.00000   0.00000  -0.00000  -0.00000
  48       16F-2        0.00000   0.00000   0.00000  -0.00000   0.00000
  49       16F+3        0.00000   0.00000  -0.00000  -0.00000   0.00000
  50       16F-3        0.00000  -0.00000  -0.00000  -0.00000  -0.00000
                          41        42        43        44        45
  41       15F-2        0.00000
  42       15F+3        0.00000   0.00000
  43       15F-3        0.00000  -0.00000   0.00000
  44       16F 0       -0.00000   0.00000  -0.00000   0.00000
  45       16F+1        0.00000  -0.00000  -0.00000  -0.00000   0.00000
  46       16F-1        0.00000  -0.00000  -0.00000   0.00000   0.00000
  47       16F+2       -0.00000  -0.00000  -0.00000   0.00000   0.00000
  48       16F-2        0.00000   0.00000  -0.00000   0.00000   0.00000
  49       16F+3        0.00000   0.00000   0.00000   0.00000   0.00000
  50       16F-3        0.00000  -0.00000   0.00000   0.00000  -0.00000
                          46        47        48        49        50
  46       16F-1        0.00000
  47       16F+2       -0.00000   0.00000
  48       16F-2        0.00000  -0.00000   0.00000
  49       16F+3       -0.00000   0.00000   0.00000   0.00000
  50       16F-3        0.00000   0.00000   0.00000   0.00000   0.00000
     Gross orbital populations:
                           1
   1 1   Ar 1S          2.00002
   2        2S          1.85834
   3        3S          1.19577
   4        4S          0.26130
   5        5S          0.67450
   6        6S          0.01007
   7        7PX         1.95968
   8        7PY         1.95968
   9        7PZ         1.95968
  10        8PX         1.03699
  11        8PY         1.03699
  12        8PZ         1.03699
  13        9PX         0.47186
  14        9PY         0.47186
  15        9PZ         0.47186
  16       10PX         0.51595
  17       10PY         0.51595
  18       10PZ         0.51595
  19       11PX         0.01552
  20       11PY         0.01552
  21       11PZ         0.01552
  22       12D 0        0.00000
  23       12D+1        0.00000
  24       12D-1        0.00000
  25       12D+2        0.00000
  26       12D-2        0.00000
  27       13D 0        0.00000
  28       13D+1        0.00000
  29       13D-1        0.00000
  30       13D+2        0.00000
  31       13D-2        0.00000
  32       14D 0        0.00000
  33       14D+1        0.00000
  34       14D-1        0.00000
  35       14D+2        0.00000
  36       14D-2        0.00000
  37       15F 0        0.00000
  38       15F+1        0.00000
  39       15F-1        0.00000
  40       15F+2        0.00000
  41       15F-2        0.00000
  42       15F+3        0.00000
  43       15F-3        0.00000
  44       16F 0        0.00000
  45       16F+1        0.00000
  46       16F-1        0.00000
  47       16F+2        0.00000
  48       16F-2        0.00000
  49       16F+3        0.00000
  50       16F-3        0.00000
          Condensed to atoms (all electrons):
               1
     1  Ar  18.000000
 Mulliken charges:
               1
     1  Ar  -0.000000
 Sum of Mulliken charges =  -0.00000
 Mulliken charges with hydrogens summed into heavy atoms:
               1
     1  Ar  -0.000000
 Electronic spatial extent (au):  <R**2>=             26.2347
 Charge=             -0.0000 electrons
 Dipole moment (field-independent basis, Debye):
    X=              0.0000    Y=              0.0000    Z=              0.0000  Tot=              0.0000
 Quadrupole moment (field-independent basis, Debye-Ang):
   XX=            -11.7622   YY=            -11.7622   ZZ=            -11.7622
   XY=              0.0000   XZ=              0.0000   YZ=             -0.0000
 Traceless Quadrupole moment (field-independent basis, Debye-Ang):
   XX=              0.0000   YY=              0.0000   ZZ=              0.0000
   XY=              0.0000   XZ=              0.0000   YZ=             -0.0000
 Octapole moment (field-independent basis, Debye-Ang**2):
  XXX=              0.0000  YYY=              0.0000  ZZZ=              0.0000  XYY=              0.0000
  XXY=              0.0000  XXZ=              0.0000  XZZ=              0.0000  YZZ=              0.0000
  YYZ=              0.0000  XYZ=              0.0000
 Hexadecapole moment (field-independent basis, Debye-Ang**3):
 XXXX=            -11.4030 YYYY=            -11.4030 ZZZZ=            -11.4030 XXXY=              0.0000
 XXXZ=             -0.0000 YYYX=             -0.0000 YYYZ=              0.0000 ZZZX=              0.0000
 ZZZY=             -0.0000 XXYY=             -3.8010 XXZZ=             -3.8010 YYZZ=             -3.8010
 XXYZ=             -0.0000 YYXZ=              0.0000 ZZXY=             -0.0000
 N-N= 0.000000000000D+00 E-N=-1.254448481765D+03  KE= 5.262146472922D+02
 Symmetry AG   KE= 3.655796092985D+02
 Symmetry B1G  KE= 3.239099406662D-61
 Symmetry B2G  KE= 3.770343335769D-61
 Symmetry B3G  KE= 2.507928605091D-61
 Symmetry AU   KE= 2.585241063617D-53
 Symmetry B1U  KE= 5.354501266457D+01
 Symmetry B2U  KE= 5.354501266457D+01
 Symmetry B3U  KE= 5.354501266457D+01
 Orbital energies and kinetic energies (alpha):
                                 1                 2
   1         (A1G)--O       -115.121549        154.044809
   2         (A1G)--O        -11.145049         24.731680
   3         (T1U)--O         -8.696196         23.791528
   4         (T1U)--O         -8.696196         23.791528
   5         (T1U)--O         -8.696196         23.791528
   6         (A1G)--O         -0.971314          4.013316
   7         (T1U)--O         -0.429285          2.980978
   8         (T1U)--O         -0.429285          2.980978
   9         (T1U)--O         -0.429285          2.980978
  10         (A1G)--V          0.048039          0.574305
  11         (T1U)--V          0.072713          0.367231
  12         (T1U)--V          0.072713          0.367231
  13         (T1U)--V          0.072713          0.367231
  14         (T2G)--V          0.263877          0.781505
  15         (T2G)--V          0.263877          0.781505
  16         (T2G)--V          0.263877          0.781505
  17         (EG)--V           0.263877          0.781505
  18         (EG)--V           0.263877          0.781505
  19         (T1U)--V          0.547730          1.954021
  20         (T1U)--V          0.547730          1.954021
  21         (T1U)--V          0.547730          1.954021
  22         (T2G)--V          0.829627          2.088956
  23         (T2G)--V          0.829627          2.088956
  24         (T2G)--V          0.829627          2.088956
  25         (EG)--V           0.829627          2.088956
  26         (EG)--V           0.829627          2.088956
  27         (A1G)--V          0.856017          3.719847
  28         (T2U)--V          1.258120          1.709184
  29         (T2U)--V          1.258120          1.709184
  30         (T2U)--V          1.258120          1.709184
  31         (A2U)--V          1.258120          1.709184
  32         (T1U)--V          1.258120          1.709184
  33         (T1U)--V          1.258120          1.709184
  34         (T1U)--V          1.258120          1.709184
  35         (T2G)--V          2.533602          5.044170
  36         (T2G)--V          2.533602          5.044170
  37         (T2G)--V          2.533602          5.044170
  38         (EG)--V           2.533602          5.044170
  39         (EG)--V           2.533602          5.044170
  40         (T1U)--V          2.642584          9.789035
  41         (T1U)--V          2.642584          9.789035
  42         (T1U)--V          2.642584          9.789035
  43         (T2U)--V          3.398761          4.964955
  44         (T2U)--V          3.398761          4.964955
  45         (T2U)--V          3.398761          4.964955
  46         (A2U)--V          3.398761          4.964955
  47         (T1U)--V          3.398761          4.964955
  48         (T1U)--V          3.398761          4.964955
  49         (T1U)--V          3.398761          4.964955
  50         (A1G)--V          5.538114         17.261945
 Total kinetic energy from orbitals= 5.262146472922D+02
 1\1\GINC-LOGIN\SP\RB3LYP\Aug-CC-pVTZ\Ar1\C7441090\20-Nov-2023\0\\# B3L
 YP/aug-cc-pVTZ EmpiricalDispersion=GD3 Pop=Full\\Argon\\0,1\Ar,0,0.,0.
 ,0.\\Version=ES64L-G16RevA.03\State=1-A1G\HF=-527.560002\RMSD=6.728e-0
 9\Dipole=0.,0.,0.\Quadrupole=0.,0.,0.,0.,0.,0.\PG=OH [O(Ar1)]\\@


 The most important thing in communication is to hear what isn't being said.
 -- Peter F. Drucker
 Job cpu time:       0 days  0 hours  0 minutes  7.1 seconds.
 Elapsed time:       0 days  0 hours  0 minutes  3.7 seconds.
 File lengths (MBytes):  RWF=      5 Int=      0 D2E=      0 Chk=      1 Scr=      1
 Normal termination of Gaussian 16 at Mon Nov 20 23:50:52 2023.
