Boron                                                                   
SP        UB3LYP                                                      Aug-CC-pVTZ         
Number of atoms                            I                1
Info1-9                                    I   N=           9
          12          11           0           0           0         110
           1          18        -502
Full Title                                 C   N=           1
Boron       
Route                                      C   N=           5
# B3LYP/aug-cc-pVTZ EmpiricalDispersion=GD3 Pop=Full        
Charge                                     I                0
Multiplicity                               I                2
Number of electrons                        I                5
Number of alpha electrons                  I                3
Number of beta electrons                   I                2
Number of basis functions                  I               46
Number of independent functions            I               46
Number of point charges in /Mol/           I                0
Number of translation vectors              I                0
Atomic numbers                             I   N=           1
           5
Nuclear charges                            R   N=           1
  5.00000000E+00
Current cartesian coordinates              R   N=           3
  0.00000000E+00  0.00000000E+00  0.00000000E+00
Number of symbols in /Mol/                 I                0
Force Field                                I                0
Atom Types                                 C   N=           1
            
Int Atom Types                             I   N=           1
           0
MM charges                                 R   N=           1
  0.00000000E+00
Integer atomic weights                     I   N=           1
          11
Real atomic weights                        R   N=           1
  1.10093053E+01
Atom fragment info                         I   N=           1
           0
Atom residue num                           I   N=           1
           0
Nuclear spins                              I   N=           1
           3
Nuclear ZEff                               R   N=           1
 -2.75000000E+00
Nuclear ZNuc                               R   N=           1
  5.00000000E+00
Nuclear QMom                               R   N=           1
  4.05900000E+00
Nuclear GFac                               R   N=           1
  2.68863700E+00
MicOpt                                     I   N=           1
          -1
Number of residues                         I                0
Number of secondary structures             I                0
SymInf integers                            I   N=          26
           1           8           1           1           1           1
          -1          -1          -1           1          -1          -1
          -1           1          -1          -1          -1          -1
           1           1           1          -1           1           1
           1          -1
RotTr to input orientation                 R   N=          12
  0.00000000E+00  0.00000000E+00 -1.00000000E+00  0.00000000E+00  1.00000000E+00
  0.00000000E+00  1.00000000E+00  0.00000000E+00  0.00000000E+00  0.00000000E+00
  0.00000000E+00  0.00000000E+00
Number of contracted shells                I               14
Number of primitive shells                 I               27
Pure/Cartesian d shells                    I                0
Pure/Cartesian f shells                    I                0
Highest angular momentum                   I                3
Largest degree of contraction              I                7
Shell types                                I   N=          14
           0           0           0           0           0           1
           1           1           1          -2          -2          -2
          -3          -3
Number of primitives per shell             I   N=          14
           7           6           1           1           1           3
           1           1           1           1           1           1
           1           1
Shell to atom map                          I   N=          14
           1           1           1           1           1           1
           1           1           1           1           1           1
           1           1
Primitive exponents                        R   N=          27
  5.47300000E+03  8.20900000E+02  1.86800000E+02  5.28300000E+01  1.70800000E+01
  5.99900000E+00  2.20800000E+00  1.86800000E+02  5.28300000E+01  1.70800000E+01
  5.99900000E+00  2.20800000E+00  2.41500000E-01  5.87900000E-01  8.61000000E-02
  2.91400000E-02  1.20500000E+01  2.61300000E+00  7.47500000E-01  2.38500000E-01
  7.69800000E-02  2.09600000E-02  6.61000000E-01  1.99000000E-01  6.04000000E-02
  4.90000000E-01  1.63000000E-01
Contraction coefficients                   R   N=          27
  5.65427567E-04  4.37158720E-03  2.23604922E-02  8.60169921E-02  2.42949111E-01
  4.42735475E-01  3.46794954E-01 -7.95883004E-05 -1.08704786E-03 -9.72063443E-03
 -5.59767619E-02 -1.74541868E-01  1.07278281E+00  1.00000000E+00  1.00000000E+00
  1.00000000E+00  3.89268857E-02  2.37086633E-01  8.22797090E-01  1.00000000E+00
  1.00000000E+00  1.00000000E+00  1.00000000E+00  1.00000000E+00  1.00000000E+00
  1.00000000E+00  1.00000000E+00
Coordinates of each shell                  R   N=          42
  0.00000000E+00  0.00000000E+00  0.00000000E+00  0.00000000E+00  0.00000000E+00
  0.00000000E+00  0.00000000E+00  0.00000000E+00  0.00000000E+00  0.00000000E+00
  0.00000000E+00  0.00000000E+00  0.00000000E+00  0.00000000E+00  0.00000000E+00
  0.00000000E+00  0.00000000E+00  0.00000000E+00  0.00000000E+00  0.00000000E+00
  0.00000000E+00  0.00000000E+00  0.00000000E+00  0.00000000E+00  0.00000000E+00
  0.00000000E+00  0.00000000E+00  0.00000000E+00  0.00000000E+00  0.00000000E+00
  0.00000000E+00  0.00000000E+00  0.00000000E+00  0.00000000E+00  0.00000000E+00
  0.00000000E+00  0.00000000E+00  0.00000000E+00  0.00000000E+00  0.00000000E+00
  0.00000000E+00  0.00000000E+00
Num ILSW                                   I              100
ILSW                                       I   N=         100
           1           0           0           0           2           0
           0           0           0           0         402          -1
           5           0           0           0           0           0
           0           0           1           0           0           0
           1           0           0           0           0           0
           0           0      100000           0          -1           0
           0           0           0           0           0           0
           0           0           0           1           0           0
           0 -2000000000           1           0           0           0
           0           1         131          52           0           0
           0           0           5           0           0           0
           0           0           0           0           0           1
           0           0           0           0           0           0
           0           0           0           0           0           0
           0           0           0           0           0           0
           0           0           0           0           0           0
           0           0           0           0
Num RLSW                                   I               52
RLSW                                       R   N=          52
  8.00000000E-01  7.20000000E-01  1.00000000E+00  8.10000000E-01  2.00000000E-01
  0.00000000E+00  0.00000000E+00  1.00000000E+00  0.00000000E+00  0.00000000E+00
  0.00000000E+00  0.00000000E+00  1.00000000E+00  0.00000000E+00  0.00000000E+00
  0.00000000E+00  0.00000000E+00  1.00000000E+00  0.00000000E+00  0.00000000E+00
  0.00000000E+00  0.00000000E+00  1.00000000E+00  0.00000000E+00  0.00000000E+00
  0.00000000E+00  0.00000000E+00  1.00000000E+00  0.00000000E+00  0.00000000E+00
  0.00000000E+00  0.00000000E+00  1.00000000E+00  0.00000000E+00  0.00000000E+00
  0.00000000E+00  0.00000000E+00  0.00000000E+00  1.00000000E+00  1.00000000E+00
  0.00000000E+00  1.00000000E+00  0.00000000E+00  0.00000000E+00  0.00000000E+00
  0.00000000E+00  0.00000000E+00  0.00000000E+00  0.00000000E+00  0.00000000E+00
  0.00000000E+00  0.00000000E+00
MxBond                                     I                1
NBond                                      I   N=           1
           0
IBond                                      I   N=           1
           0
RBond                                      R   N=           1
  0.00000000E+00
Virial Ratio                               R      2.008385922232123E+00
SCF Energy                                 R     -2.466389155726270E+01
Total Energy                               R     -2.466389155726270E+01
S**2                                       R      7.535272395198442E-01
S**2 after annihilation                    R      7.500000107980728E-01
RMS Density                                R      8.140307978089917E-09
Job Status                                 I                1
Nuclear derivative order                   I                0
External E-field                           R   N=          35
  0.00000000E+00  0.00000000E+00  0.00000000E+00  0.00000000E+00  0.00000000E+00
  0.00000000E+00  0.00000000E+00  0.00000000E+00  0.00000000E+00  0.00000000E+00
  0.00000000E+00  0.00000000E+00  0.00000000E+00  0.00000000E+00  0.00000000E+00
  0.00000000E+00  0.00000000E+00  0.00000000E+00  0.00000000E+00  0.00000000E+00
  0.00000000E+00  0.00000000E+00  0.00000000E+00  0.00000000E+00  0.00000000E+00
  0.00000000E+00  0.00000000E+00  0.00000000E+00  0.00000000E+00  0.00000000E+00
  0.00000000E+00  0.00000000E+00  0.00000000E+00  0.00000000E+00  0.00000000E+00
IOpCl                                      I                1
IROHF                                      I                0
Alpha Orbital Energies                     R   N=          46
 -6.86094033E+00 -3.95950957E-01 -1.89721041E-01 -9.87185710E-02 -9.87185710E-02
  1.81658400E-02  2.81683495E-02  3.49202142E-02  3.49202142E-02  1.23993302E-01
  1.23993302E-01  1.26825637E-01  1.28991808E-01  1.28998203E-01  2.38283564E-01
  2.54087262E-01  2.54087262E-01  3.77302050E-01  5.11602477E-01  5.11602477E-01
  5.15520089E-01  5.22200808E-01  5.22203441E-01  5.53839981E-01  5.53839989E-01
  5.55767522E-01  5.56197562E-01  5.56197562E-01  5.57947915E-01  5.57947915E-01
  1.23982857E+00  1.26155440E+00  1.26155440E+00  1.84443914E+00  1.84443914E+00
  1.85058462E+00  1.86708086E+00  1.86708135E+00  1.97092532E+00  1.97092533E+00
  1.97332847E+00  1.97438380E+00  1.97438380E+00  1.98229662E+00  1.98229662E+00
  2.81062216E+00
Beta Orbital Energies                      R   N=          46
 -6.85141173E+00 -3.53399188E-01 -9.01426657E-02 -9.01426657E-02 -5.63452972E-02
  2.11897126E-02  3.52338978E-02  3.52338978E-02  3.98745213E-02  1.27315282E-01
  1.27315297E-01  1.30352382E-01  1.30352382E-01  1.33161244E-01  2.57151276E-01
  2.57151276E-01  2.77150454E-01  3.94018516E-01  5.23132816E-01  5.23132822E-01
  5.43257948E-01  5.43257948E-01  5.50535513E-01  5.55464738E-01  5.55464738E-01
  5.64181075E-01  5.64181075E-01  5.69984237E-01  5.69984237E-01  5.72077759E-01
  1.26581628E+00  1.26581628E+00  1.29875838E+00  1.86666641E+00  1.86666641E+00
  1.90015798E+00  1.90015798E+00  1.91106649E+00  1.97896678E+00  1.97896678E+00
  2.00320901E+00  2.00320901E+00  2.01716742E+00  2.01716742E+00  2.02231826E+00
  2.82811264E+00
Alpha MO coefficients                      R   N=        2116
  9.74187469E-01 -1.33157269E-02  5.14615709E-02  3.65009505E-03 -6.79235638E-04
  0.00000000E+00  0.00000000E+00  0.00000000E+00  0.00000000E+00  0.00000000E+00
  0.00000000E+00  0.00000000E+00  0.00000000E+00  0.00000000E+00  0.00000000E+00
  0.00000000E+00  0.00000000E+00 -4.12170477E-04  0.00000000E+00  0.00000000E+00
  7.13900207E-04  0.00000000E+00  9.82369264E-05  0.00000000E+00  0.00000000E+00
 -1.70151348E-04  0.00000000E+00 -4.79106027E-05  0.00000000E+00  0.00000000E+00
  8.29835982E-05  0.00000000E+00  0.00000000E+00  0.00000000E+00  0.00000000E+00
  0.00000000E+00  0.00000000E+00  0.00000000E+00  0.00000000E+00  0.00000000E+00
  0.00000000E+00  0.00000000E+00  0.00000000E+00  0.00000000E+00  0.00000000E+00
  0.00000000E+00 -2.14428728E-01  5.55510564E-01  1.43272080E-01  3.91462944E-01
  2.49815316E-03  0.00000000E+00  0.00000000E+00  0.00000000E+00  0.00000000E+00
  0.00000000E+00  0.00000000E+00  0.00000000E+00  0.00000000E+00  0.00000000E+00
  0.00000000E+00  0.00000000E+00  0.00000000E+00 -5.71205826E-03  0.00000000E+00
  0.00000000E+00  9.89357513E-03  0.00000000E+00 -5.53141268E-03  0.00000000E+00
  0.00000000E+00  9.58068781E-03  0.00000000E+00 -1.91385768E-03  0.00000000E+00
  0.00000000E+00  3.31489875E-03  0.00000000E+00  0.00000000E+00  0.00000000E+00
  0.00000000E+00  0.00000000E+00  0.00000000E+00  0.00000000E+00  0.00000000E+00
  0.00000000E+00  0.00000000E+00  0.00000000E+00  0.00000000E+00  0.00000000E+00
  0.00000000E+00  0.00000000E+00  0.00000000E+00  0.00000000E+00  0.00000000E+00
  0.00000000E+00  0.00000000E+00  3.62654663E-01  0.00000000E+00  0.00000000E+00
  4.81573386E-01  0.00000000E+00  0.00000000E+00  3.43950607E-01  0.00000000E+00
  0.00000000E+00  2.90464907E-02  0.00000000E+00  0.00000000E+00  0.00000000E+00
  0.00000000E+00  0.00000000E+00  0.00000000E+00  0.00000000E+00  0.00000000E+00
  0.00000000E+00  0.00000000E+00  0.00000000E+00  0.00000000E+00  0.00000000E+00
  0.00000000E+00  0.00000000E+00  0.00000000E+00  0.00000000E+00  0.00000000E+00
 -1.19519638E-03  0.00000000E+00  0.00000000E+00  0.00000000E+00  1.54299190E-03
  0.00000000E+00  0.00000000E+00  1.44374318E-06  0.00000000E+00  0.00000000E+00
  0.00000000E+00 -1.86386443E-06  0.00000000E+00  0.00000000E+00  0.00000000E+00
  0.00000000E+00  0.00000000E+00  0.00000000E+00  0.00000000E+00  0.00000000E+00
  3.16766052E-01  0.00000000E+00  0.00000000E+00  4.31157346E-01  0.00000000E+00
  0.00000000E+00  4.11988568E-01  0.00000000E+00  0.00000000E+00  9.04211440E-02
  0.00000000E+00  0.00000000E+00  0.00000000E+00  0.00000000E+00  0.00000000E+00
  0.00000000E+00  0.00000000E+00  0.00000000E+00  0.00000000E+00  0.00000000E+00
  0.00000000E+00  0.00000000E+00  0.00000000E+00  0.00000000E+00  0.00000000E+00
 -2.71285259E-03  0.00000000E+00  0.00000000E+00  3.50230629E-03  0.00000000E+00
  0.00000000E+00  0.00000000E+00 -2.06585737E-03  0.00000000E+00  0.00000000E+00
  2.66690702E-03  0.00000000E+00  0.00000000E+00  0.00000000E+00  0.00000000E+00
  0.00000000E+00  0.00000000E+00  0.00000000E+00  0.00000000E+00  0.00000000E+00
  3.16766052E-01  0.00000000E+00  0.00000000E+00  4.31157346E-01  0.00000000E+00
  0.00000000E+00  4.11988568E-01  0.00000000E+00  0.00000000E+00  9.04211440E-02
  0.00000000E+00  0.00000000E+00  0.00000000E+00  0.00000000E+00  0.00000000E+00
  0.00000000E+00  0.00000000E+00  0.00000000E+00  0.00000000E+00  0.00000000E+00
  0.00000000E+00  0.00000000E+00  0.00000000E+00  0.00000000E+00  0.00000000E+00
  0.00000000E+00  0.00000000E+00  0.00000000E+00 -1.10754009E-03  0.00000000E+00
  0.00000000E+00  0.00000000E+00  4.28941412E-03  0.00000000E+00  0.00000000E+00
 -8.43301014E-04  0.00000000E+00  0.00000000E+00  0.00000000E+00  3.26634401E-03
  7.77154559E-02 -1.46303834E-01 -6.43121525E-02 -8.56603265E-01  1.54535647E+00
  0.00000000E+00  0.00000000E+00  0.00000000E+00  0.00000000E+00  0.00000000E+00
  0.00000000E+00  0.00000000E+00  0.00000000E+00  0.00000000E+00  0.00000000E+00
  0.00000000E+00  0.00000000E+00  1.20949556E-03  0.00000000E+00  0.00000000E+00
 -2.09490776E-03  0.00000000E+00  1.92354563E-03  0.00000000E+00  0.00000000E+00
 -3.33167876E-03  0.00000000E+00 -9.64038912E-03  0.00000000E+00  0.00000000E+00
  1.66976438E-02  0.00000000E+00  0.00000000E+00  0.00000000E+00  0.00000000E+00
  0.00000000E+00  0.00000000E+00  0.00000000E+00  0.00000000E+00  0.00000000E+00
  0.00000000E+00  0.00000000E+00  0.00000000E+00  0.00000000E+00  0.00000000E+00
  0.00000000E+00  0.00000000E+00  0.00000000E+00  0.00000000E+00  0.00000000E+00
  0.00000000E+00 -1.18521641E-01  0.00000000E+00  0.00000000E+00 -1.24457818E-01
  0.00000000E+00  0.00000000E+00 -2.61707080E-01  0.00000000E+00  0.00000000E+00
  1.12172646E+00  0.00000000E+00  0.00000000E+00  0.00000000E+00  0.00000000E+00
  0.00000000E+00  0.00000000E+00  0.00000000E+00  0.00000000E+00  0.00000000E+00
  0.00000000E+00  0.00000000E+00  0.00000000E+00  0.00000000E+00  0.00000000E+00
  0.00000000E+00  0.00000000E+00  0.00000000E+00  0.00000000E+00  2.11784666E-04
  0.00000000E+00  0.00000000E+00  0.00000000E+00 -2.73412828E-04  0.00000000E+00
  0.00000000E+00  2.51036271E-04  0.00000000E+00  0.00000000E+00  0.00000000E+00
 -3.24086433E-04  0.00000000E+00  0.00000000E+00  0.00000000E+00  0.00000000E+00
  0.00000000E+00  0.00000000E+00  0.00000000E+00  0.00000000E+00 -1.35295380E-01
  0.00000000E+00  0.00000000E+00 -1.46793962E-01  0.00000000E+00  0.00000000E+00
 -3.43815013E-01  0.00000000E+00  0.00000000E+00  1.13726705E+00  0.00000000E+00
  0.00000000E+00  0.00000000E+00  0.00000000E+00  0.00000000E+00  0.00000000E+00
  0.00000000E+00  0.00000000E+00  0.00000000E+00  0.00000000E+00  0.00000000E+00
  0.00000000E+00  0.00000000E+00  0.00000000E+00  0.00000000E+00  1.15369810E-03
  0.00000000E+00  0.00000000E+00 -1.48928153E-03  0.00000000E+00  0.00000000E+00
  0.00000000E+00 -4.46825157E-04  0.00000000E+00  0.00000000E+00  5.76246848E-04
  0.00000000E+00  0.00000000E+00  0.00000000E+00  0.00000000E+00  0.00000000E+00
  0.00000000E+00  0.00000000E+00  0.00000000E+00  0.00000000E+00 -1.35295380E-01
  0.00000000E+00  0.00000000E+00 -1.46793962E-01  0.00000000E+00  0.00000000E+00
 -3.43815013E-01  0.00000000E+00  0.00000000E+00  1.13726705E+00  0.00000000E+00
  0.00000000E+00  0.00000000E+00  0.00000000E+00  0.00000000E+00  0.00000000E+00
  0.00000000E+00  0.00000000E+00  0.00000000E+00  0.00000000E+00  0.00000000E+00
  0.00000000E+00  0.00000000E+00  0.00000000E+00  0.00000000E+00  0.00000000E+00
  0.00000000E+00  0.00000000E+00  4.70887514E-04  0.00000000E+00  0.00000000E+00
  0.00000000E+00 -1.82407339E-03  0.00000000E+00  0.00000000E+00 -1.81939723E-04
  0.00000000E+00  0.00000000E+00  0.00000000E+00  7.06123989E-04  0.00000000E+00
  0.00000000E+00  0.00000000E+00  0.00000000E+00  0.00000000E+00  0.00000000E+00
  0.00000000E+00  0.00000000E+00  0.00000000E+00  0.00000000E+00  0.00000000E+00
  0.00000000E+00  0.00000000E+00  0.00000000E+00  0.00000000E+00  0.00000000E+00
  0.00000000E+00  0.00000000E+00  0.00000000E+00  0.00000000E+00  0.00000000E+00
  3.47944015E-02  0.00000000E+00  0.00000000E+00  0.00000000E+00  0.00000000E+00
 -3.01091801E-02  0.00000000E+00  0.00000000E+00  0.00000000E+00  0.00000000E+00
  1.01191157E+00  0.00000000E+00  0.00000000E+00  0.00000000E+00  0.00000000E+00
  0.00000000E+00  0.00000000E+00  0.00000000E+00  0.00000000E+00  0.00000000E+00
  0.00000000E+00  0.00000000E+00  0.00000000E+00  0.00000000E+00  0.00000000E+00
  0.00000000E+00  0.00000000E+00  0.00000000E+00  0.00000000E+00  0.00000000E+00
  0.00000000E+00  0.00000000E+00  0.00000000E+00  0.00000000E+00  0.00000000E+00
  0.00000000E+00  0.00000000E+00  0.00000000E+00  0.00000000E+00  0.00000000E+00
  0.00000000E+00  0.00000000E+00  0.00000000E+00  3.47944015E-02  0.00000000E+00
  0.00000000E+00  0.00000000E+00  0.00000000E+00 -3.01091801E-02  0.00000000E+00
  0.00000000E+00  0.00000000E+00  0.00000000E+00  1.01191157E+00  0.00000000E+00
  0.00000000E+00  0.00000000E+00  0.00000000E+00  0.00000000E+00  0.00000000E+00
  0.00000000E+00  0.00000000E+00  0.00000000E+00  0.00000000E+00  0.00000000E+00
  0.00000000E+00  0.00000000E+00  0.00000000E+00  0.00000000E+00  0.00000000E+00
  0.00000000E+00  1.16475912E-03 -1.55915351E-03 -3.89763677E-04  5.90289275E-03
 -2.42473986E-02  0.00000000E+00  0.00000000E+00  0.00000000E+00  0.00000000E+00
  0.00000000E+00  0.00000000E+00  0.00000000E+00  0.00000000E+00  0.00000000E+00
  0.00000000E+00  0.00000000E+00  0.00000000E+00 -1.74159738E-02  0.00000000E+00
  0.00000000E+00  3.01653515E-02  0.00000000E+00  1.51442551E-02  0.00000000E+00
  0.00000000E+00 -2.62306193E-02  0.00000000E+00 -5.05897841E-01  0.00000000E+00
  0.00000000E+00  8.76240764E-01  0.00000000E+00  0.00000000E+00  0.00000000E+00
  0.00000000E+00  0.00000000E+00  0.00000000E+00  0.00000000E+00  0.00000000E+00
  0.00000000E+00  0.00000000E+00  0.00000000E+00  0.00000000E+00  0.00000000E+00
  0.00000000E+00  0.00000000E+00  0.00000000E+00  0.00000000E+00  0.00000000E+00
  0.00000000E+00  0.00000000E+00  0.00000000E+00  0.00000000E+00  0.00000000E+00
  0.00000000E+00  0.00000000E+00  0.00000000E+00  0.00000000E+00  0.00000000E+00
  0.00000000E+00  0.00000000E+00  0.00000000E+00  0.00000000E+00  0.00000000E+00
  0.00000000E+00  3.29741637E-02  0.00000000E+00  0.00000000E+00  0.00000000E+00
  0.00000000E+00 -3.64816748E-02  0.00000000E+00  0.00000000E+00  0.00000000E+00
  0.00000000E+00  1.01566904E+00  0.00000000E+00  0.00000000E+00  0.00000000E+00
  0.00000000E+00  0.00000000E+00  0.00000000E+00  0.00000000E+00  0.00000000E+00
  0.00000000E+00  0.00000000E+00  0.00000000E+00  0.00000000E+00  0.00000000E+00
  0.00000000E+00  0.00000000E+00  0.00000000E+00  1.74226763E-16 -4.79181624E-16
 -2.05440986E-16 -6.37340698E-16  1.33961824E-15  0.00000000E+00  0.00000000E+00
  0.00000000E+00  0.00000000E+00  0.00000000E+00  0.00000000E+00  0.00000000E+00
  0.00000000E+00  0.00000000E+00  0.00000000E+00  0.00000000E+00  0.00000000E+00
  2.85552961E-02  0.00000000E+00  0.00000000E+00  1.64864079E-02  0.00000000E+00
 -3.15823847E-02  0.00000000E+00  0.00000000E+00 -1.82340983E-02  0.00000000E+00
  8.79588987E-01  0.00000000E+00  0.00000000E+00  5.07830939E-01  0.00000000E+00
  0.00000000E+00  0.00000000E+00  0.00000000E+00  0.00000000E+00  0.00000000E+00
  0.00000000E+00  0.00000000E+00  0.00000000E+00  0.00000000E+00  0.00000000E+00
  0.00000000E+00  0.00000000E+00  0.00000000E+00  0.00000000E+00  0.00000000E+00
  0.00000000E+00  0.00000000E+00  0.00000000E+00  0.00000000E+00 -2.68189278E-01
  0.00000000E+00  0.00000000E+00 -8.39573411E-01  0.00000000E+00  0.00000000E+00
  1.61758424E+00  0.00000000E+00  0.00000000E+00 -7.13549936E-01  0.00000000E+00
  0.00000000E+00  0.00000000E+00  0.00000000E+00  0.00000000E+00  0.00000000E+00
  0.00000000E+00  0.00000000E+00  0.00000000E+00  0.00000000E+00  0.00000000E+00
  0.00000000E+00  0.00000000E+00  0.00000000E+00  0.00000000E+00  0.00000000E+00
  0.00000000E+00  0.00000000E+00  3.02453613E-04  0.00000000E+00  0.00000000E+00
  0.00000000E+00 -3.90465935E-04  0.00000000E+00  0.00000000E+00  2.12098577E-03
  0.00000000E+00  0.00000000E+00  0.00000000E+00 -2.73818085E-03  0.00000000E+00
  0.00000000E+00  0.00000000E+00  0.00000000E+00  0.00000000E+00  0.00000000E+00
  0.00000000E+00 -2.77807651E-01  0.00000000E+00  0.00000000E+00 -8.96483485E-01
  0.00000000E+00  0.00000000E+00  1.59494325E+00  0.00000000E+00  0.00000000E+00
 -6.85063965E-01  0.00000000E+00  0.00000000E+00  0.00000000E+00  0.00000000E+00
  0.00000000E+00  0.00000000E+00  0.00000000E+00  0.00000000E+00  0.00000000E+00
  0.00000000E+00  0.00000000E+00  0.00000000E+00  0.00000000E+00  0.00000000E+00
  0.00000000E+00  0.00000000E+00  0.00000000E+00  0.00000000E+00  1.00502459E-03
  0.00000000E+00  0.00000000E+00  0.00000000E+00 -3.89234753E-03  0.00000000E+00
  0.00000000E+00 -1.14760625E-03  0.00000000E+00  0.00000000E+00  0.00000000E+00
  4.44417902E-03  0.00000000E+00  0.00000000E+00  0.00000000E+00  0.00000000E+00
  0.00000000E+00  0.00000000E+00  0.00000000E+00 -2.77807651E-01  0.00000000E+00
  0.00000000E+00 -8.96483485E-01  0.00000000E+00  0.00000000E+00  1.59494325E+00
  0.00000000E+00  0.00000000E+00 -6.85063965E-01  0.00000000E+00  0.00000000E+00
  0.00000000E+00  0.00000000E+00  0.00000000E+00  0.00000000E+00  0.00000000E+00
  0.00000000E+00  0.00000000E+00  0.00000000E+00  0.00000000E+00  0.00000000E+00
  0.00000000E+00  0.00000000E+00  0.00000000E+00  2.46172156E-03  0.00000000E+00
  0.00000000E+00 -3.17810804E-03  0.00000000E+00  0.00000000E+00  0.00000000E+00
 -2.81066958E-03  0.00000000E+00  0.00000000E+00  3.62875513E-03  0.00000000E+00
  0.00000000E+00  0.00000000E+00  5.35494166E-02 -1.54321499E+00 -4.09417312E-01
  2.85655952E+00 -1.29185820E+00  0.00000000E+00  0.00000000E+00  0.00000000E+00
  0.00000000E+00  0.00000000E+00  0.00000000E+00  0.00000000E+00  0.00000000E+00
  0.00000000E+00  0.00000000E+00  0.00000000E+00  0.00000000E+00  4.62805010E-03
  0.00000000E+00  0.00000000E+00 -8.01601791E-03  0.00000000E+00  3.53621481E-03
  0.00000000E+00  0.00000000E+00 -6.12490372E-03  0.00000000E+00 -3.26530527E-03
  0.00000000E+00  0.00000000E+00  5.65567463E-03  0.00000000E+00  0.00000000E+00
  0.00000000E+00  0.00000000E+00  0.00000000E+00  0.00000000E+00  0.00000000E+00
  0.00000000E+00  0.00000000E+00  0.00000000E+00  0.00000000E+00  0.00000000E+00
  0.00000000E+00  0.00000000E+00  0.00000000E+00  0.00000000E+00  0.00000000E+00
  0.00000000E+00  0.00000000E+00  0.00000000E+00  0.00000000E+00  0.00000000E+00
  0.00000000E+00  0.00000000E+00  0.00000000E+00  0.00000000E+00  0.00000000E+00
  0.00000000E+00  0.00000000E+00  0.00000000E+00  0.00000000E+00  0.00000000E+00
  0.00000000E+00  2.13865815E-03  0.00000000E+00  0.00000000E+00  0.00000000E+00
  0.00000000E+00  1.20091351E+00  0.00000000E+00  0.00000000E+00  0.00000000E+00
  0.00000000E+00 -6.62244283E-01  0.00000000E+00  0.00000000E+00  0.00000000E+00
  0.00000000E+00  0.00000000E+00  0.00000000E+00  0.00000000E+00  0.00000000E+00
  0.00000000E+00  0.00000000E+00  0.00000000E+00  0.00000000E+00  0.00000000E+00
  0.00000000E+00  0.00000000E+00  0.00000000E+00  0.00000000E+00  0.00000000E+00
  0.00000000E+00  0.00000000E+00  0.00000000E+00  0.00000000E+00  0.00000000E+00
  0.00000000E+00  0.00000000E+00  0.00000000E+00  0.00000000E+00  0.00000000E+00
  0.00000000E+00  0.00000000E+00  0.00000000E+00  0.00000000E+00  0.00000000E+00
  0.00000000E+00  0.00000000E+00  0.00000000E+00  0.00000000E+00  0.00000000E+00
  2.13865815E-03  0.00000000E+00  0.00000000E+00  0.00000000E+00  0.00000000E+00
  1.20091351E+00  0.00000000E+00  0.00000000E+00  0.00000000E+00  0.00000000E+00
 -6.62244283E-01  0.00000000E+00  0.00000000E+00  0.00000000E+00  0.00000000E+00
  0.00000000E+00  0.00000000E+00  0.00000000E+00  0.00000000E+00  0.00000000E+00
  0.00000000E+00  0.00000000E+00  0.00000000E+00  0.00000000E+00  0.00000000E+00
  4.06848687E-03 -2.67713011E-02 -7.21872826E-03  2.19841233E-02 -7.56679733E-03
  0.00000000E+00  0.00000000E+00  0.00000000E+00  0.00000000E+00  0.00000000E+00
  0.00000000E+00  0.00000000E+00  0.00000000E+00  0.00000000E+00  0.00000000E+00
  0.00000000E+00  0.00000000E+00 -7.20467514E-04  0.00000000E+00  0.00000000E+00
  1.24788634E-03  0.00000000E+00 -6.00579747E-01  0.00000000E+00  0.00000000E+00
  1.04023464E+00  0.00000000E+00  3.31121581E-01  0.00000000E+00  0.00000000E+00
 -5.73519402E-01  0.00000000E+00  0.00000000E+00  0.00000000E+00  0.00000000E+00
  0.00000000E+00  0.00000000E+00  0.00000000E+00  0.00000000E+00  0.00000000E+00
  0.00000000E+00  0.00000000E+00  0.00000000E+00  0.00000000E+00  0.00000000E+00
  0.00000000E+00  0.00000000E+00  0.00000000E+00  0.00000000E+00  0.00000000E+00
  0.00000000E+00  0.00000000E+00  0.00000000E+00  0.00000000E+00  0.00000000E+00
  0.00000000E+00  0.00000000E+00  0.00000000E+00  0.00000000E+00  0.00000000E+00
  0.00000000E+00  0.00000000E+00  0.00000000E+00  0.00000000E+00  0.00000000E+00
 -5.28314370E-03  0.00000000E+00  0.00000000E+00  0.00000000E+00  0.00000000E+00
  1.20600002E+00  0.00000000E+00  0.00000000E+00  0.00000000E+00  0.00000000E+00
 -6.57614121E-01  0.00000000E+00  0.00000000E+00  0.00000000E+00  0.00000000E+00
  0.00000000E+00  0.00000000E+00  0.00000000E+00  0.00000000E+00  0.00000000E+00
  0.00000000E+00  0.00000000E+00  0.00000000E+00  0.00000000E+00  0.00000000E+00
  0.00000000E+00  0.00000000E+00 -7.52626450E-16  7.65913931E-15  2.92491617E-15
 -1.32757480E-14  5.86656532E-15  0.00000000E+00  0.00000000E+00  0.00000000E+00
  0.00000000E+00  0.00000000E+00  0.00000000E+00  0.00000000E+00  0.00000000E+00
  0.00000000E+00  0.00000000E+00  0.00000000E+00  0.00000000E+00 -4.57470112E-03
  0.00000000E+00  0.00000000E+00 -2.64120492E-03  0.00000000E+00  1.04442634E+00
  0.00000000E+00  0.00000000E+00  6.02999827E-01  0.00000000E+00 -5.69519493E-01
  0.00000000E+00  0.00000000E+00 -3.28812233E-01  0.00000000E+00  0.00000000E+00
  0.00000000E+00  0.00000000E+00  0.00000000E+00  0.00000000E+00  0.00000000E+00
  0.00000000E+00  0.00000000E+00  0.00000000E+00  0.00000000E+00  0.00000000E+00
  0.00000000E+00  0.00000000E+00  0.00000000E+00  0.00000000E+00  0.00000000E+00
  0.00000000E+00  0.00000000E+00  0.00000000E+00  1.37107635E-15  0.00000000E+00
  0.00000000E+00  4.81024917E-15  0.00000000E+00  0.00000000E+00 -5.36052626E-15
  0.00000000E+00  0.00000000E+00  1.54520981E-16  0.00000000E+00  0.00000000E+00
  0.00000000E+00  0.00000000E+00  0.00000000E+00  0.00000000E+00  0.00000000E+00
  0.00000000E+00  0.00000000E+00  0.00000000E+00  0.00000000E+00  0.00000000E+00
  0.00000000E+00  0.00000000E+00  0.00000000E+00  0.00000000E+00  0.00000000E+00
  0.00000000E+00 -7.59014752E-02  0.00000000E+00  0.00000000E+00  0.00000000E+00
 -5.87930298E-02  0.00000000E+00  0.00000000E+00  8.27555687E-01  0.00000000E+00
  0.00000000E+00  0.00000000E+00  6.41021879E-01  0.00000000E+00  0.00000000E+00
  0.00000000E+00  0.00000000E+00  0.00000000E+00  0.00000000E+00  0.00000000E+00
  0.00000000E+00  0.00000000E+00  0.00000000E+00  0.00000000E+00  0.00000000E+00
  0.00000000E+00  0.00000000E+00  0.00000000E+00  0.00000000E+00  0.00000000E+00
  0.00000000E+00  0.00000000E+00  0.00000000E+00  0.00000000E+00  0.00000000E+00