 Entering Gaussian System, Link 0=g16
 Input=B.com
 Output=B.log
 Initial command:
 /usr/site/hpc/x86_64/glibc-2.17/broadwell/gaussian/g16_a.03/pgi-16.5/g16/l1.exe "/home/c744/c7441090/data/Gau-3858093.inp" -scrdir="/home/c744/c7441090/data/"
 Entering Link 1 = /usr/site/hpc/x86_64/glibc-2.17/broadwell/gaussian/g16_a.03/pgi-16.5/g16/l1.exe PID=   3858094.
  
 Copyright (c) 1988,1990,1992,1993,1995,1998,2003,2009,2016,
            Gaussian, Inc.  All Rights Reserved.
  
 This is part of the Gaussian(R) 16 program.  It is based on
 the Gaussian(R) 09 system (copyright 2009, Gaussian, Inc.),
 the Gaussian(R) 03 system (copyright 2003, Gaussian, Inc.),
 the Gaussian(R) 98 system (copyright 1998, Gaussian, Inc.),
 the Gaussian(R) 94 system (copyright 1995, Gaussian, Inc.),
 the Gaussian 92(TM) system (copyright 1992, Gaussian, Inc.),
 the Gaussian 90(TM) system (copyright 1990, Gaussian, Inc.),
 the Gaussian 88(TM) system (copyright 1988, Gaussian, Inc.),
 the Gaussian 86(TM) system (copyright 1986, Carnegie Mellon
 University), and the Gaussian 82(TM) system (copyright 1983,
 Carnegie Mellon University). Gaussian is a federally registered
 trademark of Gaussian, Inc.
  
 This software contains proprietary and confidential information,
 including trade secrets, belonging to Gaussian, Inc.
  
 This software is provided under written license and may be
 used, copied, transmitted, or stored only in accord with that
 written license.
  
 The following legend is applicable only to US Government
 contracts under FAR:
  
                    RESTRICTED RIGHTS LEGEND
  
 Use, reproduction and disclosure by the US Government is
 subject to restrictions as set forth in subparagraphs (a)
 and (c) of the Commercial Computer Software - Restricted
 Rights clause in FAR 52.227-19.
  
 Gaussian, Inc.
 340 Quinnipiac St., Bldg. 40, Wallingford CT 06492
  
  
 ---------------------------------------------------------------
 Warning -- This program may not be used in any manner that
 competes with the business of Gaussian, Inc. or will provide
 assistance to any competitor of Gaussian, Inc.  The licensee
 of this program is prohibited from giving any competitor of
 Gaussian, Inc. access to this program.  By using this program,
 the user acknowledges that Gaussian, Inc. is engaged in the
 business of creating and licensing software in the field of
 computational chemistry and represents and warrants to the
 licensee that it is not a competitor of Gaussian, Inc. and that
 it will not use this program in any manner prohibited above.
 ---------------------------------------------------------------
  

 Cite this work as:
 Gaussian 16, Revision A.03,
 M. J. Frisch, G. W. Trucks, H. B. Schlegel, G. E. Scuseria, 
 M. A. Robb, J. R. Cheeseman, G. Scalmani, V. Barone, 
 G. A. Petersson, H. Nakatsuji, X. Li, M. Caricato, A. V. Marenich, 
 J. Bloino, B. G. Janesko, R. Gomperts, B. Mennucci, H. P. Hratchian, 
 J. V. Ortiz, A. F. Izmaylov, J. L. Sonnenberg, D. Williams-Young, 
 F. Ding, F. Lipparini, F. Egidi, J. Goings, B. Peng, A. Petrone, 
 T. Henderson, D. Ranasinghe, V. G. Zakrzewski, J. Gao, N. Rega, 
 G. Zheng, W. Liang, M. Hada, M. Ehara, K. Toyota, R. Fukuda, 
 J. Hasegawa, M. Ishida, T. Nakajima, Y. Honda, O. Kitao, H. Nakai, 
 T. Vreven, K. Throssell, J. A. Montgomery, Jr., J. E. Peralta, 
 F. Ogliaro, M. J. Bearpark, J. J. Heyd, E. N. Brothers, K. N. Kudin, 
 V. N. Staroverov, T. A. Keith, R. Kobayashi, J. Normand, 
 K. Raghavachari, A. P. Rendell, J. C. Burant, S. S. Iyengar, 
 J. Tomasi, M. Cossi, J. M. Millam, M. Klene, C. Adamo, R. Cammi, 
 J. W. Ochterski, R. L. Martin, K. Morokuma, O. Farkas, 
 J. B. Foresman, and D. J. Fox, Gaussian, Inc., Wallingford CT, 2016.
 
 ******************************************
 Gaussian 16:  ES64L-G16RevA.03 25-Dec-2016
                20-Nov-2023 
 ******************************************
 %NProcShared=4
 Will use up to    4 processors via shared memory.
 %Mem=1GB
 %Chk=B.chk
 ----------------------------------------------------
 # B3LYP/aug-cc-pVTZ EmpiricalDispersion=GD3 Pop=Full
 ----------------------------------------------------
 1/38=1,172=1/1;
 2/12=2,17=6,18=5,40=1/2;
 3/5=16,6=1,7=10,11=2,25=1,30=1,74=-5,124=31/1,2,3;
 4//1;
 5/5=2,38=5/2;
 6/7=3,28=1/1;
 99/5=1,9=1/99;
 -----
 Boron
 -----
 Symbolic Z-matrix:
 Charge =  0 Multiplicity = 2
 B                     0.        0.        0. 
 
                          Input orientation:                          
 ---------------------------------------------------------------------
 Center     Atomic      Atomic             Coordinates (Angstroms)
 Number     Number       Type             X           Y           Z
 ---------------------------------------------------------------------
      1          5           0        0.000000    0.000000    0.000000
 ---------------------------------------------------------------------
 Stoichiometry    B(2)
 Framework group  OH[O(B)]
 Deg. of freedom     0
 Full point group                 OH      NOp  48
 Largest Abelian subgroup         D2H     NOp   8
 Largest concise Abelian subgroup C1      NOp   1
                         Standard orientation:                         
 ---------------------------------------------------------------------
 Center     Atomic      Atomic             Coordinates (Angstroms)
 Number     Number       Type             X           Y           Z
 ---------------------------------------------------------------------
      1          5           0        0.000000    0.000000    0.000000
 ---------------------------------------------------------------------
 Standard basis: Aug-CC-pVTZ (5D, 7F)
 There are    14 symmetry adapted cartesian basis functions of AG  symmetry.
 There are     3 symmetry adapted cartesian basis functions of B1G symmetry.
 There are     3 symmetry adapted cartesian basis functions of B2G symmetry.
 There are     3 symmetry adapted cartesian basis functions of B3G symmetry.
 There are     2 symmetry adapted cartesian basis functions of AU  symmetry.
 There are    10 symmetry adapted cartesian basis functions of B1U symmetry.
 There are    10 symmetry adapted cartesian basis functions of B2U symmetry.
 There are    10 symmetry adapted cartesian basis functions of B3U symmetry.
 There are    11 symmetry adapted basis functions of AG  symmetry.
 There are     3 symmetry adapted basis functions of B1G symmetry.
 There are     3 symmetry adapted basis functions of B2G symmetry.
 There are     3 symmetry adapted basis functions of B3G symmetry.
 There are     2 symmetry adapted basis functions of AU  symmetry.
 There are     8 symmetry adapted basis functions of B1U symmetry.
 There are     8 symmetry adapted basis functions of B2U symmetry.
 There are     8 symmetry adapted basis functions of B3U symmetry.
    46 basis functions,    72 primitive gaussians,    55 cartesian basis functions
     3 alpha electrons        2 beta electrons
       nuclear repulsion energy         0.0000000000 Hartrees.
 NAtoms=    1 NActive=    1 NUniq=    1 SFac= 1.00D+00 NAtFMM=   60 NAOKFM=F Big=F
 Integral buffers will be    131072 words long.
 Raffenetti 2 integral format.
 Two-electron integral symmetry is turned on.
 Nuclear repulsion after empirical dispersion term =        0.0000000000 Hartrees.
 One-electron integrals computed using PRISM.
 NBasis=    46 RedAO= T EigKep=  2.92D-02  NBF=    11     3     3     3     2     8     8     8
 NBsUse=    46 1.00D-06 EigRej= -1.00D+00 NBFU=    11     3     3     3     2     8     8     8
 ExpMin= 2.10D-02 ExpMax= 5.47D+03 ExpMxC= 1.87D+02 IAcc=3 IRadAn=         5 AccDes= 0.00D+00
 Harris functional with IExCor=  402 and IRadAn=       5 diagonalized for initial guess.
 HarFok:  IExCor=  402 AccDes= 0.00D+00 IRadAn=         5 IDoV= 1 UseB2=F ITyADJ=14
 ICtDFT=  3500011 ScaDFX=  1.000000  1.000000  1.000000  1.000000
 FoFCou: FMM=F IPFlag=           0 FMFlag=      100000 FMFlg1=           0
         NFxFlg=           0 DoJE=T BraDBF=F KetDBF=T FulRan=T
         wScrn=  0.000000 ICntrl=       500 IOpCl=  0 I1Cent=   200000004 NGrid=           0
         NMat0=    1 NMatS0=      1 NMatT0=    0 NMatD0=    1 NMtDS0=    0 NMtDT0=    0
 Petite list used in FoFCou.
 Initial guess orbital symmetries:
 Alpha Orbitals:
       Occupied  (A1G) (A1G) (T1U)
       Virtual   (T1U) (T1U) (A1G) (T1U) (T1U) (T1U) (T2G) (T2G)
                 (T2G) (EG) (EG) (T1U) (T1U) (T1U) (A1G) (T2G)
                 (T2G) (T2G) (EG) (EG) (T2U) (T2U) (T2U) (A2U)
                 (T1U) (T1U) (T1U) (T1U) (T1U) (T1U) (T2G) (T2G)
                 (T2G) (EG) (EG) (T2U) (T2U) (T2U) (A2U) (T1U)
                 (T1U) (T1U) (A1G)
 Beta  Orbitals:
       Occupied  (A1G) (A1G)
       Virtual   (T1U) (T1U) (T1U) (A1G) (T1U) (T1U) (T1U) (T2G)
                 (T2G) (T2G) (EG) (EG) (T1U) (T1U) (T1U) (A1G)
                 (T2G) (T2G) (T2G) (EG) (EG) (T2U) (T2U) (T2U)
                 (A2U) (T1U) (T1U) (T1U) (T1U) (T1U) (T1U) (T2G)
                 (T2G) (T2G) (EG) (EG) (T2U) (T2U) (T2U) (A2U)
                 (T1U) (T1U) (T1U) (A1G)
 Initial guess <Sx>= 0.0000 <Sy>= 0.0000 <Sz>= 0.5000 <S**2>= 0.7500 S= 0.5000
 Keep R1 and R2 ints in memory in symmetry-blocked form, NReq=4095399.
 Requested convergence on RMS density matrix=1.00D-08 within 128 cycles.
 Requested convergence on MAX density matrix=1.00D-06.
 Requested convergence on             energy=1.00D-06.
 No special actions if energy rises.
 Density matrix breaks symmetry, PCut= 1.00D-04
 Density has only Abelian symmetry.
 Density matrix breaks symmetry, PCut= 1.00D-04
 Density has only Abelian symmetry.
 Density matrix breaks symmetry, PCut= 1.00D-04
 Density has only Abelian symmetry.
 Density matrix breaks symmetry, PCut= 1.00D-04
 Density has only Abelian symmetry.
 Density matrix breaks symmetry, PCut= 1.00D-04
 Density has only Abelian symmetry.
 Density matrix breaks symmetry, PCut= 1.00D-04
 Density has only Abelian symmetry.
 Density matrix breaks symmetry, PCut= 1.00D-04
 Density has only Abelian symmetry.
 Density matrix breaks symmetry, PCut= 1.00D-04
 Density has only Abelian symmetry.
 SCF Done:  E(UB3LYP) =  -24.6638915573     A.U. after    7 cycles
            NFock=  7  Conv=0.81D-08     -V/T= 2.0084
 <Sx>= 0.0000 <Sy>= 0.0000 <Sz>= 0.5000 <S**2>= 0.7535 S= 0.5018
 <L.S>= 0.000000000000E+00
 Annihilation of the first spin contaminant:
 S**2 before annihilation     0.7535,   after     0.7500
 SCF density gives NOpUse=  8 NOpAll= 48.

 **********************************************************************

            Population analysis using the SCF density.

 **********************************************************************

 Orbital symmetries:
 Alpha Orbitals:
       Occupied  (A1G) (?A) (?B)
       Virtual   (?B) (?B) (?A) (?B) (?B) (?B) (T2G) (T2G) (?A)
                 (T2G) (?A) (?B) (?B) (?B) (?A) (T2G) (T2G) (?A)
                 (T2G) (?A) (?C) (A2U) (?C) (?C) (?C) (?C) (?C)
                 (?B) (?B) (?B) (T2G) (T2G) (?A) (T2G) (?A) (A2U)
                 (?C) (?C) (?C) (?C) (?C) (?C) (?A)
 Beta  Orbitals:
       Occupied  (A1G) (?A)
       Virtual   (?B) (?B) (?B) (?A) (?B) (?B) (?B) (?C) (?A) (?C)
                 (?C) (?A) (?B) (?B) (?B) (?A) (?C) (?A) (?C) (?C)
                 (?A) (?B) (?B) (A2U) (?B) (?B) (?B) (?B) (?B)
                 (?B) (?B) (T2G) (?A) (T2G) (T2G) (?A) (?B) (?B)
                 (?B) (A2U) (?B) (?B) (?B) (A1G)
 Unable to determine electronic state:  an orbital has unidentified symmetry.
 Alpha  occ. eigenvalues --   -6.86094  -0.39595  -0.18972
 Alpha virt. eigenvalues --   -0.09872  -0.09872   0.01817   0.02817   0.03492
 Alpha virt. eigenvalues --    0.03492   0.12399   0.12399   0.12683   0.12899
 Alpha virt. eigenvalues --    0.12900   0.23828   0.25409   0.25409   0.37730
 Alpha virt. eigenvalues --    0.51160   0.51160   0.51552   0.52220   0.52220
 Alpha virt. eigenvalues --    0.55384   0.55384   0.55577   0.55620   0.55620
 Alpha virt. eigenvalues --    0.55795   0.55795   1.23983   1.26155   1.26155
 Alpha virt. eigenvalues --    1.84444   1.84444   1.85058   1.86708   1.86708
 Alpha virt. eigenvalues --    1.97093   1.97093   1.97333   1.97438   1.97438
 Alpha virt. eigenvalues --    1.98230   1.98230   2.81062
  Beta  occ. eigenvalues --   -6.85141  -0.35340
  Beta virt. eigenvalues --   -0.09014  -0.09014  -0.05635   0.02119   0.03523
  Beta virt. eigenvalues --    0.03523   0.03987   0.12732   0.12732   0.13035
  Beta virt. eigenvalues --    0.13035   0.13316   0.25715   0.25715   0.27715
  Beta virt. eigenvalues --    0.39402   0.52313   0.52313   0.54326   0.54326
  Beta virt. eigenvalues --    0.55054   0.55546   0.55546   0.56418   0.56418
  Beta virt. eigenvalues --    0.56998   0.56998   0.57208   1.26582   1.26582
  Beta virt. eigenvalues --    1.29876   1.86667   1.86667   1.90016   1.90016
  Beta virt. eigenvalues --    1.91107   1.97897   1.97897   2.00321   2.00321
  Beta virt. eigenvalues --    2.01717   2.01717   2.02232   2.82811
     Alpha Molecular Orbital Coefficients:
                           1         2         3         4         5
                       (A1G)--O      O         O         V         V
     Eigenvalues --    -6.86094  -0.39595  -0.18972  -0.09872  -0.09872
   1 1   B  1S          0.97419  -0.21443   0.00000   0.00000   0.00000
   2        2S         -0.01332   0.55551   0.00000   0.00000   0.00000
   3        3S          0.05146   0.14327   0.00000   0.00000   0.00000
   4        4S          0.00365   0.39146   0.00000   0.00000   0.00000
   5        5S         -0.00068   0.00250   0.00000   0.00000   0.00000
   6        6PX         0.00000   0.00000   0.36265   0.00000   0.00000
   7        6PY         0.00000   0.00000   0.00000   0.00000   0.31677
   8        6PZ         0.00000   0.00000   0.00000   0.31677   0.00000
   9        7PX         0.00000   0.00000   0.48157   0.00000   0.00000
  10        7PY         0.00000   0.00000   0.00000   0.00000   0.43116
  11        7PZ         0.00000   0.00000   0.00000   0.43116   0.00000
  12        8PX         0.00000   0.00000   0.34395   0.00000   0.00000
  13        8PY         0.00000   0.00000   0.00000   0.00000   0.41199
  14        8PZ         0.00000   0.00000   0.00000   0.41199   0.00000
  15        9PX         0.00000   0.00000   0.02905   0.00000   0.00000
  16        9PY         0.00000   0.00000   0.00000   0.00000   0.09042
  17        9PZ         0.00000   0.00000   0.00000   0.09042   0.00000
  18       10D 0       -0.00041  -0.00571   0.00000   0.00000   0.00000
  19       10D+1        0.00000   0.00000   0.00000   0.00000   0.00000
  20       10D-1        0.00000   0.00000   0.00000   0.00000   0.00000
  21       10D+2        0.00071   0.00989   0.00000   0.00000   0.00000
  22       10D-2        0.00000   0.00000   0.00000   0.00000   0.00000
  23       11D 0        0.00010  -0.00553   0.00000   0.00000   0.00000
  24       11D+1        0.00000   0.00000   0.00000   0.00000   0.00000
  25       11D-1        0.00000   0.00000   0.00000   0.00000   0.00000
  26       11D+2       -0.00017   0.00958   0.00000   0.00000   0.00000
  27       11D-2        0.00000   0.00000   0.00000   0.00000   0.00000
  28       12D 0       -0.00005  -0.00191   0.00000   0.00000   0.00000
  29       12D+1        0.00000   0.00000   0.00000   0.00000   0.00000
  30       12D-1        0.00000   0.00000   0.00000   0.00000   0.00000
  31       12D+2        0.00008   0.00331   0.00000   0.00000   0.00000
  32       12D-2        0.00000   0.00000   0.00000   0.00000   0.00000
  33       13F 0        0.00000   0.00000   0.00000  -0.00271   0.00000
  34       13F+1        0.00000   0.00000  -0.00120   0.00000   0.00000
  35       13F-1        0.00000   0.00000   0.00000   0.00000  -0.00111
  36       13F+2        0.00000   0.00000   0.00000   0.00350   0.00000
  37       13F-2        0.00000   0.00000   0.00000   0.00000   0.00000
  38       13F+3        0.00000   0.00000   0.00154   0.00000   0.00000
  39       13F-3        0.00000   0.00000   0.00000   0.00000   0.00429
  40       14F 0        0.00000   0.00000   0.00000  -0.00207   0.00000
  41       14F+1        0.00000   0.00000   0.00000   0.00000   0.00000
  42       14F-1        0.00000   0.00000   0.00000   0.00000  -0.00084
  43       14F+2        0.00000   0.00000   0.00000   0.00267   0.00000
  44       14F-2        0.00000   0.00000   0.00000   0.00000   0.00000
  45       14F+3        0.00000   0.00000  -0.00000   0.00000   0.00000
  46       14F-3        0.00000   0.00000   0.00000   0.00000   0.00327
                           6         7         8         9        10
                           V         V         V         V     (T2G)--V
     Eigenvalues --     0.01817   0.02817   0.03492   0.03492   0.12399
   1 1   B  1S          0.07772   0.00000   0.00000   0.00000   0.00000
   2        2S         -0.14630   0.00000   0.00000   0.00000   0.00000
   3        3S         -0.06431   0.00000   0.00000   0.00000   0.00000
   4        4S         -0.85660   0.00000   0.00000   0.00000   0.00000
   5        5S          1.54536   0.00000   0.00000   0.00000   0.00000
   6        6PX         0.00000  -0.11852   0.00000   0.00000   0.00000
   7        6PY         0.00000   0.00000   0.00000  -0.13530   0.00000
   8        6PZ         0.00000   0.00000  -0.13530   0.00000   0.00000
   9        7PX         0.00000  -0.12446   0.00000   0.00000   0.00000
  10        7PY         0.00000   0.00000   0.00000  -0.14679   0.00000
  11        7PZ         0.00000   0.00000  -0.14679   0.00000   0.00000
  12        8PX         0.00000  -0.26171   0.00000   0.00000   0.00000
  13        8PY         0.00000   0.00000   0.00000  -0.34382   0.00000
  14        8PZ         0.00000   0.00000  -0.34382   0.00000   0.00000
  15        9PX         0.00000   1.12173   0.00000   0.00000   0.00000
  16        9PY         0.00000   0.00000   0.00000   1.13727   0.00000
  17        9PZ         0.00000   0.00000   1.13727   0.00000   0.00000
  18       10D 0        0.00121   0.00000   0.00000   0.00000   0.00000
  19       10D+1        0.00000   0.00000   0.00000   0.00000   0.00000
  20       10D-1        0.00000   0.00000   0.00000   0.00000   0.00000
  21       10D+2       -0.00209   0.00000   0.00000   0.00000   0.00000
  22       10D-2        0.00000   0.00000   0.00000   0.00000   0.03479
  23       11D 0        0.00192   0.00000   0.00000   0.00000   0.00000
  24       11D+1        0.00000   0.00000   0.00000   0.00000   0.00000
  25       11D-1        0.00000   0.00000   0.00000   0.00000   0.00000
  26       11D+2       -0.00333   0.00000   0.00000   0.00000   0.00000
  27       11D-2        0.00000   0.00000   0.00000   0.00000  -0.03011
  28       12D 0       -0.00964   0.00000   0.00000   0.00000   0.00000
  29       12D+1        0.00000   0.00000   0.00000   0.00000   0.00000
  30       12D-1        0.00000   0.00000   0.00000   0.00000   0.00000
  31       12D+2        0.01670   0.00000   0.00000   0.00000   0.00000
  32       12D-2        0.00000   0.00000   0.00000   0.00000   1.01191
  33       13F 0        0.00000   0.00000   0.00115   0.00000   0.00000
  34       13F+1        0.00000   0.00021   0.00000   0.00000   0.00000
  35       13F-1        0.00000   0.00000   0.00000   0.00047   0.00000
  36       13F+2        0.00000   0.00000  -0.00149   0.00000   0.00000
  37       13F-2        0.00000   0.00000   0.00000   0.00000   0.00000
  38       13F+3        0.00000  -0.00027   0.00000   0.00000   0.00000
  39       13F-3        0.00000   0.00000   0.00000  -0.00182   0.00000
  40       14F 0        0.00000   0.00000  -0.00045   0.00000   0.00000
  41       14F+1        0.00000   0.00025   0.00000   0.00000   0.00000
  42       14F-1        0.00000   0.00000   0.00000  -0.00018   0.00000
  43       14F+2        0.00000   0.00000   0.00058   0.00000   0.00000
  44       14F-2        0.00000   0.00000   0.00000   0.00000   0.00000
  45       14F+3        0.00000  -0.00032   0.00000   0.00000   0.00000
  46       14F-3        0.00000   0.00000   0.00000   0.00071   0.00000
                          11        12        13        14        15
                       (T2G)--V      V     (T2G)--V      V         V
     Eigenvalues --     0.12399   0.12683   0.12899   0.12900   0.23828
   1 1   B  1S          0.00000   0.00116   0.00000   0.00000   0.00000
   2        2S          0.00000  -0.00156   0.00000  -0.00000   0.00000
   3        3S          0.00000  -0.00039   0.00000  -0.00000   0.00000
   4        4S          0.00000   0.00590   0.00000  -0.00000   0.00000
   5        5S          0.00000  -0.02425   0.00000   0.00000   0.00000
   6        6PX         0.00000   0.00000   0.00000   0.00000  -0.26819
   7        6PY         0.00000   0.00000   0.00000   0.00000   0.00000
   8        6PZ         0.00000   0.00000   0.00000   0.00000   0.00000
   9        7PX         0.00000   0.00000   0.00000   0.00000  -0.83957
  10        7PY         0.00000   0.00000   0.00000   0.00000   0.00000
  11        7PZ         0.00000   0.00000   0.00000   0.00000   0.00000
  12        8PX         0.00000   0.00000   0.00000   0.00000   1.61758
  13        8PY         0.00000   0.00000   0.00000   0.00000   0.00000
  14        8PZ         0.00000   0.00000   0.00000   0.00000   0.00000
  15        9PX         0.00000   0.00000   0.00000   0.00000  -0.71355
  16        9PY         0.00000   0.00000   0.00000   0.00000   0.00000
  17        9PZ         0.00000   0.00000   0.00000   0.00000   0.00000
  18       10D 0        0.00000  -0.01742   0.00000   0.02856   0.00000
  19       10D+1        0.03479   0.00000   0.00000   0.00000   0.00000
  20       10D-1        0.00000   0.00000   0.03297   0.00000   0.00000
  21       10D+2        0.00000   0.03017   0.00000   0.01649   0.00000
  22       10D-2        0.00000   0.00000   0.00000   0.00000   0.00000
  23       11D 0        0.00000   0.01514   0.00000  -0.03158   0.00000
  24       11D+1       -0.03011   0.00000   0.00000   0.00000   0.00000
  25       11D-1        0.00000   0.00000  -0.03648   0.00000   0.00000
  26       11D+2        0.00000  -0.02623   0.00000  -0.01823   0.00000
  27       11D-2        0.00000   0.00000   0.00000   0.00000   0.00000
  28       12D 0        0.00000  -0.50590   0.00000   0.87959   0.00000
  29       12D+1        1.01191   0.00000   0.00000   0.00000   0.00000
  30       12D-1        0.00000   0.00000   1.01567   0.00000   0.00000
  31       12D+2        0.00000   0.87624   0.00000   0.50783   0.00000
  32       12D-2        0.00000   0.00000   0.00000   0.00000   0.00000
  33       13F 0        0.00000   0.00000   0.00000   0.00000   0.00000
  34       13F+1        0.00000   0.00000   0.00000   0.00000   0.00030
  35       13F-1        0.00000   0.00000   0.00000   0.00000   0.00000
  36       13F+2        0.00000   0.00000   0.00000   0.00000   0.00000
  37       13F-2        0.00000   0.00000   0.00000   0.00000   0.00000
  38       13F+3        0.00000   0.00000   0.00000   0.00000  -0.00039
  39       13F-3        0.00000   0.00000   0.00000   0.00000   0.00000
  40       14F 0        0.00000   0.00000   0.00000   0.00000   0.00000
  41       14F+1        0.00000   0.00000   0.00000   0.00000   0.00212
  42       14F-1        0.00000   0.00000   0.00000   0.00000   0.00000
  43       14F+2        0.00000   0.00000   0.00000   0.00000   0.00000
  44       14F-2        0.00000   0.00000   0.00000   0.00000   0.00000
  45       14F+3        0.00000   0.00000   0.00000   0.00000  -0.00274
  46       14F-3        0.00000   0.00000   0.00000   0.00000   0.00000
                          16        17        18        19        20
                           V         V         V     (T2G)--V  (T2G)--V
     Eigenvalues --     0.25409   0.25409   0.37730   0.51160   0.51160
   1 1   B  1S          0.00000   0.00000   0.05355   0.00000   0.00000
   2        2S          0.00000   0.00000  -1.54321   0.00000   0.00000
   3        3S          0.00000   0.00000  -0.40942   0.00000   0.00000
   4        4S          0.00000   0.00000   2.85656   0.00000   0.00000
   5        5S          0.00000   0.00000  -1.29186   0.00000   0.00000
   6        6PX         0.00000   0.00000   0.00000   0.00000   0.00000
   7        6PY        -0.27781   0.00000   0.00000   0.00000   0.00000
   8        6PZ         0.00000  -0.27781   0.00000   0.00000   0.00000
   9        7PX         0.00000   0.00000   0.00000   0.00000   0.00000
  10        7PY        -0.89648   0.00000   0.00000   0.00000   0.00000
  11        7PZ         0.00000  -0.89648   0.00000   0.00000   0.00000
  12        8PX         0.00000   0.00000   0.00000   0.00000   0.00000
  13        8PY         1.59494   0.00000   0.00000   0.00000   0.00000
  14        8PZ         0.00000   1.59494   0.00000   0.00000   0.00000
  15        9PX         0.00000   0.00000   0.00000   0.00000   0.00000
  16        9PY        -0.68506   0.00000   0.00000   0.00000   0.00000
  17        9PZ         0.00000  -0.68506   0.00000   0.00000   0.00000
  18       10D 0        0.00000   0.00000   0.00463   0.00000   0.00000
  19       10D+1        0.00000   0.00000   0.00000   0.00214   0.00000
  20       10D-1        0.00000   0.00000   0.00000   0.00000   0.00000
  21       10D+2        0.00000   0.00000  -0.00802   0.00000   0.00000
  22       10D-2        0.00000   0.00000   0.00000   0.00000   0.00214
  23       11D 0        0.00000   0.00000   0.00354   0.00000   0.00000
  24       11D+1        0.00000   0.00000   0.00000   1.20091   0.00000
  25       11D-1        0.00000   0.00000   0.00000   0.00000   0.00000
  26       11D+2        0.00000   0.00000  -0.00612   0.00000   0.00000
  27       11D-2        0.00000   0.00000   0.00000   0.00000   1.20091
  28       12D 0        0.00000   0.00000  -0.00327   0.00000   0.00000
  29       12D+1        0.00000   0.00000   0.00000  -0.66224   0.00000
  30       12D-1        0.00000   0.00000   0.00000   0.00000   0.00000
  31       12D+2        0.00000   0.00000   0.00566   0.00000   0.00000
  32       12D-2        0.00000   0.00000   0.00000   0.00000  -0.66224
  33       13F 0        0.00000   0.00246   0.00000   0.00000   0.00000
  34       13F+1        0.00000   0.00000   0.00000   0.00000   0.00000
  35       13F-1        0.00101   0.00000   0.00000   0.00000   0.00000
  36       13F+2        0.00000  -0.00318   0.00000   0.00000   0.00000
  37       13F-2        0.00000   0.00000   0.00000   0.00000   0.00000
  38       13F+3        0.00000   0.00000   0.00000   0.00000   0.00000
  39       13F-3       -0.00389   0.00000   0.00000   0.00000   0.00000
  40       14F 0        0.00000  -0.00281   0.00000   0.00000   0.00000
  41       14F+1        0.00000   0.00000   0.00000   0.00000   0.00000
  42       14F-1       -0.00115   0.00000   0.00000   0.00000   0.00000
  43       14F+2        0.00000   0.00363   0.00000   0.00000   0.00000
  44       14F-2        0.00000   0.00000   0.00000   0.00000   0.00000
  45       14F+3        0.00000   0.00000   0.00000   0.00000   0.00000
  46       14F-3        0.00444   0.00000   0.00000   0.00000   0.00000
                          21        22        23        24        25
                           V     (T2G)--V      V         V     (A2U)--V
     Eigenvalues --     0.51552   0.52220   0.52220   0.55384   0.55384
   1 1   B  1S          0.00407   0.00000  -0.00000   0.00000   0.00000
   2        2S         -0.02677   0.00000   0.00000   0.00000   0.00000
   3        3S         -0.00722   0.00000   0.00000   0.00000   0.00000
   4        4S          0.02198   0.00000  -0.00000   0.00000   0.00000
   5        5S         -0.00757   0.00000   0.00000   0.00000   0.00000
   6        6PX         0.00000   0.00000   0.00000   0.00000   0.00000
   7        6PY         0.00000   0.00000   0.00000   0.00000   0.00000
   8        6PZ         0.00000   0.00000   0.00000   0.00000   0.00000
   9        7PX         0.00000   0.00000   0.00000   0.00000   0.00000
  10        7PY         0.00000   0.00000   0.00000   0.00000   0.00000
  11        7PZ         0.00000   0.00000   0.00000   0.00000   0.00000
  12        8PX         0.00000   0.00000   0.00000  -0.00000   0.00000
  13        8PY         0.00000   0.00000   0.00000   0.00000   0.00000
  14        8PZ         0.00000   0.00000   0.00000   0.00000   0.00000
  15        9PX         0.00000   0.00000   0.00000   0.00000   0.00000
  16        9PY         0.00000   0.00000   0.00000   0.00000   0.00000
  17        9PZ         0.00000   0.00000   0.00000   0.00000   0.00000
  18       10D 0       -0.00072   0.00000  -0.00457   0.00000   0.00000
  19       10D+1        0.00000   0.00000   0.00000   0.00000   0.00000
  20       10D-1        0.00000  -0.00528   0.00000   0.00000   0.00000
  21       10D+2        0.00125   0.00000  -0.00264   0.00000   0.00000
  22       10D-2        0.00000   0.00000   0.00000   0.00000   0.00000
  23       11D 0       -0.60058   0.00000   1.04443   0.00000   0.00000
  24       11D+1        0.00000   0.00000   0.00000   0.00000   0.00000
  25       11D-1        0.00000   1.20600   0.00000   0.00000   0.00000
  26       11D+2        1.04023   0.00000   0.60300   0.00000   0.00000
  27       11D-2        0.00000   0.00000   0.00000   0.00000   0.00000
  28       12D 0        0.33112   0.00000  -0.56952   0.00000   0.00000
  29       12D+1        0.00000   0.00000   0.00000   0.00000   0.00000
  30       12D-1        0.00000  -0.65761   0.00000   0.00000   0.00000
  31       12D+2       -0.57352   0.00000  -0.32881   0.00000   0.00000
  32       12D-2        0.00000   0.00000   0.00000   0.00000   0.00000
  33       13F 0        0.00000   0.00000   0.00000   0.00000   0.00000
  34       13F+1        0.00000   0.00000   0.00000  -0.07590   0.00000
  35       13F-1        0.00000   0.00000   0.00000   0.00000   0.00000
  36       13F+2        0.00000   0.00000   0.00000   0.00000   0.00000
  37       13F-2        0.00000   0.00000   0.00000   0.00000  -0.09601
  38       13F+3        0.00000   0.00000   0.00000  -0.05879   0.00000
  39       13F-3        0.00000   0.00000   0.00000   0.00000   0.00000
  40       14F 0        0.00000   0.00000   0.00000   0.00000   0.00000
  41       14F+1        0.00000   0.00000   0.00000   0.82756   0.00000
  42       14F-1        0.00000   0.00000   0.00000   0.00000   0.00000
  43       14F+2        0.00000   0.00000   0.00000   0.00000   0.00000
  44       14F-2        0.00000   0.00000   0.00000   0.00000   1.04678
  45       14F+3        0.00000   0.00000   0.00000   0.64102   0.00000
  46       14F-3        0.00000   0.00000   0.00000   0.00000   0.00000
                          26        27        28        29        30
                           V         V         V         V         V
     Eigenvalues --     0.55577   0.55620   0.55620   0.55795   0.55795
   1 1   B  1S          0.00000   0.00000   0.00000   0.00000   0.00000
   2        2S          0.00000   0.00000   0.00000   0.00000   0.00000
   3        3S          0.00000   0.00000   0.00000   0.00000   0.00000
   4        4S          0.00000   0.00000   0.00000   0.00000   0.00000
   5        5S          0.00000   0.00000   0.00000   0.00000   0.00000
   6        6PX        -0.00138   0.00000   0.00000   0.00000   0.00000
   7        6PY         0.00000   0.00000  -0.00275  -0.00000   0.00000
   8        6PZ         0.00000  -0.00275   0.00000   0.00000   0.00000
   9        7PX        -0.00356   0.00000   0.00000   0.00000   0.00000
  10        7PY         0.00000   0.00000   0.00244  -0.00000   0.00000
  11        7PZ         0.00000   0.00244   0.00000   0.00000   0.00000
  12        8PX         0.00549   0.00000   0.00000   0.00000   0.00000
  13        8PY         0.00000   0.00000  -0.00794   0.00000   0.00000
  14        8PZ         0.00000  -0.00794   0.00000   0.00000  -0.00000
  15        9PX        -0.00201   0.00000   0.00000   0.00000   0.00000
  16        9PY         0.00000   0.00000   0.00192  -0.00000   0.00000
  17        9PZ         0.00000   0.00192   0.00000   0.00000   0.00000
  18       10D 0        0.00000   0.00000   0.00000   0.00000   0.00000
  19       10D+1        0.00000   0.00000   0.00000   0.00000   0.00000
  20       10D-1        0.00000   0.00000   0.00000   0.00000   0.00000
  21       10D+2        0.00000   0.00000   0.00000   0.00000   0.00000
  22       10D-2        0.00000   0.00000   0.00000   0.00000   0.00000
  23       11D 0        0.00000   0.00000   0.00000   0.00000   0.00000
  24       11D+1        0.00000   0.00000   0.00000   0.00000   0.00000
  25       11D-1        0.00000   0.00000   0.00000   0.00000   0.00000
  26       11D+2        0.00000   0.00000   0.00000   0.00000   0.00000
  27       11D-2        0.00000   0.00000   0.00000   0.00000   0.00000
  28       12D 0        0.00000   0.00000   0.00000   0.00000   0.00000
  29       12D+1        0.00000   0.00000   0.00000   0.00000   0.00000
  30       12D-1        0.00000   0.00000   0.00000   0.00000   0.00000
  31       12D+2        0.00000   0.00000   0.00000   0.00000   0.00000
  32       12D-2        0.00000   0.00000   0.00000   0.00000   0.00000
  33       13F 0        0.00000   0.05877   0.00000   0.00000  -0.07716
  34       13F+1        0.05874   0.00000   0.00000   0.00000   0.00000
  35       13F-1        0.00000   0.00000   0.02400  -0.09449   0.00000
  36       13F+2        0.00000  -0.07588   0.00000   0.00000  -0.05976
  37       13F-2        0.00000   0.00000   0.00000   0.00000   0.00000
  38       13F+3       -0.07584   0.00000   0.00000   0.00000   0.00000
  39       13F-3        0.00000   0.00000  -0.09293  -0.02440   0.00000
  40       14F 0        0.00000  -0.64099   0.00000   0.00000   0.82813
  41       14F+1       -0.64100   0.00000   0.00000   0.00000   0.00000
  42       14F-1        0.00000   0.00000  -0.26170   1.01424   0.00000
  43       14F+2        0.00000   0.82754   0.00000   0.00000   0.64145
  44       14F-2        0.00000   0.00000   0.00000   0.00000   0.00000
  45       14F+3        0.82752   0.00000   0.00000   0.00000   0.00000
  46       14F-3        0.00000   0.00000   1.01351   0.26188   0.00000
                          31        32        33        34        35
                           V         V         V     (T2G)--V  (T2G)--V
     Eigenvalues --     1.23983   1.26155   1.26155   1.84444   1.84444
   1 1   B  1S          0.00000   0.00000   0.00000   0.00000   0.00000
   2        2S          0.00000   0.00000   0.00000   0.00000   0.00000
   3        3S          0.00000   0.00000   0.00000   0.00000   0.00000
   4        4S          0.00000   0.00000   0.00000   0.00000   0.00000
   5        5S          0.00000   0.00000   0.00000   0.00000   0.00000
   6        6PX        -1.27719   0.00000   0.00000   0.00000   0.00000
   7        6PY         0.00000  -1.28565   0.00000   0.00000   0.00000
   8        6PZ         0.00000   0.00000  -1.28565   0.00000   0.00000
   9        7PX         1.65164   0.00000   0.00000   0.00000   0.00000
  10        7PY         0.00000   1.63374   0.00000   0.00000   0.00000
  11        7PZ         0.00000   0.00000   1.63374   0.00000   0.00000
  12        8PX        -0.92845   0.00000   0.00000   0.00000   0.00000
  13        8PY         0.00000  -0.91300   0.00000   0.00000   0.00000
  14        8PZ         0.00000   0.00000  -0.91300   0.00000   0.00000
  15        9PX         0.27292   0.00000   0.00000   0.00000   0.00000
  16        9PY         0.00000   0.26812   0.00000   0.00000   0.00000
  17        9PZ         0.00000   0.00000   0.26812   0.00000   0.00000
  18       10D 0        0.00000   0.00000   0.00000   0.00000   0.00000
  19       10D+1        0.00000   0.00000   0.00000   0.00000   1.24010
  20       10D-1        0.00000   0.00000   0.00000   0.00000   0.00000
  21       10D+2        0.00000   0.00000   0.00000   0.00000   0.00000
  22       10D-2        0.00000   0.00000   0.00000   1.24010   0.00000
  23       11D 0        0.00000   0.00000   0.00000   0.00000   0.00000
  24       11D+1        0.00000   0.00000   0.00000   0.00000  -0.86398
  25       11D-1        0.00000   0.00000   0.00000   0.00000   0.00000
  26       11D+2        0.00000   0.00000   0.00000   0.00000   0.00000
  27       11D-2        0.00000   0.00000   0.00000  -0.86398   0.00000
  28       12D 0        0.00000   0.00000   0.00000   0.00000   0.00000
  29       12D+1        0.00000   0.00000   0.00000   0.00000   0.29481
  30       12D-1        0.00000   0.00000   0.00000   0.00000   0.00000
  31       12D+2        0.00000   0.00000   0.00000   0.00000   0.00000
  32       12D-2        0.00000   0.00000   0.00000   0.29481   0.00000
  33       13F 0        0.00000   0.00000   0.00076   0.00000   0.00000
  34       13F+1        0.00279   0.00000   0.00000   0.00000   0.00000
  35       13F-1        0.00000   0.00031   0.00000   0.00000   0.00000
  36       13F+2        0.00000   0.00000  -0.00098   0.00000   0.00000
  37       13F-2        0.00000   0.00000   0.00000   0.00000   0.00000
  38       13F+3       -0.00360   0.00000   0.00000   0.00000   0.00000
  39       13F-3        0.00000  -0.00120   0.00000   0.00000   0.00000
  40       14F 0        0.00000   0.00000   0.00052   0.00000   0.00000
  41       14F+1       -0.00126   0.00000   0.00000   0.00000   0.00000
  42       14F-1        0.00000   0.00021   0.00000   0.00000   0.00000
  43       14F+2        0.00000   0.00000  -0.00067   0.00000   0.00000
  44       14F-2        0.00000   0.00000   0.00000   0.00000   0.00000
  45       14F+3        0.00162   0.00000   0.00000   0.00000   0.00000
  46       14F-3        0.00000  -0.00082   0.00000   0.00000   0.00000
                          36        37        38        39        40
                           V     (T2G)--V      V     (A2U)--V      V
     Eigenvalues --     1.85058   1.86708   1.86708   1.97093   1.97093
   1 1   B  1S         -0.00772   0.00000   0.00000   0.00000   0.00000
   2        2S         -0.04405   0.00000   0.00000   0.00000   0.00000
   3        3S          0.01524   0.00000  -0.00000   0.00000   0.00000
   4        4S          0.03407   0.00000   0.00000   0.00000   0.00000
   5        5S         -0.01186   0.00000  -0.00000   0.00000   0.00000
   6        6PX         0.00000   0.00000   0.00000   0.00000  -0.00000
   7        6PY         0.00000   0.00000   0.00000   0.00000   0.00000
   8        6PZ         0.00000   0.00000   0.00000   0.00000   0.00000
   9        7PX         0.00000   0.00000   0.00000   0.00000   0.00000
  10        7PY         0.00000   0.00000   0.00000   0.00000   0.00000
  11        7PZ         0.00000   0.00000   0.00000   0.00000   0.00000
  12        8PX         0.00000   0.00000   0.00000   0.00000  -0.00000
  13        8PY         0.00000   0.00000   0.00000   0.00000   0.00000
  14        8PZ         0.00000   0.00000   0.00000   0.00000   0.00000
  15        9PX         0.00000   0.00000   0.00000   0.00000  -0.00000
  16        9PY         0.00000   0.00000   0.00000   0.00000   0.00000
  17        9PZ         0.00000   0.00000   0.00000   0.00000   0.00000
  18       10D 0       -0.61999   0.00000   1.07399   0.00000   0.00000
  19       10D+1        0.00000   0.00000   0.00000   0.00000   0.00000
  20       10D-1        0.00000   1.24014   0.00000   0.00000   0.00000
  21       10D+2        1.07385   0.00000   0.62007   0.00000   0.00000
  22       10D-2        0.00000   0.00000   0.00000   0.00000   0.00000
  23       11D 0        0.43175   0.00000  -0.74185   0.00000   0.00000
  24       11D+1        0.00000   0.00000   0.00000   0.00000   0.00000
  25       11D-1        0.00000  -0.85662   0.00000   0.00000   0.00000
  26       11D+2       -0.74781   0.00000  -0.42831   0.00000   0.00000
  27       11D-2        0.00000   0.00000   0.00000   0.00000   0.00000
  28       12D 0       -0.14724   0.00000   0.25309   0.00000   0.00000
  29       12D+1        0.00000   0.00000   0.00000   0.00000   0.00000
  30       12D-1        0.00000   0.29224   0.00000   0.00000   0.00000
  31       12D+2        0.25502   0.00000   0.14612   0.00000   0.00000
  32       12D-2        0.00000   0.00000   0.00000   0.00000   0.00000
  33       13F 0        0.00000   0.00000   0.00000   0.00000   0.00000
  34       13F+1        0.00000   0.00000   0.00000   0.00000   0.92393
  35       13F-1        0.00000   0.00000   0.00000   0.00000   0.00000
  36       13F+2        0.00000   0.00000   0.00000   0.00000   0.00000
  37       13F-2        0.00000   0.00000   0.00000   1.16869   0.00000
  38       13F+3        0.00000   0.00000   0.00000   0.00000   0.71567
  39       13F-3        0.00000   0.00000   0.00000   0.00000   0.00000
  40       14F 0        0.00000   0.00000   0.00000   0.00000   0.00000
  41       14F+1        0.00000   0.00000   0.00000   0.00000  -0.41781
  42       14F-1        0.00000   0.00000   0.00000   0.00000   0.00000
  43       14F+2        0.00000   0.00000   0.00000   0.00000   0.00000
  44       14F-2        0.00000   0.00000   0.00000  -0.52849   0.00000
  45       14F+3        0.00000   0.00000   0.00000   0.00000  -0.32363
  46       14F-3        0.00000   0.00000   0.00000   0.00000   0.00000
                          41        42        43        44        45
                           V         V         V         V         V
     Eigenvalues --     1.97333   1.97438   1.97438   1.98230   1.98230
   1 1   B  1S          0.00000   0.00000   0.00000   0.00000   0.00000
   2        2S          0.00000   0.00000   0.00000   0.00000   0.00000
   3        3S          0.00000   0.00000   0.00000   0.00000   0.00000
   4        4S          0.00000   0.00000   0.00000   0.00000   0.00000
   5        5S          0.00000   0.00000   0.00000   0.00000   0.00000
   6        6PX        -0.00584   0.00000   0.00000   0.00000   0.00000
   7        6PY         0.00000   0.00000  -0.00397   0.00000   0.00000
   8        6PZ         0.00000  -0.00397   0.00000  -0.00000   0.00000
   9        7PX         0.00494   0.00000   0.00000   0.00000   0.00000
  10        7PY         0.00000   0.00000  -0.00302   0.00000  -0.00000
  11        7PZ         0.00000  -0.00302   0.00000   0.00000   0.00000
  12        8PX        -0.00313   0.00000   0.00000   0.00000   0.00000
  13        8PY         0.00000   0.00000   0.00175   0.00000  -0.00000
  14        8PZ         0.00000   0.00175   0.00000   0.00000   0.00000
  15        9PX         0.00088   0.00000   0.00000   0.00000   0.00000
  16        9PY         0.00000   0.00000  -0.00042   0.00000   0.00000
  17        9PZ         0.00000  -0.00042   0.00000  -0.00000   0.00000
  18       10D 0        0.00000   0.00000   0.00000   0.00000   0.00000
  19       10D+1        0.00000   0.00000   0.00000   0.00000   0.00000
  20       10D-1        0.00000   0.00000   0.00000   0.00000   0.00000
  21       10D+2        0.00000   0.00000   0.00000   0.00000   0.00000
  22       10D-2        0.00000   0.00000   0.00000   0.00000   0.00000
  23       11D 0        0.00000   0.00000   0.00000   0.00000   0.00000
  24       11D+1        0.00000   0.00000   0.00000   0.00000   0.00000
  25       11D-1        0.00000   0.00000   0.00000   0.00000   0.00000
  26       11D+2        0.00000   0.00000   0.00000   0.00000   0.00000
  27       11D-2        0.00000   0.00000   0.00000   0.00000   0.00000
  28       12D 0        0.00000   0.00000   0.00000   0.00000   0.00000
  29       12D+1        0.00000   0.00000   0.00000   0.00000   0.00000
  30       12D-1        0.00000   0.00000   0.00000   0.00000   0.00000
  31       12D+2        0.00000   0.00000   0.00000   0.00000   0.00000
  32       12D-2        0.00000   0.00000   0.00000   0.00000   0.00000
  33       13F 0        0.00000  -0.71567   0.00000   0.92383   0.00000
  34       13F+1       -0.71567   0.00000   0.00000   0.00000   0.00000
  35       13F-1        0.00000   0.00000  -0.29217   0.00000   1.13145
  36       13F+2        0.00000   0.92392   0.00000   0.71559   0.00000
  37       13F-2        0.00000   0.00000   0.00000   0.00000   0.00000
  38       13F+3        0.92393   0.00000   0.00000   0.00000   0.00000
  39       13F-3        0.00000   0.00000   1.13157   0.00000   0.29214
  40       14F 0        0.00000   0.32365   0.00000  -0.41668   0.00000
  41       14F+1        0.32368   0.00000   0.00000   0.00000   0.00000
  42       14F-1        0.00000   0.00000   0.13213   0.00000  -0.51033
  43       14F+2        0.00000  -0.41783   0.00000  -0.32276   0.00000
  44       14F-2        0.00000   0.00000   0.00000   0.00000   0.00000
  45       14F+3       -0.41786   0.00000   0.00000   0.00000   0.00000
  46       14F-3        0.00000   0.00000  -0.51174   0.00000  -0.13177
                          46
                           V
     Eigenvalues --     2.81062
   1 1   B  1S          1.23718
   2        2S          3.52016
   3        3S         -2.55606
   4        4S         -2.35701
   5        5S          0.76270
   6        6PX         0.00000
   7        6PY         0.00000
   8        6PZ         0.00000
   9        7PX         0.00000
  10        7PY         0.00000
  11        7PZ         0.00000
  12        8PX         0.00000
  13        8PY         0.00000
  14        8PZ         0.00000
  15        9PX         0.00000
  16        9PY         0.00000
  17        9PZ         0.00000
  18       10D 0       -0.00479
  19       10D+1        0.00000
  20       10D-1        0.00000
  21       10D+2        0.00830
  22       10D-2        0.00000
  23       11D 0        0.00335
  24       11D+1        0.00000
  25       11D-1        0.00000
  26       11D+2       -0.00579
  27       11D-2        0.00000
  28       12D 0       -0.00108
  29       12D+1        0.00000
  30       12D-1        0.00000
  31       12D+2        0.00187
  32       12D-2        0.00000
  33       13F 0        0.00000
  34       13F+1        0.00000
  35       13F-1        0.00000
  36       13F+2        0.00000
  37       13F-2        0.00000
  38       13F+3        0.00000
  39       13F-3        0.00000
  40       14F 0        0.00000
  41       14F+1        0.00000
  42       14F-1        0.00000
  43       14F+2        0.00000
  44       14F-2        0.00000
  45       14F+3        0.00000
  46       14F-3        0.00000
     Beta Molecular Orbital Coefficients:
                           1         2         3         4         5
                       (A1G)--O      O         V         V         V
     Eigenvalues --    -6.85141  -0.35340  -0.09014  -0.09014  -0.05635
   1 1   B  1S          0.97511  -0.21180   0.00000   0.00000   0.00000
   2        2S         -0.01271   0.52823   0.00000   0.00000   0.00000
   3        3S          0.04971   0.13757   0.00000   0.00000   0.00000
   4        4S          0.00320   0.41673   0.00000   0.00000   0.00000
   5        5S         -0.00056   0.01374   0.00000   0.00000   0.00000
   6        6PX         0.00000   0.00000   0.00000   0.00000   0.28575
   7        6PY         0.00000   0.00000   0.00000   0.31254   0.00000
   8        6PZ         0.00000   0.00000   0.31254   0.00000   0.00000
   9        7PX         0.00000   0.00000   0.00000   0.00000   0.35762
  10        7PY         0.00000   0.00000   0.00000   0.41512   0.00000
  11        7PZ         0.00000   0.00000   0.41512   0.00000   0.00000
  12        8PX         0.00000   0.00000   0.00000   0.00000   0.44298
  13        8PY         0.00000   0.00000   0.00000   0.42330   0.00000
  14        8PZ         0.00000   0.00000   0.42330   0.00000   0.00000
  15        9PX         0.00000   0.00000   0.00000   0.00000   0.20748
  16        9PY         0.00000   0.00000   0.00000   0.10789   0.00000
  17        9PZ         0.00000   0.00000   0.10789   0.00000   0.00000
  18       10D 0        0.00037   0.00710   0.00000   0.00000   0.00000
  19       10D+1        0.00000   0.00000   0.00000   0.00000   0.00000
  20       10D-1        0.00000   0.00000   0.00000   0.00000   0.00000
  21       10D+2       -0.00064  -0.01230   0.00000   0.00000   0.00000
  22       10D-2        0.00000   0.00000   0.00000   0.00000   0.00000
  23       11D 0       -0.00016   0.01102   0.00000   0.00000   0.00000
  24       11D+1        0.00000   0.00000   0.00000   0.00000   0.00000
  25       11D-1        0.00000   0.00000   0.00000   0.00000   0.00000
  26       11D+2        0.00027  -0.01909   0.00000   0.00000   0.00000
  27       11D-2        0.00000   0.00000   0.00000   0.00000   0.00000
  28       12D 0        0.00006   0.00070   0.00000   0.00000   0.00000
  29       12D+1        0.00000   0.00000   0.00000   0.00000   0.00000
  30       12D-1        0.00000   0.00000   0.00000   0.00000   0.00000
  31       12D+2       -0.00010  -0.00121   0.00000   0.00000   0.00000
  32       12D-2        0.00000   0.00000   0.00000   0.00000   0.00000
  33       13F 0        0.00000   0.00000   0.00530   0.00000   0.00000
  34       13F+1        0.00000   0.00000   0.00000   0.00000   0.00569
  35       13F-1        0.00000   0.00000   0.00000   0.00216   0.00000
  36       13F+2        0.00000   0.00000  -0.00684   0.00000   0.00000
  37       13F-2        0.00000   0.00000   0.00000   0.00000   0.00000
  38       13F+3        0.00000   0.00000   0.00000   0.00000  -0.00734
  39       13F-3        0.00000   0.00000   0.00000  -0.00838   0.00000
  40       14F 0        0.00000   0.00000   0.00520   0.00000   0.00000
  41       14F+1        0.00000   0.00000   0.00000   0.00000   0.00738
  42       14F-1        0.00000   0.00000   0.00000   0.00212   0.00000
  43       14F+2        0.00000   0.00000  -0.00671   0.00000   0.00000
  44       14F-2        0.00000   0.00000   0.00000   0.00000   0.00000
  45       14F+3        0.00000   0.00000   0.00000   0.00000  -0.00953
  46       14F-3        0.00000   0.00000   0.00000  -0.00822   0.00000
                           6         7         8         9        10
                           V         V         V         V         V
     Eigenvalues --     0.02119   0.03523   0.03523   0.03987   0.12732
   1 1   B  1S          0.08039   0.00000   0.00000   0.00000   0.00000
   2        2S         -0.13130   0.00000   0.00000   0.00000   0.00000
   3        3S         -0.05949   0.00000   0.00000   0.00000   0.00000
   4        4S         -0.91218   0.00000   0.00000   0.00000   0.00000
   5        5S          1.56685   0.00000   0.00000   0.00000   0.00000
   6        6PX         0.00000   0.00000   0.00000  -0.16352   0.00000
   7        6PY         0.00000  -0.14084   0.00000   0.00000   0.00000
   8        6PZ         0.00000   0.00000  -0.14084   0.00000   0.00000
   9        7PX         0.00000   0.00000   0.00000  -0.16181   0.00000
  10        7PY         0.00000  -0.15061   0.00000   0.00000   0.00000
  11        7PZ         0.00000   0.00000  -0.15061   0.00000   0.00000
  12        8PX         0.00000   0.00000   0.00000  -0.46639   0.00000
  13        8PY         0.00000  -0.36289   0.00000   0.00000   0.00000
  14        8PZ         0.00000   0.00000  -0.36289   0.00000   0.00000
  15        9PX         0.00000   0.00000   0.00000   1.14496   0.00000
  16        9PY         0.00000   1.13919   0.00000   0.00000   0.00000
  17        9PZ         0.00000   0.00000   1.13919   0.00000   0.00000
  18       10D 0       -0.00283   0.00000   0.00000   0.00000   0.00000
  19       10D+1        0.00000   0.00000   0.00000   0.00000   0.00000
  20       10D-1        0.00000   0.00000   0.00000   0.00000   0.03301
  21       10D+2        0.00490   0.00000   0.00000   0.00000   0.00000
  22       10D-2        0.00000   0.00000   0.00000   0.00000   0.00000
  23       11D 0       -0.00091   0.00000   0.00000   0.00000   0.00000
  24       11D+1        0.00000   0.00000   0.00000   0.00000   0.00000
  25       11D-1        0.00000   0.00000   0.00000   0.00000  -0.03938
  26       11D+2        0.00157   0.00000   0.00000   0.00000   0.00000
  27       11D-2        0.00000   0.00000   0.00000   0.00000   0.00000
  28       12D 0        0.00514   0.00000   0.00000   0.00000   0.00000
  29       12D+1        0.00000   0.00000   0.00000   0.00000   0.00000
  30       12D-1        0.00000   0.00000   0.00000   0.00000   1.01724
  31       12D+2       -0.00891   0.00000   0.00000   0.00000   0.00000
  32       12D-2        0.00000   0.00000   0.00000   0.00000   0.00000
  33       13F 0        0.00000   0.00000  -0.00214   0.00000   0.00000
  34       13F+1        0.00000   0.00000   0.00000  -0.00314   0.00000
  35       13F-1        0.00000  -0.00087   0.00000   0.00000   0.00000
  36       13F+2        0.00000   0.00000   0.00277   0.00000   0.00000
  37       13F-2        0.00000   0.00000   0.00000   0.00000   0.00000
  38       13F+3        0.00000   0.00000   0.00000   0.00406   0.00000
  39       13F-3        0.00000   0.00339   0.00000   0.00000   0.00000
  40       14F 0        0.00000   0.00000  -0.00063   0.00000   0.00000
  41       14F+1        0.00000   0.00000   0.00000  -0.00152   0.00000
  42       14F-1        0.00000  -0.00026   0.00000   0.00000   0.00000
  43       14F+2        0.00000   0.00000   0.00081   0.00000   0.00000
  44       14F-2        0.00000   0.00000   0.00000   0.00000   0.00000
  45       14F+3        0.00000   0.00000   0.00000   0.00196   0.00000
  46       14F-3        0.00000   0.00099   0.00000   0.00000   0.00000
                          11        12        13        14        15
                           V         V         V         V         V
     Eigenvalues --     0.12732   0.13035   0.13035   0.13316   0.25715
   1 1   B  1S         -0.00000   0.00000   0.00000  -0.00338   0.00000
   2        2S          0.00000   0.00000   0.00000   0.02900   0.00000
   3        3S          0.00000   0.00000   0.00000   0.00783   0.00000
   4        4S         -0.00000   0.00000   0.00000  -0.04280   0.00000
   5        5S          0.00000   0.00000   0.00000   0.03207   0.00000
   6        6PX         0.00000   0.00000   0.00000   0.00000   0.00000
   7        6PY         0.00000   0.00000   0.00000   0.00000  -0.28088
   8        6PZ         0.00000   0.00000   0.00000   0.00000   0.00000
   9        7PX         0.00000   0.00000   0.00000   0.00000   0.00000
  10        7PY         0.00000   0.00000   0.00000   0.00000  -0.90375
  11        7PZ         0.00000   0.00000   0.00000   0.00000   0.00000
  12        8PX         0.00000   0.00000   0.00000   0.00000   0.00000
  13        8PY         0.00000   0.00000   0.00000   0.00000   1.58895
  14        8PZ         0.00000   0.00000   0.00000   0.00000   0.00000
  15        9PX         0.00000   0.00000   0.00000   0.00000   0.00000
  16        9PY         0.00000   0.00000   0.00000   0.00000  -0.67955
  17        9PZ         0.00000   0.00000   0.00000   0.00000   0.00000
  18       10D 0        0.02858   0.00000   0.00000  -0.01632   0.00000
  19       10D+1        0.00000   0.00000   0.03310   0.00000   0.00000
  20       10D-1        0.00000   0.00000   0.00000   0.00000   0.00000
  21       10D+2        0.01650   0.00000   0.00000   0.02826   0.00000
  22       10D-2        0.00000   0.03310   0.00000   0.00000   0.00000
  23       11D 0       -0.03410   0.00000   0.00000   0.03213   0.00000
  24       11D+1        0.00000   0.00000  -0.05968   0.00000   0.00000
  25       11D-1        0.00000   0.00000   0.00000   0.00000   0.00000
  26       11D+2       -0.01969   0.00000   0.00000  -0.05566   0.00000
  27       11D-2        0.00000  -0.05968   0.00000   0.00000   0.00000
  28       12D 0        0.88096   0.00000   0.00000  -0.51518   0.00000
  29       12D+1        0.00000   0.00000   1.02813   0.00000   0.00000
  30       12D-1        0.00000   0.00000   0.00000   0.00000   0.00000
  31       12D+2        0.50862   0.00000   0.00000   0.89232   0.00000
  32       12D-2        0.00000   1.02813   0.00000   0.00000   0.00000
  33       13F 0        0.00000   0.00000   0.00000   0.00000   0.00000
  34       13F+1        0.00000   0.00000   0.00000   0.00000   0.00000
  35       13F-1        0.00000   0.00000   0.00000   0.00000  -0.00203
  36       13F+2        0.00000   0.00000   0.00000   0.00000   0.00000
  37       13F-2        0.00000   0.00000   0.00000   0.00000   0.00000
  38       13F+3        0.00000   0.00000   0.00000   0.00000   0.00000
  39       13F-3        0.00000   0.00000   0.00000   0.00000   0.00785
  40       14F 0        0.00000   0.00000   0.00000   0.00000   0.00000
  41       14F+1        0.00000   0.00000   0.00000   0.00000   0.00000
  42       14F-1        0.00000   0.00000   0.00000   0.00000   0.00309
  43       14F+2        0.00000   0.00000   0.00000   0.00000   0.00000
  44       14F-2        0.00000   0.00000   0.00000   0.00000   0.00000
  45       14F+3        0.00000   0.00000   0.00000   0.00000   0.00000
  46       14F-3        0.00000   0.00000   0.00000   0.00000  -0.01195
                          16        17        18        19        20
                           V         V         V         V         V
     Eigenvalues --     0.25715   0.27715   0.39402   0.52313   0.52313
   1 1   B  1S          0.00000   0.00000   0.05387   0.00000  -0.00000
   2        2S          0.00000   0.00000  -1.56371   0.00000   0.00000
   3        3S          0.00000   0.00000  -0.40481   0.00000   0.00000
   4        4S          0.00000   0.00000   2.84151   0.00000  -0.00000
   5        5S          0.00000   0.00000  -1.26712   0.00000   0.00000
   6        6PX         0.00000  -0.28816   0.00000   0.00000   0.00000
   7        6PY         0.00000   0.00000   0.00000   0.00000   0.00000
   8        6PZ        -0.28088   0.00000   0.00000   0.00000   0.00000
   9        7PX         0.00000  -0.93821   0.00000   0.00000   0.00000
  10        7PY         0.00000   0.00000   0.00000   0.00000   0.00000
  11        7PZ        -0.90375   0.00000   0.00000   0.00000   0.00000
  12        8PX         0.00000   1.56372   0.00000   0.00000   0.00000
  13        8PY         0.00000   0.00000   0.00000   0.00000   0.00000
  14        8PZ         1.58895   0.00000   0.00000   0.00000   0.00000
  15        9PX         0.00000  -0.64777   0.00000   0.00000   0.00000
  16        9PY         0.00000   0.00000   0.00000   0.00000   0.00000
  17        9PZ        -0.67955   0.00000   0.00000   0.00000   0.00000
  18       10D 0        0.00000   0.00000  -0.00901   0.00000  -0.00506
  19       10D+1        0.00000   0.00000   0.00000   0.00000   0.00000
  20       10D-1        0.00000   0.00000   0.00000  -0.00584   0.00000
  21       10D+2        0.00000   0.00000   0.01561   0.00000  -0.00292
  22       10D-2        0.00000   0.00000   0.00000   0.00000   0.00000
  23       11D 0        0.00000   0.00000   0.01846   0.00000   1.04473
  24       11D+1        0.00000   0.00000   0.00000   0.00000   0.00000
  25       11D-1        0.00000   0.00000   0.00000   1.20635   0.00000
  26       11D+2        0.00000   0.00000  -0.03198   0.00000   0.60317
  27       11D-2        0.00000   0.00000   0.00000   0.00000   0.00000
  28       12D 0        0.00000   0.00000  -0.01587   0.00000  -0.56753
  29       12D+1        0.00000   0.00000   0.00000   0.00000   0.00000
  30       12D-1        0.00000   0.00000   0.00000  -0.65533   0.00000
  31       12D+2        0.00000   0.00000   0.02749   0.00000  -0.32767
  32       12D-2        0.00000   0.00000   0.00000   0.00000   0.00000
  33       13F 0       -0.00496   0.00000   0.00000   0.00000   0.00000
  34       13F+1        0.00000  -0.00670   0.00000   0.00000   0.00000
  35       13F-1        0.00000   0.00000   0.00000   0.00000   0.00000
  36       13F+2        0.00641   0.00000   0.00000   0.00000   0.00000
  37       13F-2        0.00000   0.00000   0.00000   0.00000   0.00000
  38       13F+3        0.00000   0.00865   0.00000   0.00000   0.00000
  39       13F-3        0.00000   0.00000   0.00000   0.00000   0.00000
  40       14F 0        0.00756   0.00000   0.00000   0.00000   0.00000
  41       14F+1        0.00000   0.01041   0.00000   0.00000   0.00000
  42       14F-1        0.00000   0.00000   0.00000   0.00000   0.00000
  43       14F+2       -0.00976   0.00000   0.00000   0.00000   0.00000
  44       14F-2        0.00000   0.00000   0.00000   0.00000   0.00000
  45       14F+3        0.00000  -0.01343   0.00000   0.00000   0.00000
  46       14F-3        0.00000   0.00000   0.00000   0.00000   0.00000
                          21        22        23        24        25
                           V         V         V         V         V
     Eigenvalues --     0.54326   0.54326   0.55054   0.55546   0.55546
   1 1   B  1S          0.00000   0.00000  -0.00961   0.00000   0.00000
   2        2S          0.00000   0.00000  -0.03005   0.00000   0.00000
   3        3S          0.00000   0.00000   0.00576   0.00000   0.00000
   4        4S          0.00000   0.00000   0.08116   0.00000   0.00000
   5        5S          0.00000   0.00000  -0.03484   0.00000   0.00000
   6        6PX         0.00000   0.00000   0.00000   0.00000   0.00000
   7        6PY         0.00000   0.00000   0.00000   0.00000  -0.00000
   8        6PZ         0.00000   0.00000   0.00000   0.00000   0.00000
   9        7PX         0.00000   0.00000   0.00000   0.00000   0.00000
  10        7PY         0.00000   0.00000   0.00000   0.00000  -0.00000
  11        7PZ         0.00000   0.00000   0.00000   0.00000   0.00000
  12        8PX         0.00000   0.00000   0.00000   0.00000   0.00000
  13        8PY         0.00000   0.00000   0.00000   0.00000   0.00000
  14        8PZ         0.00000   0.00000   0.00000  -0.00000   0.00000
  15        9PX         0.00000   0.00000   0.00000   0.00000   0.00000
  16        9PY         0.00000   0.00000   0.00000   0.00000  -0.00000
  17        9PZ         0.00000   0.00000   0.00000   0.00000   0.00000
  18       10D 0        0.00000   0.00000   0.00781   0.00000   0.00000
  19       10D+1       -0.01331   0.00000   0.00000   0.00000   0.00000
  20       10D-1        0.00000   0.00000   0.00000   0.00000   0.00000
  21       10D+2        0.00000   0.00000  -0.01352   0.00000   0.00000
  22       10D-2        0.00000  -0.01331   0.00000   0.00000   0.00000
  23       11D 0        0.00000   0.00000  -0.60587   0.00000   0.00000
  24       11D+1        1.21103   0.00000   0.00000   0.00000   0.00000
  25       11D-1        0.00000   0.00000   0.00000   0.00000   0.00000
  26       11D+2        0.00000   0.00000   1.04940   0.00000   0.00000
  27       11D-2        0.00000   1.21103   0.00000   0.00000   0.00000
  28       12D 0        0.00000   0.00000   0.31803   0.00000   0.00000
  29       12D+1       -0.63999   0.00000   0.00000   0.00000   0.00000
  30       12D-1        0.00000   0.00000   0.00000   0.00000   0.00000
  31       12D+2        0.00000   0.00000  -0.55084   0.00000   0.00000
  32       12D-2        0.00000  -0.63999   0.00000   0.00000   0.00000
  33       13F 0        0.00000   0.00000   0.00000  -0.07727   0.00000
  34       13F+1        0.00000   0.00000   0.00000   0.00000   0.00000
  35       13F-1        0.00000   0.00000   0.00000   0.00000  -0.09464
  36       13F+2        0.00000   0.00000   0.00000  -0.05986   0.00000
  37       13F-2        0.00000   0.00000   0.00000   0.00000   0.00000
  38       13F+3        0.00000   0.00000   0.00000   0.00000   0.00000
  39       13F-3        0.00000   0.00000   0.00000   0.00000  -0.02444
  40       14F 0        0.00000   0.00000   0.00000   0.82818   0.00000
  41       14F+1        0.00000   0.00000   0.00000   0.00000   0.00000
  42       14F-1        0.00000   0.00000   0.00000   0.00000   1.01430
  43       14F+2        0.00000   0.00000   0.00000   0.64150   0.00000
  44       14F-2        0.00000   0.00000   0.00000   0.00000   0.00000
  45       14F+3        0.00000   0.00000   0.00000   0.00000   0.00000
  46       14F-3        0.00000   0.00000   0.00000   0.00000   0.26189
                          26        27        28        29        30
                       (A2U)--V      V         V         V         V
     Eigenvalues --     0.56418   0.56418   0.56998   0.56998   0.57208
   1 1   B  1S          0.00000   0.00000   0.00000   0.00000   0.00000
   2        2S          0.00000   0.00000   0.00000   0.00000   0.00000
   3        3S          0.00000   0.00000   0.00000   0.00000   0.00000
   4        4S          0.00000   0.00000   0.00000   0.00000   0.00000
   5        5S          0.00000   0.00000   0.00000   0.00000   0.00000
   6        6PX         0.00000   0.00000   0.00000   0.00000   0.01168
   7        6PY         0.00000   0.00000   0.01079   0.00000   0.00000
   8        6PZ         0.00000   0.00000   0.00000   0.01079   0.00000
   9        7PX         0.00000   0.00000   0.00000   0.00000  -0.01713
  10        7PY         0.00000   0.00000  -0.01382   0.00000   0.00000
  11        7PZ         0.00000   0.00000   0.00000  -0.01382   0.00000
  12        8PX         0.00000  -0.00000   0.00000   0.00000   0.03504
  13        8PY         0.00000   0.00000   0.02634   0.00000   0.00000
  14        8PZ         0.00000   0.00000   0.00000   0.02634   0.00000
  15        9PX         0.00000   0.00000   0.00000   0.00000  -0.01190
  16        9PY         0.00000   0.00000  -0.00939   0.00000   0.00000
  17        9PZ         0.00000   0.00000   0.00000  -0.00939   0.00000
  18       10D 0        0.00000   0.00000   0.00000   0.00000   0.00000
  19       10D+1        0.00000   0.00000   0.00000   0.00000   0.00000
  20       10D-1        0.00000   0.00000   0.00000   0.00000   0.00000
  21       10D+2        0.00000   0.00000   0.00000   0.00000   0.00000
  22       10D-2        0.00000   0.00000   0.00000   0.00000   0.00000
  23       11D 0        0.00000   0.00000   0.00000   0.00000   0.00000
  24       11D+1        0.00000   0.00000   0.00000   0.00000   0.00000
  25       11D-1        0.00000   0.00000   0.00000   0.00000   0.00000
  26       11D+2        0.00000   0.00000   0.00000   0.00000   0.00000
  27       11D-2        0.00000   0.00000   0.00000   0.00000   0.00000
  28       12D 0        0.00000   0.00000   0.00000   0.00000   0.00000
  29       12D+1        0.00000   0.00000   0.00000   0.00000   0.00000
  30       12D-1        0.00000   0.00000   0.00000   0.00000   0.00000
  31       12D+2        0.00000   0.00000   0.00000   0.00000   0.00000
  32       12D-2        0.00000   0.00000   0.00000   0.00000   0.00000
  33       13F 0        0.00000   0.00000   0.00000   0.06349   0.00000
  34       13F+1        0.00000  -0.08043   0.00000   0.00000   0.06396
  35       13F-1        0.00000   0.00000   0.02592   0.00000   0.00000
  36       13F+2        0.00000   0.00000   0.00000  -0.08197   0.00000
  37       13F-2       -0.10174   0.00000   0.00000   0.00000   0.00000
  38       13F+3        0.00000  -0.06230   0.00000   0.00000  -0.08258
  39       13F-3        0.00000   0.00000  -0.10039   0.00000   0.00000
  40       14F 0        0.00000   0.00000   0.00000  -0.64305   0.00000
  41       14F+1        0.00000   0.82959   0.00000   0.00000  -0.64319
  42       14F-1        0.00000   0.00000  -0.26252   0.00000   0.00000
  43       14F+2        0.00000   0.00000   0.00000   0.83017   0.00000
  44       14F-2        1.04936   0.00000   0.00000   0.00000   0.00000
  45       14F+3        0.00000   0.64260   0.00000   0.00000   0.83036
  46       14F-3        0.00000   0.00000   1.01675   0.00000   0.00000
                          31        32        33        34        35
                           V         V         V     (T2G)--V      V
     Eigenvalues --     1.26582   1.26582   1.29876   1.86667   1.86667
   1 1   B  1S          0.00000   0.00000   0.00000   0.00000   0.00000
   2        2S          0.00000   0.00000   0.00000   0.00000   0.00000
   3        3S          0.00000   0.00000   0.00000   0.00000  -0.00000
   4        4S          0.00000   0.00000   0.00000   0.00000  -0.00000
   5        5S          0.00000   0.00000   0.00000   0.00000   0.00000
   6        6PX         0.00000   0.00000  -1.28729   0.00000   0.00000
   7        6PY        -1.28537   0.00000   0.00000   0.00000   0.00000
   8        6PZ         0.00000  -1.28537   0.00000   0.00000   0.00000
   9        7PX         0.00000   0.00000   1.62629   0.00000   0.00000
  10        7PY         1.63333   0.00000   0.00000   0.00000   0.00000
  11        7PZ         0.00000   1.63333   0.00000   0.00000   0.00000
  12        8PX         0.00000   0.00000  -0.89721   0.00000   0.00000
  13        8PY        -0.91046   0.00000   0.00000   0.00000   0.00000
  14        8PZ         0.00000  -0.91046   0.00000   0.00000   0.00000
  15        9PX         0.00000   0.00000   0.26269   0.00000   0.00000
  16        9PY         0.26735   0.00000   0.00000   0.00000   0.00000
  17        9PZ         0.00000   0.26735   0.00000   0.00000   0.00000
  18       10D 0        0.00000   0.00000   0.00000   0.00000   1.07399
  19       10D+1        0.00000   0.00000   0.00000   0.00000   0.00000
  20       10D-1        0.00000   0.00000   0.00000   1.24013   0.00000
  21       10D+2        0.00000   0.00000   0.00000   0.00000   0.62007
  22       10D-2        0.00000   0.00000   0.00000   0.00000   0.00000
  23       11D 0        0.00000   0.00000   0.00000   0.00000  -0.74132
  24       11D+1        0.00000   0.00000   0.00000   0.00000   0.00000
  25       11D-1        0.00000   0.00000   0.00000  -0.85600   0.00000
  26       11D+2        0.00000   0.00000   0.00000   0.00000  -0.42800
  27       11D-2        0.00000   0.00000   0.00000   0.00000   0.00000
  28       12D 0        0.00000   0.00000   0.00000   0.00000   0.25278
  29       12D+1        0.00000   0.00000   0.00000   0.00000   0.00000
  30       12D-1        0.00000   0.00000   0.00000   0.29189   0.00000
  31       12D+2        0.00000   0.00000   0.00000   0.00000   0.14594
  32       12D-2        0.00000   0.00000   0.00000   0.00000   0.00000
  33       13F 0        0.00000   0.00631   0.00000   0.00000   0.00000
  34       13F+1        0.00000   0.00000   0.00782   0.00000   0.00000
  35       13F-1        0.00257   0.00000   0.00000   0.00000   0.00000
  36       13F+2        0.00000  -0.00814   0.00000   0.00000   0.00000
  37       13F-2        0.00000   0.00000   0.00000   0.00000   0.00000
  38       13F+3        0.00000   0.00000  -0.01009   0.00000   0.00000
  39       13F-3       -0.00997   0.00000   0.00000   0.00000   0.00000
  40       14F 0        0.00000  -0.00713   0.00000   0.00000   0.00000
  41       14F+1        0.00000   0.00000  -0.00815   0.00000   0.00000
  42       14F-1       -0.00291   0.00000   0.00000   0.00000   0.00000
  43       14F+2        0.00000   0.00921   0.00000   0.00000   0.00000
  44       14F-2        0.00000   0.00000   0.00000   0.00000   0.00000
  45       14F+3        0.00000   0.00000   0.01052   0.00000   0.00000
  46       14F-3        0.01128   0.00000   0.00000   0.00000   0.00000
                          36        37        38        39        40
                       (T2G)--V  (T2G)--V      V         V         V
     Eigenvalues --     1.90016   1.90016   1.91107   1.97897   1.97897
   1 1   B  1S          0.00000   0.00000   0.00014   0.00000   0.00000
   2        2S          0.00000   0.00000   0.03725   0.00000   0.00000
   3        3S          0.00000   0.00000   0.00107   0.00000   0.00000
   4        4S          0.00000   0.00000  -0.03625   0.00000   0.00000
   5        5S          0.00000   0.00000   0.01209   0.00000   0.00000
   6        6PX         0.00000   0.00000   0.00000   0.00000   0.00000
   7        6PY         0.00000   0.00000   0.00000   0.00000  -0.00000
   8        6PZ         0.00000   0.00000   0.00000   0.00000   0.00000
   9        7PX         0.00000   0.00000   0.00000   0.00000   0.00000
  10        7PY         0.00000   0.00000   0.00000   0.00000   0.00000
  11        7PZ         0.00000   0.00000   0.00000  -0.00000   0.00000
  12        8PX         0.00000   0.00000   0.00000   0.00000   0.00000
  13        8PY         0.00000   0.00000   0.00000   0.00000  -0.00000
  14        8PZ         0.00000   0.00000   0.00000   0.00000   0.00000
  15        9PX         0.00000   0.00000   0.00000   0.00000   0.00000
  16        9PY         0.00000   0.00000   0.00000   0.00000   0.00000
  17        9PZ         0.00000   0.00000   0.00000  -0.00000   0.00000
  18       10D 0        0.00000   0.00000  -0.61992   0.00000   0.00000
  19       10D+1        0.00000   1.24007   0.00000   0.00000   0.00000
  20       10D-1        0.00000   0.00000   0.00000   0.00000   0.00000
  21       10D+2        0.00000   0.00000   1.07372   0.00000   0.00000
  22       10D-2        1.24007   0.00000   0.00000   0.00000   0.00000
  23       11D 0        0.00000   0.00000   0.42285   0.00000   0.00000
  24       11D+1        0.00000  -0.84818   0.00000   0.00000   0.00000
  25       11D-1        0.00000   0.00000   0.00000   0.00000   0.00000
  26       11D+2        0.00000   0.00000  -0.73239   0.00000   0.00000
  27       11D-2       -0.84818   0.00000   0.00000   0.00000   0.00000
  28       12D 0        0.00000   0.00000  -0.14328   0.00000   0.00000
  29       12D+1        0.00000   0.28775   0.00000   0.00000   0.00000
  30       12D-1        0.00000   0.00000   0.00000   0.00000   0.00000
  31       12D+2        0.00000   0.00000   0.24816   0.00000   0.00000
  32       12D-2        0.28775   0.00000   0.00000   0.00000   0.00000
  33       13F 0        0.00000   0.00000   0.00000   0.92382   0.00000
  34       13F+1        0.00000   0.00000   0.00000   0.00000   0.00000
  35       13F-1        0.00000   0.00000   0.00000   0.00000   1.13144
  36       13F+2        0.00000   0.00000   0.00000   0.71559   0.00000
  37       13F-2        0.00000   0.00000   0.00000   0.00000   0.00000
  38       13F+3        0.00000   0.00000   0.00000   0.00000   0.00000
  39       13F-3        0.00000   0.00000   0.00000   0.00000   0.29214
  40       14F 0        0.00000   0.00000   0.00000  -0.41658   0.00000
  41       14F+1        0.00000   0.00000   0.00000   0.00000   0.00000
  42       14F-1        0.00000   0.00000   0.00000   0.00000  -0.51020
  43       14F+2        0.00000   0.00000   0.00000  -0.32268   0.00000
  44       14F-2        0.00000   0.00000   0.00000   0.00000   0.00000
  45       14F+3        0.00000   0.00000   0.00000   0.00000   0.00000
  46       14F-3        0.00000   0.00000   0.00000   0.00000  -0.13173
                          41        42        43        44        45
                           V     (A2U)--V      V         V         V
     Eigenvalues --     2.00321   2.00321   2.01717   2.01717   2.02232
   1 1   B  1S          0.00000   0.00000   0.00000   0.00000   0.00000
   2        2S          0.00000   0.00000   0.00000   0.00000   0.00000
   3        3S          0.00000   0.00000   0.00000   0.00000   0.00000
   4        4S          0.00000   0.00000   0.00000   0.00000   0.00000
   5        5S          0.00000   0.00000   0.00000   0.00000   0.00000
   6        6PX         0.00000   0.00000   0.00000   0.00000  -0.00733
   7        6PY         0.00000   0.00000   0.00000  -0.00569   0.00000
   8        6PZ         0.00000   0.00000  -0.00569   0.00000   0.00000
   9        7PX        -0.00000   0.00000   0.00000   0.00000   0.02859
  10        7PY         0.00000   0.00000   0.00000   0.02298   0.00000
  11        7PZ         0.00000   0.00000   0.02298   0.00000   0.00000
  12        8PX         0.00000   0.00000   0.00000   0.00000  -0.01575
  13        8PY         0.00000   0.00000   0.00000  -0.01249   0.00000
  14        8PZ         0.00000   0.00000  -0.01249   0.00000   0.00000
  15        9PX        -0.00000   0.00000   0.00000   0.00000   0.00449
  16        9PY         0.00000   0.00000   0.00000   0.00363   0.00000
  17        9PZ         0.00000   0.00000   0.00363   0.00000   0.00000
  18       10D 0        0.00000   0.00000   0.00000   0.00000   0.00000
  19       10D+1        0.00000   0.00000   0.00000   0.00000   0.00000
  20       10D-1        0.00000   0.00000   0.00000   0.00000   0.00000
  21       10D+2        0.00000   0.00000   0.00000   0.00000   0.00000
  22       10D-2        0.00000   0.00000   0.00000   0.00000   0.00000
  23       11D 0        0.00000   0.00000   0.00000   0.00000   0.00000
  24       11D+1        0.00000   0.00000   0.00000   0.00000   0.00000
  25       11D-1        0.00000   0.00000   0.00000   0.00000   0.00000
  26       11D+2        0.00000   0.00000   0.00000   0.00000   0.00000
  27       11D-2        0.00000   0.00000   0.00000   0.00000   0.00000
  28       12D 0        0.00000   0.00000   0.00000   0.00000   0.00000
  29       12D+1        0.00000   0.00000   0.00000   0.00000   0.00000
  30       12D-1        0.00000   0.00000   0.00000   0.00000   0.00000
  31       12D+2        0.00000   0.00000   0.00000   0.00000   0.00000
  32       12D-2        0.00000   0.00000   0.00000   0.00000   0.00000
  33       13F 0        0.00000   0.00000  -0.71521   0.00000   0.00000
  34       13F+1        0.92355   0.00000   0.00000   0.00000  -0.71513
  35       13F-1        0.00000   0.00000   0.00000  -0.29198   0.00000
  36       13F+2        0.00000   0.00000   0.92333   0.00000   0.00000
  37       13F-2        0.00000   1.16821   0.00000   0.00000   0.00000
  38       13F+3        0.71538   0.00000   0.00000   0.00000   0.92323
  39       13F-3        0.00000   0.00000   0.00000   1.13084   0.00000
  40       14F 0        0.00000   0.00000   0.31938   0.00000   0.00000
  41       14F+1       -0.41374   0.00000   0.00000   0.00000   0.31893
  42       14F-1        0.00000   0.00000   0.00000   0.13039   0.00000
  43       14F+2        0.00000   0.00000  -0.41232   0.00000   0.00000
  44       14F-2        0.00000  -0.52335   0.00000   0.00000   0.00000
  45       14F+3       -0.32048   0.00000   0.00000   0.00000  -0.41174
  46       14F-3        0.00000   0.00000   0.00000  -0.50498   0.00000
                          46
                       (A1G)--V
     Eigenvalues --     2.82811
   1 1   B  1S          1.23671
   2        2S          3.51584
   3        3S         -2.55729
   4        4S         -2.34830
   5        5S          0.75918
   6        6PX         0.00000
   7        6PY         0.00000
   8        6PZ         0.00000
   9        7PX         0.00000
  10        7PY         0.00000
  11        7PZ         0.00000
  12        8PX         0.00000
  13        8PY         0.00000
  14        8PZ         0.00000
  15        9PX         0.00000
  16        9PY         0.00000
  17        9PZ         0.00000
  18       10D 0        0.00159
  19       10D+1        0.00000
  20       10D-1        0.00000
  21       10D+2       -0.00275
  22       10D-2        0.00000
  23       11D 0       -0.00340
  24       11D+1        0.00000
  25       11D-1        0.00000
  26       11D+2        0.00589
  27       11D-2        0.00000
  28       12D 0        0.00151
  29       12D+1        0.00000
  30       12D-1        0.00000
  31       12D+2       -0.00262
  32       12D-2        0.00000
  33       13F 0        0.00000
  34       13F+1        0.00000
  35       13F-1        0.00000
  36       13F+2        0.00000
  37       13F-2        0.00000
  38       13F+3        0.00000
  39       13F-3        0.00000
  40       14F 0        0.00000
  41       14F+1        0.00000
  42       14F-1        0.00000
  43       14F+2        0.00000
  44       14F-2        0.00000
  45       14F+3        0.00000
  46       14F-3        0.00000
     Alpha Density Matrix:
                           1         2         3         4         5
   1 1   B  1S          0.99502
   2        2S         -0.13209   0.30877
   3        3S          0.01941   0.07890   0.02318
   4        4S         -0.08039   0.21741   0.05627   0.15326
   5        5S         -0.00120   0.00140   0.00032   0.00098   0.00001
[...]
  33       13F 0        0.00000   0.00000   0.00000   0.00000   0.00000
  34       13F+1       -0.00000  -0.00000   0.00000   0.00000   0.00000
  35       13F-1        0.00000   0.00000   0.00000   0.00000   0.00000
  36       13F+2        0.00000   0.00000   0.00000   0.00000   0.00000
  37       13F-2        0.00000   0.00000   0.00000   0.00000   0.00000
  38       13F+3       -0.00000  -0.00000   0.00000   0.00000   0.00000
  39       13F-3        0.00000   0.00000   0.00000   0.00000   0.00000
  40       14F 0        0.00000   0.00000   0.00000   0.00000   0.00000
  41       14F+1       -0.00000   0.00000   0.00000   0.00000   0.00000
  42       14F-1       -0.00000   0.00000   0.00000   0.00000   0.00000
  43       14F+2        0.00000   0.00000   0.00000   0.00000   0.00000
  44       14F-2        0.00000   0.00000   0.00000   0.00000   0.00000
  45       14F+3        0.00000  -0.00000   0.00000   0.00000   0.00000
  46       14F-3       -0.00000   0.00000   0.00000   0.00000   0.00000
                          21        22        23        24        25
  21       10D+2        0.00025
  22       10D-2       -0.00000   0.00000
  23       11D 0        0.00000  -0.00000   0.00015
  24       11D+1        0.00000   0.00000  -0.00000   0.00000
  25       11D-1        0.00000   0.00000   0.00000   0.00000  -0.00000
  26       11D+2        0.00018  -0.00000   0.00000  -0.00000   0.00000
  27       11D-2        0.00000   0.00000  -0.00000   0.00000   0.00000
  28       12D 0        0.00000  -0.00000   0.00001   0.00000  -0.00000
  29       12D+1        0.00000   0.00000   0.00000   0.00000   0.00000
  30       12D-1       -0.00000   0.00000  -0.00000   0.00000  -0.00000
  31       12D+2        0.00001   0.00000   0.00000   0.00000   0.00000
  32       12D-2        0.00000   0.00000   0.00000   0.00000   0.00000
  33       13F 0        0.00000   0.00000   0.00000   0.00000   0.00000
  34       13F+1        0.00000   0.00000   0.00000   0.00000   0.00000
  35       13F-1        0.00000   0.00000   0.00000   0.00000   0.00000
  36       13F+2        0.00000   0.00000   0.00000   0.00000   0.00000
  37       13F-2        0.00000   0.00000   0.00000   0.00000   0.00000
  38       13F+3        0.00000   0.00000   0.00000   0.00000   0.00000
  39       13F-3        0.00000   0.00000   0.00000   0.00000   0.00000
  40       14F 0        0.00000   0.00000   0.00000   0.00000   0.00000
  41       14F+1        0.00000   0.00000   0.00000   0.00000   0.00000
  42       14F-1        0.00000   0.00000   0.00000   0.00000   0.00000
  43       14F+2        0.00000   0.00000   0.00000   0.00000   0.00000
  44       14F-2        0.00000   0.00000   0.00000   0.00000   0.00000
  45       14F+3        0.00000   0.00000   0.00000   0.00000   0.00000
  46       14F-3        0.00000   0.00000   0.00000   0.00000   0.00000
                          26        27        28        29        30
  26       11D+2        0.00046
  27       11D-2       -0.00000   0.00000
  28       12D 0       -0.00000   0.00000   0.00000
  29       12D+1        0.00000   0.00000  -0.00000   0.00000
  30       12D-1       -0.00000   0.00000  -0.00000   0.00000   0.00000
  31       12D+2        0.00003   0.00000   0.00000   0.00000  -0.00000
  32       12D-2        0.00000   0.00000  -0.00000   0.00000   0.00000
  33       13F 0        0.00000   0.00000   0.00000   0.00000   0.00000
  34       13F+1        0.00000   0.00000   0.00000   0.00000   0.00000
  35       13F-1        0.00000   0.00000   0.00000   0.00000   0.00000
  36       13F+2        0.00000   0.00000   0.00000   0.00000   0.00000
  37       13F-2        0.00000   0.00000   0.00000   0.00000   0.00000
  38       13F+3        0.00000   0.00000   0.00000   0.00000   0.00000
  39       13F-3        0.00000   0.00000   0.00000   0.00000   0.00000
  40       14F 0        0.00000   0.00000   0.00000   0.00000   0.00000
  41       14F+1        0.00000   0.00000   0.00000   0.00000   0.00000
  42       14F-1        0.00000   0.00000   0.00000   0.00000   0.00000
  43       14F+2        0.00000   0.00000   0.00000   0.00000   0.00000
  44       14F-2        0.00000   0.00000   0.00000   0.00000   0.00000
  45       14F+3        0.00000   0.00000   0.00000   0.00000   0.00000
  46       14F-3        0.00000   0.00000   0.00000   0.00000   0.00000
                          31        32        33        34        35
  31       12D+2        0.00001
  32       12D-2        0.00000   0.00000
  33       13F 0        0.00000   0.00000   0.00000
  34       13F+1        0.00000   0.00000  -0.00000   0.00000
  35       13F-1        0.00000   0.00000   0.00000  -0.00000   0.00000
  36       13F+2        0.00000   0.00000  -0.00000   0.00000   0.00000
  37       13F-2        0.00000   0.00000   0.00000   0.00000   0.00000
  38       13F+3        0.00000   0.00000  -0.00000  -0.00000  -0.00000
  39       13F-3        0.00000   0.00000   0.00000  -0.00000   0.00000
  40       14F 0        0.00000   0.00000  -0.00000  -0.00000   0.00000
  41       14F+1        0.00000   0.00000   0.00000  -0.00000  -0.00000
  42       14F-1        0.00000   0.00000   0.00000   0.00000  -0.00000
  43       14F+2        0.00000   0.00000  -0.00000  -0.00000   0.00000
  44       14F-2        0.00000   0.00000   0.00000   0.00000   0.00000
  45       14F+3        0.00000   0.00000  -0.00000   0.00000   0.00000
  46       14F-3        0.00000   0.00000   0.00000   0.00000  -0.00000
                          36        37        38        39        40
  36       13F+2        0.00000
  37       13F-2        0.00000  -0.00000
  38       13F+3        0.00000  -0.00000   0.00000
  39       13F-3        0.00000   0.00000   0.00000   0.00000
  40       14F 0       -0.00000   0.00000  -0.00000   0.00000   0.00000
  41       14F+1        0.00000   0.00000   0.00000   0.00000   0.00000
  42       14F-1        0.00000   0.00000   0.00000  -0.00000   0.00000
  43       14F+2       -0.00000   0.00000   0.00000   0.00000   0.00000
  44       14F-2        0.00000  -0.00000   0.00000   0.00000   0.00000
  45       14F+3       -0.00000   0.00000  -0.00000   0.00000   0.00000
  46       14F-3        0.00000   0.00000  -0.00000  -0.00000   0.00000
                          41        42        43        44        45
  41       14F+1        0.00000
  42       14F-1       -0.00000   0.00000
  43       14F+2        0.00000   0.00000   0.00000
  44       14F-2       -0.00000   0.00000   0.00000   0.00000
  45       14F+3       -0.00000  -0.00000   0.00000  -0.00000   0.00000
  46       14F-3       -0.00000   0.00000   0.00000   0.00000   0.00000
                          46
  46       14F-3        0.00000
     Gross orbital populations:
                         Total     Alpha     Beta      Spin
   1 1   B  1S          1.95872   0.97905   0.97967  -0.00062
   2        2S          1.04894   0.53891   0.51002   0.02889
   3        3S          0.24377   0.12491   0.11886   0.00605
   4        4S          0.73677   0.35515   0.38162  -0.02647
   5        5S          0.01026   0.00151   0.00876  -0.00725
   6        6PX         0.26780   0.26780   0.00000   0.26780
   7        6PY         0.00000   0.00000   0.00000   0.00000
   8        6PZ         0.00000   0.00000   0.00000   0.00000
   9        7PX         0.45552   0.45552   0.00000   0.45552
  10        7PY         0.00000   0.00000   0.00000   0.00000
  11        7PZ         0.00000   0.00000   0.00000   0.00000
  12        8PX         0.26612   0.26612   0.00000   0.26612
  13        8PY         0.00000   0.00000   0.00000   0.00000
  14        8PZ         0.00000   0.00000   0.00000   0.00000
  15        9PX         0.01056   0.01056   0.00000   0.01056
  16        9PY         0.00000   0.00000   0.00000   0.00000
  17        9PZ         0.00000   0.00000   0.00000   0.00000
  18       10D 0        0.00015   0.00005   0.00009  -0.00004
  19       10D+1        0.00000   0.00000   0.00000  -0.00000
  20       10D-1       -0.00000  -0.00000   0.00000  -0.00000
  21       10D+2        0.00044   0.00015   0.00028  -0.00013
  22       10D-2        0.00000   0.00000   0.00000  -0.00000
  23       11D 0        0.00022   0.00005   0.00017  -0.00012
  24       11D+1        0.00000   0.00000   0.00000  -0.00000
  25       11D-1       -0.00000  -0.00000  -0.00000   0.00000
  26       11D+2        0.00067   0.00016   0.00051  -0.00035
  27       11D-2        0.00000   0.00000   0.00000  -0.00000
  28       12D 0        0.00002   0.00001   0.00001   0.00001
  29       12D+1        0.00000   0.00000   0.00000   0.00000
  30       12D-1       -0.00000  -0.00000  -0.00000   0.00000
  31       12D+2        0.00005   0.00003   0.00002   0.00002
  32       12D-2        0.00000   0.00000   0.00000   0.00000
  33       13F 0        0.00000   0.00000   0.00000   0.00000
  34       13F+1        0.00000   0.00000   0.00000   0.00000
  35       13F-1        0.00000   0.00000   0.00000   0.00000
  36       13F+2        0.00000   0.00000   0.00000   0.00000
  37       13F-2       -0.00000  -0.00000   0.00000  -0.00000
  38       13F+3        0.00000   0.00000   0.00000   0.00000
  39       13F-3        0.00000   0.00000   0.00000   0.00000
  40       14F 0       -0.00000  -0.00000   0.00000  -0.00000
  41       14F+1       -0.00000  -0.00000   0.00000  -0.00000
  42       14F-1       -0.00000  -0.00000   0.00000  -0.00000
  43       14F+2       -0.00000  -0.00000   0.00000  -0.00000
  44       14F-2       -0.00000  -0.00000   0.00000  -0.00000
  45       14F+3       -0.00000  -0.00000   0.00000  -0.00000
  46       14F-3       -0.00000  -0.00000   0.00000  -0.00000
          Condensed to atoms (all electrons):
               1
     1  B    5.000000
          Atomic-Atomic Spin Densities.
               1
     1  B    1.000000
 Mulliken charges and spin densities:
               1          2
     1  B    0.000000   1.000000
 Sum of Mulliken charges =   0.00000   1.00000
 Mulliken charges and spin densities with hydrogens summed into heavy atoms:
               1          2
     1  B    0.000000   1.000000
 Electronic spatial extent (au):  <R**2>=             15.8647
 Charge=              0.0000 electrons
 Dipole moment (field-independent basis, Debye):
    X=              0.0000    Y=              0.0000    Z=              0.0000  Tot=              0.0000
 Quadrupole moment (field-independent basis, Debye-Ang):
   XX=             -9.2976   YY=             -6.0205   ZZ=             -6.0205
   XY=             -0.0000   XZ=              0.0000   YZ=              0.0000
 Traceless Quadrupole moment (field-independent basis, Debye-Ang):
   XX=             -2.1847   YY=              1.0924   ZZ=              1.0924
   XY=             -0.0000   XZ=              0.0000   YZ=              0.0000
 Octapole moment (field-independent basis, Debye-Ang**2):
  XXX=              0.0000  YYY=              0.0000  ZZZ=              0.0000  XYY=              0.0000
  XXY=              0.0000  XXZ=              0.0000  XZZ=              0.0000  YZZ=              0.0000
  YYZ=              0.0000  XYZ=              0.0000
 Hexadecapole moment (field-independent basis, Debye-Ang**3):
 XXXX=            -21.1506 YYYY=             -9.4569 ZZZZ=             -9.4569 XXXY=             -0.0000
 XXXZ=              0.0000 YYYX=             -0.0000 YYYZ=              0.0000 ZZZX=              0.0000
 ZZZY=              0.0000 XXYY=             -5.0974 XXZZ=             -5.0974 YYZZ=             -3.1523
 XXYZ=              0.0000 YYXZ=              0.0000 ZZXY=             -0.0000
 N-N= 0.000000000000D+00 E-N=-5.686071343259D+01  KE= 2.445878211257D+01
 Symmetry AG   KE= 2.367984669809D+01
 Symmetry B1G  KE= 9.839512029422D-36
 Symmetry B2G  KE= 9.839512029422D-36
 Symmetry B3G  KE=-7.092187873004D-53
 Symmetry AU   KE=-1.693788327025D-54
 Symmetry B1U  KE= 1.460348693513D-33
 Symmetry B2U  KE= 1.460348693513D-33
 Symmetry B3U  KE= 7.789354144884D-01
 Symmetry AG   SP= 3.167615958250D-15
 Symmetry B1G  SP=-3.425771695144D-36
 Symmetry B2G  SP=-3.425771695144D-36
 Symmetry B3G  SP=-1.804486623738D-53
 Symmetry AU   SP=-7.685477067017D-55
 Symmetry B1U  SP= 1.874735389968D-33
 Symmetry B2U  SP= 1.874735389968D-33
 Symmetry B3U  SP= 1.000000000000D+00
 Orbital energies and kinetic energies (alpha):
                                 1                 2
   1         (A1G)--O         -6.860940         10.801423
   2         O                -0.395951          1.051078
   3         O                -0.189721          0.778935
   4         V                -0.098719          0.649598
   5         V                -0.098719          0.649598
   6         V                 0.018166          0.191443
   7         V                 0.028168          0.121686
   8         V                 0.034920          0.151701
   9         V                 0.034920          0.151701
  10         (T2G)--V          0.123993          0.211139
  11         (T2G)--V          0.123993          0.211139
  12         V                 0.126826          0.211069
  13         (T2G)--V          0.128992          0.210035
  14         V                 0.128998          0.210037
  15         V                 0.238284          0.688849
  16         V                 0.254087          0.748769
  17         V                 0.254087          0.748769
  18         V                 0.377302          1.142867
  19         (T2G)--V          0.511602          0.813622
  20         (T2G)--V          0.511602          0.813622
  21         V                 0.515520          0.813775
  22         (T2G)--V          0.522201          0.811640
  23         V                 0.522203          0.811639
  24         V                 0.553840          0.708505
  25         (A2U)--V          0.553840          0.708505
  26         V                 0.555768          0.708520
  27         V                 0.556198          0.708504
  28         V                 0.556198          0.708504
  29         V                 0.557948          0.708293
  30         V                 0.557948          0.708293
  31         V                 1.239829          3.103442
  32         V                 1.261554          3.142900
  33         V                 1.261554          3.142900
  34         (T2G)--V          1.844439          2.775872
  35         (T2G)--V          1.844439          2.775872
  36         V                 1.850585          2.775852
  37         (T2G)--V          1.867081          2.778958
  38         V                 1.867081          2.778958
  39         (A2U)--V          1.970925          2.506367
  40         V                 1.970925          2.506367
  41         V                 1.973328          2.506375
  42         V                 1.974384          2.506336
  43         V                 1.974384          2.506336
  44         V                 1.982297          2.506579
  45         V                 1.982297          2.506579
  46         V                 2.810622          9.615846
 Orbital energies and kinetic energies (beta):
                                 1                 2
   1         (A1G)--O         -6.851412         10.817707
   2         O                -0.353399          1.009639
   3         V                -0.090143          0.629945
   4         V                -0.090143          0.629945
   5         V                -0.056345          0.535167
   6         V                 0.021190          0.195177
   7         V                 0.035234          0.160512
   8         V                 0.035234          0.160512
   9         V                 0.039875          0.202582
  10         V                 0.127315          0.209681
  11         V                 0.127315          0.209681
  12         V                 0.130352          0.207378
  13         V                 0.130352          0.207378
  14         V                 0.133161          0.207410
  15         V                 0.257151          0.760696
  16         V                 0.257151          0.760696
  17         V                 0.277150          0.803637
  18         V                 0.394019          1.165449
  19         V                 0.523133          0.811755
  20         V                 0.523133          0.811755
  21         V                 0.543258          0.811106
  22         V                 0.543258          0.811106
  23         V                 0.550536          0.810491
  24         V                 0.555465          0.708274
  25         V                 0.555465          0.708274
  26         (A2U)--V          0.564181          0.707771
  27         V                 0.564181          0.707771
  28         V                 0.569984          0.707597
  29         V                 0.569984          0.707597
  30         V                 0.572078          0.707435
  31         V                 1.265816          3.142020
  32         V                 1.265816          3.142020
  33         V                 1.298758          3.152006
  34         (T2G)--V          1.866666          2.779196
  35         V                 1.866666          2.779196
  36         (T2G)--V          1.900158          2.782149
  37         (T2G)--V          1.900158          2.782149
  38         V                 1.911066          2.782480
  39         V                 1.978967          2.506598
  40         V                 1.978967          2.506598
  41         V                 2.003209          2.507101
  42         (A2U)--V          2.003209          2.507101
  43         V                 2.017167          2.507036
  44         V                 2.017167          2.507036
  45         V                 2.022318          2.506979
  46         (A1G)--V          2.828113          9.615000
 Total kinetic energy from orbitals= 2.445878211257D+01
                          Isotropic Fermi Contact Couplings
        Atom                 a.u.       MegaHertz       Gauss      10(-4) cm-1
     1  B(11)              0.00209       2.99439       1.06847       0.99882
 --------------------------------------------------------
       Center         ----  Spin Dipole Couplings  ----
                      3XX-RR        3YY-RR        3ZZ-RR
 --------------------------------------------------------
     1   Atom        0.680856     -0.340428     -0.340428
 --------------------------------------------------------
                        XY            XZ            YZ
 --------------------------------------------------------
     1   Atom        0.000000      0.000000      0.000000
 --------------------------------------------------------


 ---------------------------------------------------------------------------------
              Anisotropic Spin Dipole Couplings in Principal Axis System
 ---------------------------------------------------------------------------------

       Atom             a.u.   MegaHertz   Gauss  10(-4) cm-1        Axes

              Baa    -0.3404   -58.286   -20.798   -19.442  0.0000  0.0000  1.0000
     1 B(11)  Bbb    -0.3404   -58.286   -20.798   -19.442 -0.0000  1.0000  0.0000
              Bcc     0.6809   116.573    41.596    38.884  1.0000  0.0000  0.0000
 

 ---------------------------------------------------------------------------------

 1\1\GINC-LOGIN\SP\UB3LYP\Aug-CC-pVTZ\B1(2)\C7441090\20-Nov-2023\0\\# B
 3LYP/aug-cc-pVTZ EmpiricalDispersion=GD3 Pop=Full\\Boron\\0,2\B,0,0.,0
 .,0.\\Version=ES64L-G16RevA.03\HF=-24.6638916\S2=0.753527\S2-1=0.\S2A=
 0.75\RMSD=8.140e-09\Dipole=0.,0.,0.\Quadrupole=0.8121504,0.8121504,-1.
 6243007,0.,0.,0.\PG=OH [O(B1)]\\@


 ALL MEN WHO EXPLORE
 DEPLORE
 THAT FRUSTRATING HURDLE
 THE GIRDLE.

         -- COLIN FLETCHER
 Job cpu time:       0 days  0 hours  0 minutes 21.1 seconds.
 Elapsed time:       0 days  0 hours  0 minutes 10.4 seconds.
 File lengths (MBytes):  RWF=      5 Int=      0 D2E=      0 Chk=      1 Scr=      1
 Normal termination of Gaussian 16 at Mon Nov 20 23:51:04 2023.
