Beryllium                                                               
SP        RB3LYP                                                      Aug-CC-pVTZ         
Number of atoms                            I                1
Info1-9                                    I   N=           9
          12          11           0           0           0         110
           1          18        -502
Full Title                                 C   N=           1
Beryllium   
Route                                      C   N=           5
# B3LYP/aug-cc-pVTZ EmpiricalDispersion=GD3 Pop=Full        
Charge                                     I                0
Multiplicity                               I                1
Number of electrons                        I                4
Number of alpha electrons                  I                2
Number of beta electrons                   I                2
Number of basis functions                  I               46
Number of independent functions            I               46
Number of point charges in /Mol/           I                0
Number of translation vectors              I                0
Atomic numbers                             I   N=           1
           4
Nuclear charges                            R   N=           1
  4.00000000E+00
Current cartesian coordinates              R   N=           3
  0.00000000E+00  0.00000000E+00  0.00000000E+00
Number of symbols in /Mol/                 I                0
Force Field                                I                0
Atom Types                                 C   N=           1
            
Int Atom Types                             I   N=           1
           0
MM charges                                 R   N=           1
  0.00000000E+00
Integer atomic weights                     I   N=           1
           9
Real atomic weights                        R   N=           1
  9.01218250E+00
Atom fragment info                         I   N=           1
           0
Atom residue num                           I   N=           1
           0
Nuclear spins                              I   N=           1
           3
Nuclear ZEff                               R   N=           1
 -2.00000000E+00
Nuclear ZNuc                               R   N=           1
  4.00000000E+00
Nuclear QMom                               R   N=           1
  5.28800000E+00
Nuclear GFac                               R   N=           1
 -1.17790000E+00
MicOpt                                     I   N=           1
          -1
Number of residues                         I                0
Number of secondary structures             I                0
SymInf integers                            I   N=          26
           1           8           1           1           1           1
          -1          -1          -1           1          -1          -1
          -1           1          -1          -1          -1          -1
           1           1           1          -1           1           1
           1          -1
RotTr to input orientation                 R   N=          12
  0.00000000E+00  0.00000000E+00 -1.00000000E+00  0.00000000E+00  1.00000000E+00
  0.00000000E+00  1.00000000E+00  0.00000000E+00  0.00000000E+00  0.00000000E+00
  0.00000000E+00  0.00000000E+00
Number of contracted shells                I               14
Number of primitive shells                 I               29
Pure/Cartesian d shells                    I                0
Pure/Cartesian f shells                    I                0
Highest angular momentum                   I                3
Largest degree of contraction              I                8
Shell types                                I   N=          14
           0           0           0           0           0           1
           1           1           1          -2          -2          -2
          -3          -3
Number of primitives per shell             I   N=          14
           8           7           1           1           1           3
           1           1           1           1           1           1
           1           1
Shell to atom map                          I   N=          14
           1           1           1           1           1           1
           1           1           1           1           1           1
           1           1
Primitive exponents                        R   N=          29
  6.86300000E+03  1.03000000E+03  2.34700000E+02  6.65600000E+01  2.16900000E+01
  7.73400000E+00  2.91600000E+00  1.13000000E+00  2.34700000E+02  6.65600000E+01
  2.16900000E+01  7.73400000E+00  2.91600000E+00  1.13000000E+00  1.10100000E-01
  2.57700000E-01  4.40900000E-02  1.69983100E-02  7.43600000E+00  1.57700000E+00
  4.35200000E-01  1.43800000E-01  4.99400000E-02  1.20971600E-02  3.48000000E-01
  1.80300000E-01  3.93225900E-02  3.25000000E-01  1.00596500E-01
Contraction coefficients                   R   N=          29
  2.37848718E-04  1.84030029E-03  9.52586691E-03  3.82531149E-02  1.20888615E-01
  2.84286717E-01  4.30285259E-01  2.67251709E-01 -2.26548446E-05 -1.65951284E-04
 -2.30361069E-03 -1.23278348E-02 -6.75540023E-02 -1.61168135E-01  1.06300400E+00
  1.00000000E+00  1.00000000E+00  1.00000000E+00  3.65487780E-02  2.13975121E-01
  8.44884103E-01  1.00000000E+00  1.00000000E+00  1.00000000E+00  1.00000000E+00
  1.00000000E+00  1.00000000E+00  1.00000000E+00  1.00000000E+00
Coordinates of each shell                  R   N=          42
  0.00000000E+00  0.00000000E+00  0.00000000E+00  0.00000000E+00  0.00000000E+00
  0.00000000E+00  0.00000000E+00  0.00000000E+00  0.00000000E+00  0.00000000E+00
  0.00000000E+00  0.00000000E+00  0.00000000E+00  0.00000000E+00  0.00000000E+00
  0.00000000E+00  0.00000000E+00  0.00000000E+00  0.00000000E+00  0.00000000E+00
  0.00000000E+00  0.00000000E+00  0.00000000E+00  0.00000000E+00  0.00000000E+00
  0.00000000E+00  0.00000000E+00  0.00000000E+00  0.00000000E+00  0.00000000E+00
  0.00000000E+00  0.00000000E+00  0.00000000E+00  0.00000000E+00  0.00000000E+00
  0.00000000E+00  0.00000000E+00  0.00000000E+00  0.00000000E+00  0.00000000E+00
  0.00000000E+00  0.00000000E+00
Num ILSW                                   I              100
ILSW                                       I   N=         100
           0           0           0           0           2           0
           0           0           0           0         402          -1
           5           0           0           0           0           0
           0           0           1           0           0           0
           1           0           0           0           0           0
           0           0      100000           0          -1           0
           0           0           0           0           0           0
           0           0           0           1           0           0
           0 -2000000000           1           0           0           0
           0           0         131          52           0           0
           0           0           5           0           0           0
           0           0           0           0           0           1
           0           0           0           0           0           0
           0           0           0           0           0           0
           0           0           0           0           0           0
           0           0           0           0           0           0
           0           0           0           0
Num RLSW                                   I               52
RLSW                                       R   N=          52
  8.00000000E-01  7.20000000E-01  1.00000000E+00  8.10000000E-01  2.00000000E-01
  0.00000000E+00  0.00000000E+00  1.00000000E+00  0.00000000E+00  0.00000000E+00
  0.00000000E+00  0.00000000E+00  1.00000000E+00  0.00000000E+00  0.00000000E+00
  0.00000000E+00  0.00000000E+00  1.00000000E+00  0.00000000E+00  0.00000000E+00
  0.00000000E+00  0.00000000E+00  1.00000000E+00  0.00000000E+00  0.00000000E+00
  0.00000000E+00  0.00000000E+00  1.00000000E+00  0.00000000E+00  0.00000000E+00
  0.00000000E+00  0.00000000E+00  1.00000000E+00  0.00000000E+00  0.00000000E+00
  0.00000000E+00  0.00000000E+00  0.00000000E+00  1.00000000E+00  1.00000000E+00
  0.00000000E+00  1.00000000E+00  0.00000000E+00  0.00000000E+00  0.00000000E+00
  0.00000000E+00  0.00000000E+00  0.00000000E+00  0.00000000E+00  0.00000000E+00
  0.00000000E+00  0.00000000E+00
MxBond                                     I                1
NBond                                      I   N=           1
           0
IBond                                      I   N=           1
           0
RBond                                      R   N=           1
  0.00000000E+00
Virial Ratio                               R      2.010409101285720E+00
SCF Energy                                 R     -1.467244795727982E+01
Total Energy                               R     -1.467244795727982E+01
RMS Density                                R      2.693706426818658E-10
Job Status                                 I                1
Nuclear derivative order                   I                0
External E-field                           R   N=          35
  0.00000000E+00  0.00000000E+00  0.00000000E+00  0.00000000E+00  0.00000000E+00
  0.00000000E+00  0.00000000E+00  0.00000000E+00  0.00000000E+00  0.00000000E+00
  0.00000000E+00  0.00000000E+00  0.00000000E+00  0.00000000E+00  0.00000000E+00
  0.00000000E+00  0.00000000E+00  0.00000000E+00  0.00000000E+00  0.00000000E+00
  0.00000000E+00  0.00000000E+00  0.00000000E+00  0.00000000E+00  0.00000000E+00
  0.00000000E+00  0.00000000E+00  0.00000000E+00  0.00000000E+00  0.00000000E+00
  0.00000000E+00  0.00000000E+00  0.00000000E+00  0.00000000E+00  0.00000000E+00
IOpCl                                      I                0
IROHF                                      I                0
Alpha Orbital Energies                     R   N=          46
 -4.08612903E+00 -2.32280885E-01 -5.23825453E-02 -5.23825453E-02 -5.23825453E-02
  9.08950276E-03  2.25639911E-02  2.25639911E-02  2.25639911E-02  7.81741366E-02
  7.81741366E-02  7.81741366E-02  7.81741366E-02  7.81741366E-02  1.68490151E-01
  1.68490151E-01  1.68490151E-01  1.89209707E-01  3.37080222E-01  3.37080222E-01
  3.37080222E-01  3.37080222E-01  3.37080222E-01  3.37080222E-01  3.37080222E-01
  4.05941792E-01  4.05941792E-01  4.05941792E-01  4.05941792E-01  4.05941792E-01
  7.97071665E-01  7.97071665E-01  7.97071665E-01  1.24230199E+00  1.24230199E+00
  1.24230199E+00  1.24230199E+00  1.24230199E+00  1.28846739E+00  1.28846739E+00
  1.28846739E+00  1.28846739E+00  1.28846739E+00  1.28846739E+00  1.28846739E+00
  1.50023383E+00
Alpha MO coefficients                      R   N=        2116
  9.83924930E-01 -1.66990913E-02  3.73010396E-02  5.75859183E-03 -1.14952192E-03
  0.00000000E+00  0.00000000E+00  0.00000000E+00  0.00000000E+00  0.00000000E+00
  0.00000000E+00  0.00000000E+00  0.00000000E+00  0.00000000E+00  0.00000000E+00
  0.00000000E+00  0.00000000E+00 -1.46361447E-16  0.00000000E+00  0.00000000E+00
 -2.32413468E-17  0.00000000E+00 -1.33274231E-17  0.00000000E+00  0.00000000E+00
  5.82323937E-17  0.00000000E+00  2.38027576E-17  0.00000000E+00  0.00000000E+00
 -3.26580569E-17  0.00000000E+00  0.00000000E+00  0.00000000E+00  0.00000000E+00
  0.00000000E+00  0.00000000E+00  0.00000000E+00  0.00000000E+00  0.00000000E+00
  0.00000000E+00  0.00000000E+00  0.00000000E+00  0.00000000E+00  0.00000000E+00
  0.00000000E+00 -2.02849139E-01  5.18744739E-01  2.64832226E-01  3.14661977E-01
 -2.50924481E-03  0.00000000E+00  0.00000000E+00  0.00000000E+00  0.00000000E+00
  0.00000000E+00  0.00000000E+00  0.00000000E+00  0.00000000E+00  0.00000000E+00
  0.00000000E+00  0.00000000E+00  0.00000000E+00 -7.21116393E-18  0.00000000E+00
  0.00000000E+00 -8.44212693E-17  0.00000000E+00  1.45346601E-16  0.00000000E+00
  0.00000000E+00  4.12872546E-16  0.00000000E+00 -1.16747268E-16  0.00000000E+00
  0.00000000E+00 -3.38382300E-16  0.00000000E+00  0.00000000E+00  0.00000000E+00
  0.00000000E+00  0.00000000E+00  0.00000000E+00  0.00000000E+00  0.00000000E+00
  0.00000000E+00  0.00000000E+00  0.00000000E+00  0.00000000E+00  0.00000000E+00
  0.00000000E+00  0.00000000E+00  0.00000000E+00  0.00000000E+00  0.00000000E+00
  0.00000000E+00  0.00000000E+00  0.00000000E+00  2.61574031E-01  0.00000000E+00
  0.00000000E+00  3.69622384E-01  0.00000000E+00  0.00000000E+00  4.81160008E-01
  0.00000000E+00  0.00000000E+00  1.40141431E-01  0.00000000E+00  0.00000000E+00
  0.00000000E+00  0.00000000E+00  0.00000000E+00  0.00000000E+00  0.00000000E+00
  0.00000000E+00  0.00000000E+00  0.00000000E+00  0.00000000E+00  0.00000000E+00
  0.00000000E+00  0.00000000E+00  0.00000000E+00  0.00000000E+00  0.00000000E+00
  0.00000000E+00  4.15795825E-12  0.00000000E+00  0.00000000E+00  0.00000000E+00
  5.36829591E-12  0.00000000E+00  0.00000000E+00  9.61176433E-12  0.00000000E+00
  0.00000000E+00  0.00000000E+00  1.24082873E-11  0.00000000E+00  0.00000000E+00
  0.00000000E+00  0.00000000E+00  0.00000000E+00  2.61574031E-01  0.00000000E+00
  0.00000000E+00  3.69622384E-01  0.00000000E+00  0.00000000E+00  4.81160008E-01
  0.00000000E+00  0.00000000E+00  1.40141431E-01  0.00000000E+00  0.00000000E+00
  0.00000000E+00  0.00000000E+00  0.00000000E+00  0.00000000E+00  0.00000000E+00
  0.00000000E+00  0.00000000E+00  0.00000000E+00  0.00000000E+00  0.00000000E+00
  0.00000000E+00  0.00000000E+00  0.00000000E+00  0.00000000E+00  0.00000000E+00
  0.00000000E+00  4.15801197E-12  0.00000000E+00  0.00000000E+00  0.00000000E+00
 -5.36822283E-12  0.00000000E+00  0.00000000E+00  9.61146411E-12  0.00000000E+00
  0.00000000E+00  0.00000000E+00 -1.24087894E-11  0.00000000E+00  0.00000000E+00
  0.00000000E+00  0.00000000E+00  0.00000000E+00  0.00000000E+00  0.00000000E+00
  0.00000000E+00  2.61574031E-01  0.00000000E+00  0.00000000E+00  3.69622384E-01
  0.00000000E+00  0.00000000E+00  4.81160008E-01  0.00000000E+00  0.00000000E+00
  1.40141431E-01  0.00000000E+00  0.00000000E+00  0.00000000E+00  0.00000000E+00
  0.00000000E+00  0.00000000E+00  0.00000000E+00  0.00000000E+00  0.00000000E+00
  0.00000000E+00  0.00000000E+00  0.00000000E+00  0.00000000E+00  0.00000000E+00
  0.00000000E+00 -6.79031967E-12  0.00000000E+00  0.00000000E+00 -6.05671661E-16
  0.00000000E+00  0.00000000E+00  0.00000000E+00 -1.56955840E-11  0.00000000E+00
  0.00000000E+00  1.93591776E-15  0.00000000E+00  0.00000000E+00  0.00000000E+00
  7.47325229E-02 -1.37593904E-01 -1.12059823E-01 -9.28837199E-01  1.65242085E+00
  0.00000000E+00  0.00000000E+00  0.00000000E+00  0.00000000E+00  0.00000000E+00
  0.00000000E+00  0.00000000E+00  0.00000000E+00  0.00000000E+00  0.00000000E+00
  0.00000000E+00  0.00000000E+00  5.07208815E-16  0.00000000E+00  0.00000000E+00
 -8.50971520E-16  0.00000000E+00 -7.46810408E-16  0.00000000E+00  0.00000000E+00
  1.06927755E-15  0.00000000E+00  9.45709817E-16  0.00000000E+00  0.00000000E+00
  7.06429480E-16  0.00000000E+00  0.00000000E+00  0.00000000E+00  0.00000000E+00
  0.00000000E+00  0.00000000E+00  0.00000000E+00  0.00000000E+00  0.00000000E+00
  0.00000000E+00  0.00000000E+00  0.00000000E+00  0.00000000E+00  0.00000000E+00
  0.00000000E+00  0.00000000E+00  0.00000000E+00  0.00000000E+00  0.00000000E+00
  0.00000000E+00  0.00000000E+00 -1.31314177E-01  0.00000000E+00  0.00000000E+00
 -1.53867905E-01  0.00000000E+00  0.00000000E+00 -3.74975754E-01  0.00000000E+00
  0.00000000E+00  1.11288108E+00  0.00000000E+00  0.00000000E+00  0.00000000E+00
  0.00000000E+00  0.00000000E+00  0.00000000E+00  0.00000000E+00  0.00000000E+00
  0.00000000E+00  0.00000000E+00  0.00000000E+00  0.00000000E+00  0.00000000E+00
  0.00000000E+00  0.00000000E+00  0.00000000E+00  0.00000000E+00  0.00000000E+00
 -2.14638305E-12  0.00000000E+00  0.00000000E+00  0.00000000E+00 -2.77139722E-12
  0.00000000E+00  0.00000000E+00 -1.28807039E-12  0.00000000E+00  0.00000000E+00
  0.00000000E+00 -1.66176970E-12  0.00000000E+00  0.00000000E+00  0.00000000E+00
  0.00000000E+00  0.00000000E+00  0.00000000E+00  0.00000000E+00 -1.31314177E-01
  0.00000000E+00  0.00000000E+00 -1.53867905E-01  0.00000000E+00  0.00000000E+00
 -3.74975754E-01  0.00000000E+00  0.00000000E+00  1.11288108E+00  0.00000000E+00
  0.00000000E+00  0.00000000E+00  0.00000000E+00  0.00000000E+00  0.00000000E+00
  0.00000000E+00  0.00000000E+00  0.00000000E+00  0.00000000E+00  0.00000000E+00
  0.00000000E+00  0.00000000E+00  0.00000000E+00  0.00000000E+00  3.50538410E-12
  0.00000000E+00  0.00000000E+00  6.33816666E-18  0.00000000E+00  0.00000000E+00
  0.00000000E+00  2.10256052E-12  0.00000000E+00  0.00000000E+00  2.46824005E-17
  0.00000000E+00  0.00000000E+00  0.00000000E+00  0.00000000E+00  0.00000000E+00
  0.00000000E+00  0.00000000E+00  0.00000000E+00 -1.31314177E-01  0.00000000E+00
  0.00000000E+00 -1.53867905E-01  0.00000000E+00  0.00000000E+00 -3.74975754E-01
  0.00000000E+00  0.00000000E+00  1.11288108E+00  0.00000000E+00  0.00000000E+00
  0.00000000E+00  0.00000000E+00  0.00000000E+00  0.00000000E+00  0.00000000E+00
  0.00000000E+00  0.00000000E+00  0.00000000E+00  0.00000000E+00  0.00000000E+00
  0.00000000E+00  0.00000000E+00  0.00000000E+00  0.00000000E+00  0.00000000E+00
  0.00000000E+00 -2.14643527E-12  0.00000000E+00  0.00000000E+00  0.00000000E+00
  2.77128202E-12  0.00000000E+00  0.00000000E+00 -1.28764623E-12  0.00000000E+00
  0.00000000E+00  0.00000000E+00  1.66213679E-12  0.00000000E+00  0.00000000E+00
  0.00000000E+00  0.00000000E+00  0.00000000E+00  0.00000000E+00  0.00000000E+00
  0.00000000E+00  0.00000000E+00  0.00000000E+00  0.00000000E+00  0.00000000E+00
  0.00000000E+00  0.00000000E+00  0.00000000E+00  0.00000000E+00  0.00000000E+00
  0.00000000E+00  0.00000000E+00  3.60452549E-02  0.00000000E+00  0.00000000E+00
  0.00000000E+00  0.00000000E+00 -9.00170354E-03  0.00000000E+00  0.00000000E+00
  0.00000000E+00  0.00000000E+00  9.96962030E-01  0.00000000E+00  0.00000000E+00
  0.00000000E+00  0.00000000E+00  0.00000000E+00  0.00000000E+00  0.00000000E+00
  0.00000000E+00  0.00000000E+00  0.00000000E+00  0.00000000E+00  0.00000000E+00
  0.00000000E+00  0.00000000E+00  0.00000000E+00  0.00000000E+00  0.00000000E+00
  0.00000000E+00  0.00000000E+00  0.00000000E+00  0.00000000E+00  0.00000000E+00
  0.00000000E+00  0.00000000E+00  0.00000000E+00  0.00000000E+00  0.00000000E+00
  0.00000000E+00  0.00000000E+00  0.00000000E+00  0.00000000E+00  0.00000000E+00
  0.00000000E+00  0.00000000E+00  0.00000000E+00  0.00000000E+00  0.00000000E+00
  0.00000000E+00  3.60452549E-02  0.00000000E+00  0.00000000E+00  0.00000000E+00
  0.00000000E+00 -9.00170354E-03  0.00000000E+00  0.00000000E+00  0.00000000E+00
  0.00000000E+00  9.96962030E-01  0.00000000E+00  0.00000000E+00  0.00000000E+00
  0.00000000E+00  0.00000000E+00  0.00000000E+00  0.00000000E+00  0.00000000E+00
  0.00000000E+00  0.00000000E+00  0.00000000E+00  0.00000000E+00  0.00000000E+00
  0.00000000E+00  0.00000000E+00  0.00000000E+00  0.00000000E+00  0.00000000E+00
  0.00000000E+00  0.00000000E+00  0.00000000E+00  0.00000000E+00  0.00000000E+00
  0.00000000E+00  0.00000000E+00  0.00000000E+00  0.00000000E+00  0.00000000E+00
  0.00000000E+00  0.00000000E+00  0.00000000E+00  0.00000000E+00  0.00000000E+00
  3.60452549E-02  0.00000000E+00  0.00000000E+00  0.00000000E+00  0.00000000E+00
 -9.00170354E-03  0.00000000E+00  0.00000000E+00  0.00000000E+00  0.00000000E+00
  9.96962030E-01  0.00000000E+00  0.00000000E+00  0.00000000E+00  0.00000000E+00
  0.00000000E+00  0.00000000E+00  0.00000000E+00  0.00000000E+00  0.00000000E+00
  0.00000000E+00  0.00000000E+00  0.00000000E+00  0.00000000E+00  0.00000000E+00
  0.00000000E+00  0.00000000E+00 -7.74920460E-17 -4.38279295E-16  9.86637882E-17
  6.51573325E-16 -4.07201804E-16  0.00000000E+00  0.00000000E+00  0.00000000E+00
  0.00000000E+00  0.00000000E+00  0.00000000E+00  0.00000000E+00  0.00000000E+00
  0.00000000E+00  0.00000000E+00  0.00000000E+00  0.00000000E+00  2.98530492E-02
  0.00000000E+00  0.00000000E+00 -2.02003924E-02  0.00000000E+00 -7.45530306E-03
  0.00000000E+00  0.00000000E+00  5.04471241E-03  0.00000000E+00  8.25694161E-01
  0.00000000E+00  0.00000000E+00 -5.58714990E-01  0.00000000E+00  0.00000000E+00
  0.00000000E+00  0.00000000E+00  0.00000000E+00  0.00000000E+00  0.00000000E+00
  0.00000000E+00  0.00000000E+00  0.00000000E+00  0.00000000E+00  0.00000000E+00
  0.00000000E+00  0.00000000E+00  0.00000000E+00  2.22223598E-17  5.36623808E-15
  1.54849315E-15 -9.17361775E-15  2.90394270E-15  0.00000000E+00  0.00000000E+00
  0.00000000E+00  0.00000000E+00  0.00000000E+00  0.00000000E+00  0.00000000E+00
  0.00000000E+00  0.00000000E+00  0.00000000E+00  0.00000000E+00  0.00000000E+00
  2.02003924E-02  0.00000000E+00  0.00000000E+00  2.98530492E-02  0.00000000E+00
 -5.04471241E-03  0.00000000E+00  0.00000000E+00 -7.45530306E-03  0.00000000E+00
  5.58714990E-01  0.00000000E+00  0.00000000E+00  8.25694161E-01  0.00000000E+00
  0.00000000E+00  0.00000000E+00  0.00000000E+00  0.00000000E+00  0.00000000E+00
  0.00000000E+00  0.00000000E+00  0.00000000E+00  0.00000000E+00  0.00000000E+00
  0.00000000E+00  0.00000000E+00  0.00000000E+00  0.00000000E+00  0.00000000E+00
  0.00000000E+00  0.00000000E+00  0.00000000E+00  0.00000000E+00 -2.60940058E-01
  0.00000000E+00  0.00000000E+00 -1.03658405E+00  0.00000000E+00  0.00000000E+00
  1.57603407E+00  0.00000000E+00  0.00000000E+00 -5.95633223E-01  0.00000000E+00
  0.00000000E+00  0.00000000E+00  0.00000000E+00  0.00000000E+00  0.00000000E+00
  0.00000000E+00  0.00000000E+00  0.00000000E+00  0.00000000E+00  0.00000000E+00
  0.00000000E+00  0.00000000E+00  0.00000000E+00  0.00000000E+00  0.00000000E+00
  0.00000000E+00  0.00000000E+00 -5.70897645E-12  0.00000000E+00  0.00000000E+00
  0.00000000E+00  7.37080604E-12  0.00000000E+00  0.00000000E+00  1.30595923E-11
  0.00000000E+00  0.00000000E+00  0.00000000E+00 -1.68615864E-11  0.00000000E+00
  0.00000000E+00  0.00000000E+00  0.00000000E+00  0.00000000E+00  0.00000000E+00
  0.00000000E+00 -2.60940058E-01  0.00000000E+00  0.00000000E+00 -1.03658405E+00
  0.00000000E+00  0.00000000E+00  1.57603407E+00  0.00000000E+00  0.00000000E+00
 -5.95633223E-01  0.00000000E+00  0.00000000E+00  0.00000000E+00  0.00000000E+00
  0.00000000E+00  0.00000000E+00  0.00000000E+00  0.00000000E+00  0.00000000E+00
  0.00000000E+00  0.00000000E+00  0.00000000E+00  0.00000000E+00  0.00000000E+00
  0.00000000E+00  0.00000000E+00  0.00000000E+00  0.00000000E+00 -5.70917220E-12
  0.00000000E+00  0.00000000E+00  0.00000000E+00 -7.37090629E-12  0.00000000E+00
  0.00000000E+00  1.30597181E-11  0.00000000E+00  0.00000000E+00  0.00000000E+00
  1.68637378E-11  0.00000000E+00  0.00000000E+00  0.00000000E+00  0.00000000E+00
  0.00000000E+00  0.00000000E+00  0.00000000E+00 -2.60940058E-01  0.00000000E+00
  0.00000000E+00 -1.03658405E+00  0.00000000E+00  0.00000000E+00  1.57603407E+00
  0.00000000E+00  0.00000000E+00 -5.95633223E-01  0.00000000E+00  0.00000000E+00
  0.00000000E+00  0.00000000E+00  0.00000000E+00  0.00000000E+00  0.00000000E+00
  0.00000000E+00  0.00000000E+00  0.00000000E+00  0.00000000E+00  0.00000000E+00
  0.00000000E+00  0.00000000E+00  0.00000000E+00  9.32403059E-12  0.00000000E+00
  0.00000000E+00 -7.00987311E-16  0.00000000E+00  0.00000000E+00  0.00000000E+00
 -2.13299630E-11  0.00000000E+00  0.00000000E+00  1.98901966E-15  0.00000000E+00
  0.00000000E+00  0.00000000E+00  6.08043135E-02 -1.33727169E+00 -6.91692806E-01
  3.21233253E+00 -1.58287899E+00  0.00000000E+00  0.00000000E+00  0.00000000E+00
  0.00000000E+00  0.00000000E+00  0.00000000E+00  0.00000000E+00  0.00000000E+00
  0.00000000E+00  0.00000000E+00  0.00000000E+00  0.00000000E+00  2.38344254E-16
  0.00000000E+00  0.00000000E+00  1.22220526E-15  0.00000000E+00 -7.97769686E-16
  0.00000000E+00  0.00000000E+00 -3.06467532E-15  0.00000000E+00  1.95212594E-15
  0.00000000E+00  0.00000000E+00  3.81166003E-15  0.00000000E+00  0.00000000E+00
  0.00000000E+00  0.00000000E+00  0.00000000E+00  0.00000000E+00  0.00000000E+00
  0.00000000E+00  0.00000000E+00  0.00000000E+00  0.00000000E+00  0.00000000E+00
  0.00000000E+00  0.00000000E+00  0.00000000E+00  0.00000000E+00  0.00000000E+00
  0.00000000E+00  0.00000000E+00  0.00000000E+00  0.00000000E+00 -1.11005987E-15
  0.00000000E+00  0.00000000E+00 -3.60341910E-15  0.00000000E+00  0.00000000E+00
  6.43631499E-15  0.00000000E+00  0.00000000E+00 -7.60602762E-16  0.00000000E+00
  0.00000000E+00  0.00000000E+00  0.00000000E+00  0.00000000E+00  0.00000000E+00
  0.00000000E+00  0.00000000E+00  0.00000000E+00  0.00000000E+00  0.00000000E+00
  0.00000000E+00  0.00000000E+00  0.00000000E+00  0.00000000E+00  0.00000000E+00
  0.00000000E+00  0.00000000E+00 -6.22400488E-02  0.00000000E+00  0.00000000E+00
  0.00000000E+00  4.82136661E-02  0.00000000E+00  0.00000000E+00  8.18572267E-01
  0.00000000E+00  0.00000000E+00  0.00000000E+00 -6.34099277E-01  0.00000000E+00
  0.00000000E+00  0.00000000E+00  0.00000000E+00  0.00000000E+00 -8.15511149E-17
  0.00000000E+00  0.00000000E+00 -1.80478683E-15  0.00000000E+00  0.00000000E+00
  3.00867459E-15  0.00000000E+00  0.00000000E+00 -1.08965456E-15  0.00000000E+00
  0.00000000E+00  0.00000000E+00  0.00000000E+00  0.00000000E+00  0.00000000E+00
  0.00000000E+00  0.00000000E+00  0.00000000E+00  0.00000000E+00  0.00000000E+00
  0.00000000E+00  0.00000000E+00  0.00000000E+00  0.00000000E+00  0.00000000E+00
  0.00000000E+00  0.00000000E+00 -6.22403938E-02  0.00000000E+00  0.00000000E+00
  0.00000000E+00 -4.82132207E-02  0.00000000E+00  0.00000000E+00  8.18576804E-01
  0.00000000E+00  0.00000000E+00  0.00000000E+00  6.34093420E-01  0.00000000E+00
  0.00000000E+00  0.00000000E+00  0.00000000E+00  0.00000000E+00  0.00000000E+00
  0.00000000E+00  0.00000000E+00  1.96653784E-15  0.00000000E+00  0.00000000E+00
 -1.88396207E-15  0.00000000E+00  0.00000000E+00 -1.52856886E-15  0.00000000E+00
  0.00000000E+00 -4.01050410E-16  0.00000000E+00  0.00000000E+00  0.00000000E+00
  0.00000000E+00  0.00000000E+00  0.00000000E+00  0.00000000E+00  0.00000000E+00
  0.00000000E+00  0.00000000E+00  0.00000000E+00  0.00000000E+00  0.00000000E+00
  0.00000000E+00  0.00000000E+00  1.27921212E-07  0.00000000E+00  0.00000000E+00
 -7.87297991E-02  0.00000000E+00  0.00000000E+00  0.00000000E+00 -1.68240157E-06
  0.00000000E+00  0.00000000E+00  1.03544312E+00  0.00000000E+00  0.00000000E+00
  0.00000000E+00  0.00000000E+00  0.00000000E+00  0.00000000E+00  0.00000000E+00
  0.00000000E+00  0.00000000E+00  0.00000000E+00  0.00000000E+00  0.00000000E+00
  0.00000000E+00  0.00000000E+00  0.00000000E+00  0.00000000E+00  0.00000000E+00
  0.00000000E+00  0.00000000E+00  0.00000000E+00  0.00000000E+00  0.00000000E+00
  0.00000000E+00  0.00000000E+00  0.00000000E+00  0.00000000E+00  0.00000000E+00
  0.00000000E+00  0.00000000E+00  0.00000000E+00  0.00000000E+00  0.00000000E+00
  0.00000000E+00  0.00000000E+00  0.00000000E+00  0.00000000E+00  0.00000000E+00
  0.00000000E+00  0.00000000E+00 -7.87297991E-02  0.00000000E+00  0.00000000E+00
  0.00000000E+00  0.00000000E+00  0.00000000E+00  0.00000000E+00  1.03544312E+00
  0.00000000E+00  0.00000000E+00  0.00000000E+00  0.00000000E+00  0.00000000E+00
  0.00000000E+00  0.00000000E+00  0.00000000E+00 -1.03599515E-11  0.00000000E+00
  0.00000000E+00  2.28324149E-11  0.00000000E+00  0.00000000E+00 -4.42681097E-11
  0.00000000E+00  0.00000000E+00  1.34108119E-11  0.00000000E+00  0.00000000E+00
  0.00000000E+00  0.00000000E+00  0.00000000E+00  0.00000000E+00  0.00000000E+00
  0.00000000E+00  0.00000000E+00  0.00000000E+00  0.00000000E+00  0.00000000E+00
  0.00000000E+00  0.00000000E+00  0.00000000E+00  0.00000000E+00  0.00000000E+00
  0.00000000E+00 -4.82136661E-02  0.00000000E+00  0.00000000E+00  0.00000000E+00
 -6.22400488E-02  0.00000000E+00  0.00000000E+00  6.34099277E-01  0.00000000E+00
  0.00000000E+00  0.00000000E+00  8.18572267E-01  0.00000000E+00  0.00000000E+00
  0.00000000E+00  0.00000000E+00  0.00000000E+00  0.00000000E+00  0.00000000E+00
  1.03602649E-11  0.00000000E+00  0.00000000E+00 -2.28332840E-11  0.00000000E+00
  0.00000000E+00  4.42683137E-11  0.00000000E+00  0.00000000E+00 -1.34108505E-11
  0.00000000E+00  0.00000000E+00  0.00000000E+00  0.00000000E+00  0.00000000E+00
  0.00000000E+00  0.00000000E+00  0.00000000E+00  0.00000000E+00  0.00000000E+00
  0.00000000E+00  0.00000000E+00  0.00000000E+00  0.00000000E+00  0.00000000E+00
 -7.87297991E-02  0.00000000E+00  0.00000000E+00 -1.27921211E-07  0.00000000E+00
  0.00000000E+00  0.00000000E+00  1.03544312E+00  0.00000000E+00  0.00000000E+00
  1.68240157E-06  0.00000000E+00  0.00000000E+00  0.00000000E+00  0.00000000E+00
  0.00000000E+00  0.00000000E+00  0.00000000E+00  0.00000000E+00  1.03618490E-11
  0.00000000E+00  0.00000000E+00 -2.28328166E-11  0.00000000E+00  0.00000000E+00
  4.42666903E-11  0.00000000E+00  0.00000000E+00 -1.34102648E-11  0.00000000E+00
  0.00000000E+00  0.00000000E+00  0.00000000E+00  0.00000000E+00  0.00000000E+00
  0.00000000E+00  0.00000000E+00  0.00000000E+00  0.00000000E+00  0.00000000E+00
  0.00000000E+00  0.00000000E+00  0.00000000E+00  0.00000000E+00  0.00000000E+00
  0.00000000E+00  0.00000000E+00  4.82132208E-02  0.00000000E+00  0.00000000E+00
  0.00000000E+00 -6.22403938E-02  0.00000000E+00  0.00000000E+00 -6.34093420E-01
  0.00000000E+00  0.00000000E+00  0.00000000E+00  8.18576804E-01  0.00000000E+00
  0.00000000E+00  0.00000000E+00  0.00000000E+00  0.00000000E+00  0.00000000E+00
  0.00000000E+00  0.00000000E+00  0.00000000E+00  0.00000000E+00  0.00000000E+00
  0.00000000E+00  0.00000000E+00  0.00000000E+00  0.00000000E+00  0.00000000E+00
  0.00000000E+00  0.00000000E+00  0.00000000E+00 -2.61478748E-01  0.00000000E+00
  0.00000000E+00  0.00000000E+00  0.00000000E+00  1.31395477E+00  0.00000000E+00
  0.00000000E+00  0.00000000E+00  0.00000000E+00 -4.92725666E-01  0.00000000E+00