Carbon                                                                  
SP        UB3LYP                                                      Aug-CC-pVTZ         
Number of atoms                            I                1
Info1-9                                    I   N=           9
          12          11           0           0           0         110
           1          18        -502
Full Title                                 C   N=           1
Carbon      
Route                                      C   N=           5
# B3LYP/aug-cc-pVTZ EmpiricalDispersion=GD3 Pop=Full        
Charge                                     I                0
Multiplicity                               I                3
Number of electrons                        I                6
Number of alpha electrons                  I                4
Number of beta electrons                   I                2
Number of basis functions                  I               46
Number of independent functions            I               46
Number of point charges in /Mol/           I                0
Number of translation vectors              I                0
Atomic numbers                             I   N=           1
           6
Nuclear charges                            R   N=           1
  6.00000000E+00
Current cartesian coordinates              R   N=           3
  0.00000000E+00  0.00000000E+00  0.00000000E+00
Number of symbols in /Mol/                 I                0
Force Field                                I                0
Atom Types                                 C   N=           1
            
Int Atom Types                             I   N=           1
           0
MM charges                                 R   N=           1
  0.00000000E+00
Integer atomic weights                     I   N=           1
          12
Real atomic weights                        R   N=           1
  1.20000000E+01
Atom fragment info                         I   N=           1
           0
Atom residue num                           I   N=           1
           0
Nuclear spins                              I   N=           1
           0
Nuclear ZEff                               R   N=           1
 -3.60000000E+00
Nuclear ZNuc                               R   N=           1
  6.00000000E+00
Nuclear QMom                               R   N=           1
  0.00000000E+00
Nuclear GFac                               R   N=           1
  0.00000000E+00
MicOpt                                     I   N=           1
          -1
Number of residues                         I                0
Number of secondary structures             I                0
SymInf integers                            I   N=          26
           1           8           1           1           1           1
          -1          -1          -1           1          -1          -1
          -1           1          -1          -1          -1          -1
           1           1           1          -1           1           1
           1          -1
RotTr to input orientation                 R   N=          12
  0.00000000E+00  0.00000000E+00 -1.00000000E+00  0.00000000E+00  1.00000000E+00
  0.00000000E+00  1.00000000E+00  0.00000000E+00  0.00000000E+00  0.00000000E+00
  0.00000000E+00  0.00000000E+00
Number of contracted shells                I               14
Number of primitive shells                 I               27
Pure/Cartesian d shells                    I                0
Pure/Cartesian f shells                    I                0
Highest angular momentum                   I                3
Largest degree of contraction              I                7
Shell types                                I   N=          14
           0           0           0           0           0           1
           1           1           1          -2          -2          -2
          -3          -3
Number of primitives per shell             I   N=          14
           7           6           1           1           1           3
           1           1           1           1           1           1
           1           1
Shell to atom map                          I   N=          14
           1           1           1           1           1           1
           1           1           1           1           1           1
           1           1
Primitive exponents                        R   N=          27
  8.23600000E+03  1.23500000E+03  2.80800000E+02  7.92700000E+01  2.55900000E+01
  8.99700000E+00  3.31900000E+00  2.80800000E+02  7.92700000E+01  2.55900000E+01
  8.99700000E+00  3.31900000E+00  3.64300000E-01  9.05900000E-01  1.28500000E-01
  4.40200000E-02  1.87100000E+01  4.13300000E+00  1.20000000E+00  3.82700000E-01
  1.20900000E-01  3.56900000E-02  1.09700000E+00  3.18000000E-01  1.00000000E-01
  7.61000000E-01  2.68000000E-01
Contraction coefficients                   R   N=          27
  5.41978320E-04  4.19287382E-03  2.15221621E-02  8.35343220E-02  2.39582846E-01
  4.42852842E-01  3.51799562E-01 -5.94922494E-05 -1.14815831E-03 -1.00191374E-02
 -6.12194923E-02 -1.73269854E-01  1.07291519E+00  1.00000000E+00  1.00000000E+00
  1.00000000E+00  3.94263872E-02  2.44088985E-01  8.15492009E-01  1.00000000E+00
  1.00000000E+00  1.00000000E+00  1.00000000E+00  1.00000000E+00  1.00000000E+00
  1.00000000E+00  1.00000000E+00
Coordinates of each shell                  R   N=          42
  0.00000000E+00  0.00000000E+00  0.00000000E+00  0.00000000E+00  0.00000000E+00
  0.00000000E+00  0.00000000E+00  0.00000000E+00  0.00000000E+00  0.00000000E+00
  0.00000000E+00  0.00000000E+00  0.00000000E+00  0.00000000E+00  0.00000000E+00
  0.00000000E+00  0.00000000E+00  0.00000000E+00  0.00000000E+00  0.00000000E+00
  0.00000000E+00  0.00000000E+00  0.00000000E+00  0.00000000E+00  0.00000000E+00
  0.00000000E+00  0.00000000E+00  0.00000000E+00  0.00000000E+00  0.00000000E+00
  0.00000000E+00  0.00000000E+00  0.00000000E+00  0.00000000E+00  0.00000000E+00
  0.00000000E+00  0.00000000E+00  0.00000000E+00  0.00000000E+00  0.00000000E+00
  0.00000000E+00  0.00000000E+00
Num ILSW                                   I              100
ILSW                                       I   N=         100
           1           0           0           0           2           0
           0           0           0           0         402          -1
           5           0           0           0           0           0
           0           0           1           0           0           0
           1           0           0           0           0           0
           0           0      100000           0          -1           0
           0           0           0           0           0           0
           0           0           0           1           0           0
           0 -2000000000           1           0           0           0
           0           1         131          52           0           0
           0           0           5           0           0           0
           0           0           0           0           0           1
           0           0           0           0           0           0
           0           0           0           0           0           0
           0           0           0           0           0           0
           0           0           0           0           0           0
           0           0           0           0
Num RLSW                                   I               52
RLSW                                       R   N=          52
  8.00000000E-01  7.20000000E-01  1.00000000E+00  8.10000000E-01  2.00000000E-01
  0.00000000E+00  0.00000000E+00  1.00000000E+00  0.00000000E+00  0.00000000E+00
  0.00000000E+00  0.00000000E+00  1.00000000E+00  0.00000000E+00  0.00000000E+00
  0.00000000E+00  0.00000000E+00  1.00000000E+00  0.00000000E+00  0.00000000E+00
  0.00000000E+00  0.00000000E+00  1.00000000E+00  0.00000000E+00  0.00000000E+00
  0.00000000E+00  0.00000000E+00  1.00000000E+00  0.00000000E+00  0.00000000E+00
  0.00000000E+00  0.00000000E+00  1.00000000E+00  0.00000000E+00  0.00000000E+00
  0.00000000E+00  0.00000000E+00  0.00000000E+00  1.00000000E+00  1.00000000E+00
  0.00000000E+00  1.00000000E+00  0.00000000E+00  0.00000000E+00  0.00000000E+00
  0.00000000E+00  0.00000000E+00  0.00000000E+00  0.00000000E+00  0.00000000E+00
  0.00000000E+00  0.00000000E+00
MxBond                                     I                1
NBond                                      I   N=           1
           0
IBond                                      I   N=           1
           0
RBond                                      R   N=           1
  0.00000000E+00
Virial Ratio                               R      2.006760637101312E+00
SCF Energy                                 R     -3.785906083915788E+01
Total Energy                               R     -3.785906083915788E+01
S**2                                       R      2.003725874846611E+00
S**2 after annihilation                    R      2.000000015888300E+00
RMS Density                                R      4.131044923467061E-09
Job Status                                 I                1
Nuclear derivative order                   I                0
External E-field                           R   N=          35
  0.00000000E+00  0.00000000E+00  0.00000000E+00  0.00000000E+00  0.00000000E+00
  0.00000000E+00  0.00000000E+00  0.00000000E+00  0.00000000E+00  0.00000000E+00
  0.00000000E+00  0.00000000E+00  0.00000000E+00  0.00000000E+00  0.00000000E+00
  0.00000000E+00  0.00000000E+00  0.00000000E+00  0.00000000E+00  0.00000000E+00
  0.00000000E+00  0.00000000E+00  0.00000000E+00  0.00000000E+00  0.00000000E+00
  0.00000000E+00  0.00000000E+00  0.00000000E+00  0.00000000E+00  0.00000000E+00
  0.00000000E+00  0.00000000E+00  0.00000000E+00  0.00000000E+00  0.00000000E+00
IOpCl                                      I                1
IROHF                                      I                0
Alpha Orbital Energies                     R   N=          46
 -1.03114834E+01 -5.90627669E-01 -2.69408262E-01 -2.69408262E-01 -1.57528143E-01
  3.18281433E-02  5.39252234E-02  5.39252234E-02  6.01059344E-02  2.16576691E-01
  2.16576691E-01  2.16639127E-01  2.16639140E-01  2.20178600E-01  3.93570066E-01
  3.93570066E-01  4.09488024E-01  5.65313517E-01  8.44529805E-01  8.44529810E-01
  8.47584954E-01  8.47584954E-01  8.56256448E-01  9.25093797E-01  9.25093799E-01
  9.26076596E-01  9.26076596E-01  9.27834067E-01  9.27834067E-01  9.28264643E-01
  1.98053624E+00  1.98053624E+00  2.00553922E+00  3.02077009E+00  3.02077010E+00
  3.03188323E+00  3.03188323E+00  3.05096894E+00  3.12537755E+00  3.12537756E+00
  3.12826089E+00  3.12826089E+00  3.13021934E+00  3.13021934E+00  3.13656634E+00
  4.17523591E+00
Beta Orbital Energies                      R   N=          46
 -1.02824651E+01 -4.81555390E-01 -1.29402472E-01 -8.49297275E-02 -8.49297275E-02
  4.00496414E-02  6.22525336E-02  6.96840741E-02  6.96840741E-02  2.22987261E-01
  2.24340863E-01  2.24340863E-01  2.31618958E-01  2.31618958E-01  4.20891829E-01
  4.47521546E-01  4.47521546E-01  6.09110442E-01  8.82690825E-01  8.91180245E-01
  8.91180245E-01  9.17370554E-01  9.17370554E-01  9.39796674E-01  9.42648140E-01
  9.42648140E-01  9.50139957E-01  9.50139957E-01  9.62870848E-01  9.62870848E-01
  2.02428731E+00  2.06753809E+00  2.06753809E+00  3.09443369E+00  3.10860003E+00
  3.10860003E+00  3.15068851E+00  3.15068851E+00  3.17392352E+00  3.18046836E+00
  3.18046836E+00  3.19818619E+00  3.19818619E+00  3.22771651E+00  3.22771651E+00
  4.22786467E+00
Alpha MO coefficients                      R   N=        2116
  9.72833942E-01 -1.33763729E-02  5.28334844E-02  4.28348834E-03 -9.50081501E-04
  0.00000000E+00  0.00000000E+00  0.00000000E+00  0.00000000E+00  0.00000000E+00
  0.00000000E+00  0.00000000E+00  0.00000000E+00  0.00000000E+00  0.00000000E+00
  0.00000000E+00  0.00000000E+00 -7.39346961E-04  0.00000000E+00  0.00000000E+00
  5.09574115E-16  0.00000000E+00  1.65225910E-04  0.00000000E+00  0.00000000E+00
 -3.68455002E-16  0.00000000E+00 -8.73603090E-05  0.00000000E+00  0.00000000E+00
  1.01356086E-16  0.00000000E+00  0.00000000E+00  0.00000000E+00  0.00000000E+00
  0.00000000E+00  0.00000000E+00  0.00000000E+00  0.00000000E+00  0.00000000E+00
  0.00000000E+00  0.00000000E+00  0.00000000E+00  0.00000000E+00  0.00000000E+00
  0.00000000E+00 -2.23718125E-01  5.66603534E-01  1.62652060E-01  3.67071195E-01
  2.69145311E-03  0.00000000E+00  0.00000000E+00  0.00000000E+00  0.00000000E+00
  0.00000000E+00  0.00000000E+00  0.00000000E+00  0.00000000E+00  0.00000000E+00
  0.00000000E+00  0.00000000E+00  0.00000000E+00 -7.63490013E-03  0.00000000E+00
  0.00000000E+00 -2.04252210E-16  0.00000000E+00 -6.84335088E-03  0.00000000E+00
  0.00000000E+00  3.77240496E-16  0.00000000E+00 -2.52619361E-03  0.00000000E+00
  0.00000000E+00 -1.35710308E-16  0.00000000E+00  0.00000000E+00  0.00000000E+00
  0.00000000E+00  0.00000000E+00  0.00000000E+00  0.00000000E+00  0.00000000E+00
  0.00000000E+00  0.00000000E+00  0.00000000E+00  0.00000000E+00  0.00000000E+00
  0.00000000E+00  0.00000000E+00  0.00000000E+00  0.00000000E+00  0.00000000E+00
  0.00000000E+00  0.00000000E+00  0.00000000E+00  3.74082550E-01  0.00000000E+00
  0.00000000E+00  4.78701450E-01  0.00000000E+00  0.00000000E+00  3.37251960E-01
  0.00000000E+00  0.00000000E+00  3.31970398E-02  0.00000000E+00  0.00000000E+00
  0.00000000E+00  0.00000000E+00  0.00000000E+00  0.00000000E+00  0.00000000E+00
  0.00000000E+00  0.00000000E+00  0.00000000E+00  0.00000000E+00  0.00000000E+00
  0.00000000E+00  0.00000000E+00  0.00000000E+00  0.00000000E+00  0.00000000E+00
  0.00000000E+00 -1.01529243E-03  0.00000000E+00  0.00000000E+00  0.00000000E+00
  1.97356223E-10  0.00000000E+00  0.00000000E+00  4.67323372E-04  0.00000000E+00
  0.00000000E+00  0.00000000E+00  5.77371693E-11  0.00000000E+00  0.00000000E+00
  0.00000000E+00  0.00000000E+00  0.00000000E+00  3.74082550E-01  0.00000000E+00
  0.00000000E+00  4.78701450E-01  0.00000000E+00  0.00000000E+00  3.37251960E-01
  0.00000000E+00  0.00000000E+00  3.31970398E-02  0.00000000E+00  0.00000000E+00
  0.00000000E+00  0.00000000E+00  0.00000000E+00  0.00000000E+00  0.00000000E+00
  0.00000000E+00  0.00000000E+00  0.00000000E+00  0.00000000E+00  0.00000000E+00
  0.00000000E+00  0.00000000E+00  0.00000000E+00  0.00000000E+00  0.00000000E+00
  0.00000000E+00 -1.01529243E-03  0.00000000E+00  0.00000000E+00  0.00000000E+00
 -1.97355991E-10  0.00000000E+00  0.00000000E+00  4.67323372E-04  0.00000000E+00
  0.00000000E+00  0.00000000E+00 -5.77375628E-11  0.00000000E+00  0.00000000E+00
  0.00000000E+00  0.00000000E+00  0.00000000E+00  0.00000000E+00  0.00000000E+00
  0.00000000E+00  3.36031292E-01  0.00000000E+00  0.00000000E+00  4.42937199E-01
  0.00000000E+00  0.00000000E+00  3.87333113E-01  0.00000000E+00  0.00000000E+00
  8.40215220E-02  0.00000000E+00  0.00000000E+00  0.00000000E+00  0.00000000E+00
  0.00000000E+00  0.00000000E+00  0.00000000E+00  0.00000000E+00  0.00000000E+00
  0.00000000E+00  0.00000000E+00  0.00000000E+00  0.00000000E+00  0.00000000E+00
  0.00000000E+00 -3.81188491E-03  0.00000000E+00  0.00000000E+00  3.13105808E-17
  0.00000000E+00  0.00000000E+00  0.00000000E+00 -1.40776000E-03  0.00000000E+00
  0.00000000E+00  1.97634055E-16  0.00000000E+00  0.00000000E+00  0.00000000E+00
  7.90624100E-02 -1.37513052E-01 -6.92080348E-02 -8.62656515E-01  1.55509813E+00
  0.00000000E+00  0.00000000E+00  0.00000000E+00  0.00000000E+00  0.00000000E+00
  0.00000000E+00  0.00000000E+00  0.00000000E+00  0.00000000E+00  0.00000000E+00
  0.00000000E+00  0.00000000E+00  1.85478709E-03  0.00000000E+00  0.00000000E+00
  3.40388292E-16  0.00000000E+00  1.44483375E-03  0.00000000E+00  0.00000000E+00
  3.86573819E-16  0.00000000E+00 -2.18566270E-03  0.00000000E+00  0.00000000E+00
 -3.36064403E-16  0.00000000E+00  0.00000000E+00  0.00000000E+00  0.00000000E+00
  0.00000000E+00  0.00000000E+00  0.00000000E+00  0.00000000E+00  0.00000000E+00
  0.00000000E+00  0.00000000E+00  0.00000000E+00  0.00000000E+00  0.00000000E+00
  0.00000000E+00  0.00000000E+00  0.00000000E+00  0.00000000E+00  0.00000000E+00
  0.00000000E+00  0.00000000E+00 -1.25976740E-01  0.00000000E+00  0.00000000E+00
 -1.19422174E-01  0.00000000E+00  0.00000000E+00 -3.08323172E-01  0.00000000E+00
  0.00000000E+00  1.15254911E+00  0.00000000E+00  0.00000000E+00  0.00000000E+00
  0.00000000E+00  0.00000000E+00  0.00000000E+00  0.00000000E+00  0.00000000E+00
  0.00000000E+00  0.00000000E+00  0.00000000E+00  0.00000000E+00  0.00000000E+00
  0.00000000E+00  0.00000000E+00  0.00000000E+00  0.00000000E+00  0.00000000E+00
  1.01750837E-04  0.00000000E+00  0.00000000E+00  0.00000000E+00 -2.76133799E-10
  0.00000000E+00  0.00000000E+00  4.29753981E-04  0.00000000E+00  0.00000000E+00
  0.00000000E+00  8.06100259E-10  0.00000000E+00  0.00000000E+00  0.00000000E+00
  0.00000000E+00  0.00000000E+00 -1.25976740E-01  0.00000000E+00  0.00000000E+00
 -1.19422174E-01  0.00000000E+00  0.00000000E+00 -3.08323172E-01  0.00000000E+00
  0.00000000E+00  1.15254911E+00  0.00000000E+00  0.00000000E+00  0.00000000E+00
  0.00000000E+00  0.00000000E+00  0.00000000E+00  0.00000000E+00  0.00000000E+00
  0.00000000E+00  0.00000000E+00  0.00000000E+00  0.00000000E+00  0.00000000E+00
  0.00000000E+00  0.00000000E+00  0.00000000E+00  0.00000000E+00  0.00000000E+00
  1.01750837E-04  0.00000000E+00  0.00000000E+00  0.00000000E+00  2.76133788E-10
  0.00000000E+00  0.00000000E+00  4.29753981E-04  0.00000000E+00  0.00000000E+00
  0.00000000E+00 -8.06100742E-10  0.00000000E+00  0.00000000E+00  0.00000000E+00
  0.00000000E+00  0.00000000E+00  0.00000000E+00  0.00000000E+00  0.00000000E+00
 -1.40962436E-01  0.00000000E+00  0.00000000E+00 -1.41513008E-01  0.00000000E+00
  0.00000000E+00 -3.69689435E-01  0.00000000E+00  0.00000000E+00  1.16441958E+00
  0.00000000E+00  0.00000000E+00  0.00000000E+00  0.00000000E+00  0.00000000E+00
  0.00000000E+00  0.00000000E+00  0.00000000E+00  0.00000000E+00  0.00000000E+00
  0.00000000E+00  0.00000000E+00  0.00000000E+00  0.00000000E+00  0.00000000E+00
  1.39744164E-03  0.00000000E+00  0.00000000E+00  1.29032038E-17  0.00000000E+00
  0.00000000E+00  0.00000000E+00 -2.13122437E-04  0.00000000E+00  0.00000000E+00
 -1.93966400E-16  0.00000000E+00  0.00000000E+00  0.00000000E+00  0.00000000E+00
  0.00000000E+00  0.00000000E+00  0.00000000E+00  0.00000000E+00  0.00000000E+00
  0.00000000E+00  0.00000000E+00  0.00000000E+00  0.00000000E+00  0.00000000E+00
  0.00000000E+00  0.00000000E+00  0.00000000E+00  0.00000000E+00  0.00000000E+00
  0.00000000E+00  0.00000000E+00  3.57727989E-02  0.00000000E+00  0.00000000E+00
  0.00000000E+00  0.00000000E+00 -4.72883498E-02  0.00000000E+00  0.00000000E+00
  0.00000000E+00  0.00000000E+00  1.02201935E+00  0.00000000E+00  0.00000000E+00
  0.00000000E+00  0.00000000E+00  0.00000000E+00  0.00000000E+00  0.00000000E+00
  0.00000000E+00  0.00000000E+00  0.00000000E+00  0.00000000E+00  0.00000000E+00
  0.00000000E+00  0.00000000E+00  0.00000000E+00  0.00000000E+00  0.00000000E+00
  0.00000000E+00  0.00000000E+00  0.00000000E+00  0.00000000E+00  0.00000000E+00
  0.00000000E+00  0.00000000E+00  0.00000000E+00  0.00000000E+00  0.00000000E+00
  0.00000000E+00  0.00000000E+00  0.00000000E+00  0.00000000E+00  0.00000000E+00
  0.00000000E+00  0.00000000E+00  0.00000000E+00  0.00000000E+00  3.57727989E-02
  0.00000000E+00  0.00000000E+00  0.00000000E+00  0.00000000E+00 -4.72883498E-02
  0.00000000E+00  0.00000000E+00  0.00000000E+00  0.00000000E+00  1.02201935E+00
  0.00000000E+00  0.00000000E+00  0.00000000E+00  0.00000000E+00  0.00000000E+00
  0.00000000E+00  0.00000000E+00  0.00000000E+00  0.00000000E+00  0.00000000E+00
  0.00000000E+00  0.00000000E+00  0.00000000E+00  0.00000000E+00  0.00000000E+00
  0.00000000E+00  0.00000000E+00  0.00000000E+00  0.00000000E+00  0.00000000E+00
  0.00000000E+00  0.00000000E+00  0.00000000E+00  0.00000000E+00  0.00000000E+00
  0.00000000E+00  0.00000000E+00  0.00000000E+00  0.00000000E+00  0.00000000E+00
  0.00000000E+00  0.00000000E+00  0.00000000E+00  0.00000000E+00  0.00000000E+00
  0.00000000E+00  0.00000000E+00  3.68654828E-02  0.00000000E+00  0.00000000E+00
  0.00000000E+00  0.00000000E+00 -4.40948226E-02  0.00000000E+00  0.00000000E+00
  0.00000000E+00  0.00000000E+00  1.02007775E+00  0.00000000E+00  0.00000000E+00
  0.00000000E+00  0.00000000E+00  0.00000000E+00  0.00000000E+00  0.00000000E+00
  0.00000000E+00  0.00000000E+00  0.00000000E+00  0.00000000E+00  0.00000000E+00
  0.00000000E+00  0.00000000E+00  7.22612548E-17 -2.20829266E-16 -2.79709039E-17
 -6.02384504E-16  8.60053733E-16  0.00000000E+00  0.00000000E+00  0.00000000E+00
  0.00000000E+00  0.00000000E+00  0.00000000E+00  0.00000000E+00  0.00000000E+00
  0.00000000E+00  0.00000000E+00  0.00000000E+00  0.00000000E+00 -1.46408352E-15
  0.00000000E+00  0.00000000E+00  3.68654814E-02  0.00000000E+00  1.87363215E-15
  0.00000000E+00  0.00000000E+00 -4.40948067E-02  0.00000000E+00 -4.31012431E-14
  0.00000000E+00  0.00000000E+00  1.02007774E+00  0.00000000E+00  0.00000000E+00
  0.00000000E+00  0.00000000E+00  0.00000000E+00  0.00000000E+00  0.00000000E+00
  0.00000000E+00  0.00000000E+00  0.00000000E+00  0.00000000E+00  0.00000000E+00
  0.00000000E+00  0.00000000E+00  0.00000000E+00 -1.48093215E-03 -5.97897819E-04
  3.17587828E-04  9.92343568E-03 -1.93795935E-03  0.00000000E+00  0.00000000E+00
  0.00000000E+00  0.00000000E+00  0.00000000E+00  0.00000000E+00  0.00000000E+00
  0.00000000E+00  0.00000000E+00  0.00000000E+00  0.00000000E+00  0.00000000E+00
  3.50379320E-02  0.00000000E+00  0.00000000E+00  1.72345386E-15  0.00000000E+00
 -5.04278075E-02  0.00000000E+00  0.00000000E+00 -2.09381523E-15  0.00000000E+00
  1.02383887E+00  0.00000000E+00  0.00000000E+00  4.38200920E-14  0.00000000E+00
  0.00000000E+00  0.00000000E+00  0.00000000E+00  0.00000000E+00  0.00000000E+00
  0.00000000E+00  0.00000000E+00  0.00000000E+00  0.00000000E+00  0.00000000E+00
  0.00000000E+00  0.00000000E+00  0.00000000E+00  0.00000000E+00  0.00000000E+00
  0.00000000E+00  0.00000000E+00  0.00000000E+00  0.00000000E+00 -2.73969456E-01
  0.00000000E+00  0.00000000E+00 -8.15319591E-01  0.00000000E+00  0.00000000E+00
  1.65755839E+00  0.00000000E+00  0.00000000E+00 -7.69195047E-01  0.00000000E+00
  0.00000000E+00  0.00000000E+00  0.00000000E+00  0.00000000E+00  0.00000000E+00
  0.00000000E+00  0.00000000E+00  0.00000000E+00  0.00000000E+00  0.00000000E+00
  0.00000000E+00  0.00000000E+00  0.00000000E+00  0.00000000E+00  0.00000000E+00
  0.00000000E+00  0.00000000E+00 -9.39432325E-06  0.00000000E+00  0.00000000E+00
  0.00000000E+00  2.32603237E-10  0.00000000E+00  0.00000000E+00  3.02829439E-03
  0.00000000E+00  0.00000000E+00  0.00000000E+00 -2.37967144E-10  0.00000000E+00
  0.00000000E+00  0.00000000E+00  0.00000000E+00  0.00000000E+00  0.00000000E+00
  0.00000000E+00 -2.73969456E-01  0.00000000E+00  0.00000000E+00 -8.15319591E-01
  0.00000000E+00  0.00000000E+00  1.65755839E+00  0.00000000E+00  0.00000000E+00
 -7.69195047E-01  0.00000000E+00  0.00000000E+00  0.00000000E+00  0.00000000E+00
  0.00000000E+00  0.00000000E+00  0.00000000E+00  0.00000000E+00  0.00000000E+00
  0.00000000E+00  0.00000000E+00  0.00000000E+00  0.00000000E+00  0.00000000E+00
  0.00000000E+00  0.00000000E+00  0.00000000E+00  0.00000000E+00 -9.39432325E-06
  0.00000000E+00  0.00000000E+00  0.00000000E+00 -2.32603456E-10  0.00000000E+00
  0.00000000E+00  3.02829439E-03  0.00000000E+00  0.00000000E+00  0.00000000E+00
  2.37968577E-10  0.00000000E+00  0.00000000E+00  0.00000000E+00  0.00000000E+00
  0.00000000E+00  0.00000000E+00  0.00000000E+00 -2.81474266E-01  0.00000000E+00
  0.00000000E+00 -8.60334033E-01  0.00000000E+00  0.00000000E+00  1.64132871E+00
  0.00000000E+00  0.00000000E+00 -7.48803986E-01  0.00000000E+00  0.00000000E+00
  0.00000000E+00  0.00000000E+00  0.00000000E+00  0.00000000E+00  0.00000000E+00
  0.00000000E+00  0.00000000E+00  0.00000000E+00  0.00000000E+00  0.00000000E+00
  0.00000000E+00  0.00000000E+00  0.00000000E+00  2.73462173E-03  0.00000000E+00
  0.00000000E+00 -6.06924947E-16  0.00000000E+00  0.00000000E+00  0.00000000E+00
 -1.04758484E-03  0.00000000E+00  0.00000000E+00  1.38628461E-15  0.00000000E+00
  0.00000000E+00  0.00000000E+00  5.06529866E-02 -1.52019435E+00 -4.05077298E-01
  2.86082164E+00 -1.30908874E+00  0.00000000E+00  0.00000000E+00  0.00000000E+00
  0.00000000E+00  0.00000000E+00  0.00000000E+00  0.00000000E+00  0.00000000E+00
  0.00000000E+00  0.00000000E+00  0.00000000E+00  0.00000000E+00  5.47671365E-03
  0.00000000E+00  0.00000000E+00 -5.02004558E-16  0.00000000E+00  8.91474638E-03
  0.00000000E+00  0.00000000E+00  5.36670025E-16  0.00000000E+00 -8.47342206E-03
  0.00000000E+00  0.00000000E+00 -3.26143339E-16  0.00000000E+00  0.00000000E+00
  0.00000000E+00  0.00000000E+00  0.00000000E+00  0.00000000E+00  0.00000000E+00
  0.00000000E+00  0.00000000E+00  0.00000000E+00  0.00000000E+00  0.00000000E+00
  0.00000000E+00  0.00000000E+00  0.00000000E+00  0.00000000E+00  0.00000000E+00
  0.00000000E+00  0.00000000E+00  0.00000000E+00  0.00000000E+00  0.00000000E+00
  0.00000000E+00  0.00000000E+00  0.00000000E+00  0.00000000E+00  0.00000000E+00
  0.00000000E+00  0.00000000E+00  0.00000000E+00  0.00000000E+00  0.00000000E+00
  0.00000000E+00  0.00000000E+00  0.00000000E+00  0.00000000E+00  1.32846810E-02
  0.00000000E+00  0.00000000E+00  0.00000000E+00  0.00000000E+00  1.21166663E+00
  0.00000000E+00  0.00000000E+00  0.00000000E+00  0.00000000E+00 -6.81767680E-01
  0.00000000E+00  0.00000000E+00  0.00000000E+00  0.00000000E+00  0.00000000E+00
  0.00000000E+00  0.00000000E+00  0.00000000E+00  0.00000000E+00  0.00000000E+00
  0.00000000E+00  0.00000000E+00  0.00000000E+00  0.00000000E+00  2.96137756E-16
 -7.89466803E-16 -4.65268652E-16  1.09770756E-15 -1.65510810E-15  0.00000000E+00
  0.00000000E+00  0.00000000E+00  0.00000000E+00  0.00000000E+00  0.00000000E+00
  0.00000000E+00  0.00000000E+00  0.00000000E+00  0.00000000E+00  0.00000000E+00
  0.00000000E+00  4.93813563E-16  0.00000000E+00  0.00000000E+00  1.32846812E-02
  0.00000000E+00 -4.59085350E-14  0.00000000E+00  0.00000000E+00  1.21166663E+00
  0.00000000E+00  2.56790849E-14  0.00000000E+00  0.00000000E+00 -6.81767692E-01
  0.00000000E+00  0.00000000E+00  0.00000000E+00  0.00000000E+00  0.00000000E+00
  0.00000000E+00  0.00000000E+00  0.00000000E+00  0.00000000E+00  0.00000000E+00
  0.00000000E+00  0.00000000E+00  0.00000000E+00  0.00000000E+00  0.00000000E+00
  0.00000000E+00  0.00000000E+00  0.00000000E+00  0.00000000E+00  0.00000000E+00
  0.00000000E+00  0.00000000E+00  0.00000000E+00  0.00000000E+00  0.00000000E+00
  0.00000000E+00  0.00000000E+00  0.00000000E+00  0.00000000E+00  0.00000000E+00
  0.00000000E+00  0.00000000E+00  0.00000000E+00  9.76491931E-03  0.00000000E+00
  0.00000000E+00  0.00000000E+00  0.00000000E+00  1.21404139E+00  0.00000000E+00
  0.00000000E+00  0.00000000E+00  0.00000000E+00 -6.79362845E-01  0.00000000E+00
  0.00000000E+00  0.00000000E+00  0.00000000E+00  0.00000000E+00  0.00000000E+00
  0.00000000E+00  0.00000000E+00  0.00000000E+00  0.00000000E+00  0.00000000E+00
  0.00000000E+00  0.00000000E+00  0.00000000E+00  0.00000000E+00  0.00000000E+00
  0.00000000E+00  0.00000000E+00  0.00000000E+00  0.00000000E+00  0.00000000E+00
  0.00000000E+00  0.00000000E+00  0.00000000E+00  0.00000000E+00  0.00000000E+00
  0.00000000E+00  0.00000000E+00  0.00000000E+00  0.00000000E+00  0.00000000E+00
  0.00000000E+00  0.00000000E+00  0.00000000E+00  0.00000000E+00  0.00000000E+00
  9.76491931E-03  0.00000000E+00  0.00000000E+00  0.00000000E+00  0.00000000E+00
  1.21404139E+00  0.00000000E+00  0.00000000E+00  0.00000000E+00  0.00000000E+00
 -6.79362845E-01  0.00000000E+00  0.00000000E+00  0.00000000E+00  0.00000000E+00
  0.00000000E+00  0.00000000E+00  0.00000000E+00  0.00000000E+00  0.00000000E+00
  0.00000000E+00  0.00000000E+00  0.00000000E+00  0.00000000E+00  0.00000000E+00
  0.00000000E+00  0.00000000E+00 -2.02911485E-03  2.34993648E-02  4.69527620E-03
 -2.51708065E-02  1.05230274E-02  0.00000000E+00  0.00000000E+00  0.00000000E+00
  0.00000000E+00  0.00000000E+00  0.00000000E+00  0.00000000E+00  0.00000000E+00
  0.00000000E+00  0.00000000E+00  0.00000000E+00  0.00000000E+00  6.43319540E-03
  0.00000000E+00  0.00000000E+00  5.42277610E-16  0.00000000E+00  1.21614034E+00
  0.00000000E+00  0.00000000E+00  4.60251787E-14  0.00000000E+00 -6.77124444E-01
  0.00000000E+00  0.00000000E+00 -2.50835389E-14  0.00000000E+00  0.00000000E+00
  0.00000000E+00  0.00000000E+00  0.00000000E+00  0.00000000E+00  0.00000000E+00
  0.00000000E+00  0.00000000E+00  0.00000000E+00  0.00000000E+00  0.00000000E+00
  0.00000000E+00  0.00000000E+00  0.00000000E+00  0.00000000E+00  0.00000000E+00
  0.00000000E+00  0.00000000E+00  0.00000000E+00  0.00000000E+00  0.00000000E+00
  0.00000000E+00  0.00000000E+00  0.00000000E+00  0.00000000E+00  0.00000000E+00
  0.00000000E+00  0.00000000E+00  0.00000000E+00  0.00000000E+00  0.00000000E+00
  0.00000000E+00  0.00000000E+00  0.00000000E+00  0.00000000E+00  0.00000000E+00
  0.00000000E+00  0.00000000E+00  0.00000000E+00  0.00000000E+00  0.00000000E+00
  0.00000000E+00  0.00000000E+00  0.00000000E+00  0.00000000E+00  0.00000000E+00
  0.00000000E+00  0.00000000E+00  0.00000000E+00  0.00000000E+00 -1.13367230E-01
  0.00000000E+00  0.00000000E+00  0.00000000E+00  0.00000000E+00  0.00000000E+00
  0.00000000E+00  1.05859969E+00  0.00000000E+00  0.00000000E+00  0.00000000E+00
  0.00000000E+00  0.00000000E+00  0.00000000E+00  0.00000000E+00  0.00000000E+00
  0.00000000E+00  2.13307220E-16  0.00000000E+00  0.00000000E+00 -9.23562227E-18
  0.00000000E+00  0.00000000E+00 -1.09869912E-15  0.00000000E+00  0.00000000E+00
  9.96638276E-16  0.00000000E+00  0.00000000E+00  0.00000000E+00  0.00000000E+00