 Entering Gaussian System, Link 0=g16
 Input=C.com
 Output=C.log
 Initial command:
 /usr/site/hpc/x86_64/glibc-2.17/broadwell/gaussian/g16_a.03/pgi-16.5/g16/l1.exe "/home/c744/c7441090/data/Gau-3858257.inp" -scrdir="/home/c744/c7441090/data/"
 Entering Link 1 = /usr/site/hpc/x86_64/glibc-2.17/broadwell/gaussian/g16_a.03/pgi-16.5/g16/l1.exe PID=   3858258.
  
 Copyright (c) 1988,1990,1992,1993,1995,1998,2003,2009,2016,
            Gaussian, Inc.  All Rights Reserved.
  
 This is part of the Gaussian(R) 16 program.  It is based on
 the Gaussian(R) 09 system (copyright 2009, Gaussian, Inc.),
 the Gaussian(R) 03 system (copyright 2003, Gaussian, Inc.),
 the Gaussian(R) 98 system (copyright 1998, Gaussian, Inc.),
 the Gaussian(R) 94 system (copyright 1995, Gaussian, Inc.),
 the Gaussian 92(TM) system (copyright 1992, Gaussian, Inc.),
 the Gaussian 90(TM) system (copyright 1990, Gaussian, Inc.),
 the Gaussian 88(TM) system (copyright 1988, Gaussian, Inc.),
 the Gaussian 86(TM) system (copyright 1986, Carnegie Mellon
 University), and the Gaussian 82(TM) system (copyright 1983,
 Carnegie Mellon University). Gaussian is a federally registered
 trademark of Gaussian, Inc.
  
 This software contains proprietary and confidential information,
 including trade secrets, belonging to Gaussian, Inc.
  
 This software is provided under written license and may be
 used, copied, transmitted, or stored only in accord with that
 written license.
  
 The following legend is applicable only to US Government
 contracts under FAR:
  
                    RESTRICTED RIGHTS LEGEND
  
 Use, reproduction and disclosure by the US Government is
 subject to restrictions as set forth in subparagraphs (a)
 and (c) of the Commercial Computer Software - Restricted
 Rights clause in FAR 52.227-19.
  
 Gaussian, Inc.
 340 Quinnipiac St., Bldg. 40, Wallingford CT 06492
  
  
 ---------------------------------------------------------------
 Warning -- This program may not be used in any manner that
 competes with the business of Gaussian, Inc. or will provide
 assistance to any competitor of Gaussian, Inc.  The licensee
 of this program is prohibited from giving any competitor of
 Gaussian, Inc. access to this program.  By using this program,
 the user acknowledges that Gaussian, Inc. is engaged in the
 business of creating and licensing software in the field of
 computational chemistry and represents and warrants to the
 licensee that it is not a competitor of Gaussian, Inc. and that
 it will not use this program in any manner prohibited above.
 ---------------------------------------------------------------
  

 Cite this work as:
 Gaussian 16, Revision A.03,
 M. J. Frisch, G. W. Trucks, H. B. Schlegel, G. E. Scuseria, 
 M. A. Robb, J. R. Cheeseman, G. Scalmani, V. Barone, 
 G. A. Petersson, H. Nakatsuji, X. Li, M. Caricato, A. V. Marenich, 
 J. Bloino, B. G. Janesko, R. Gomperts, B. Mennucci, H. P. Hratchian, 
 J. V. Ortiz, A. F. Izmaylov, J. L. Sonnenberg, D. Williams-Young, 
 F. Ding, F. Lipparini, F. Egidi, J. Goings, B. Peng, A. Petrone, 
 T. Henderson, D. Ranasinghe, V. G. Zakrzewski, J. Gao, N. Rega, 
 G. Zheng, W. Liang, M. Hada, M. Ehara, K. Toyota, R. Fukuda, 
 J. Hasegawa, M. Ishida, T. Nakajima, Y. Honda, O. Kitao, H. Nakai, 
 T. Vreven, K. Throssell, J. A. Montgomery, Jr., J. E. Peralta, 
 F. Ogliaro, M. J. Bearpark, J. J. Heyd, E. N. Brothers, K. N. Kudin, 
 V. N. Staroverov, T. A. Keith, R. Kobayashi, J. Normand, 
 K. Raghavachari, A. P. Rendell, J. C. Burant, S. S. Iyengar, 
 J. Tomasi, M. Cossi, J. M. Millam, M. Klene, C. Adamo, R. Cammi, 
 J. W. Ochterski, R. L. Martin, K. Morokuma, O. Farkas, 
 J. B. Foresman, and D. J. Fox, Gaussian, Inc., Wallingford CT, 2016.
 
 ******************************************
 Gaussian 16:  ES64L-G16RevA.03 25-Dec-2016
                20-Nov-2023 
 ******************************************
 %NProcShared=4
 Will use up to    4 processors via shared memory.
 %Mem=1GB
 %Chk=C.chk
 ----------------------------------------------------
 # B3LYP/aug-cc-pVTZ EmpiricalDispersion=GD3 Pop=Full
 ----------------------------------------------------
 1/38=1,172=1/1;
 2/12=2,17=6,18=5,40=1/2;
 3/5=16,6=1,7=10,11=2,25=1,30=1,74=-5,124=31/1,2,3;
 4//1;
 5/5=2,38=5/2;
 6/7=3,28=1/1;
 99/5=1,9=1/99;
 ------
 Carbon
 ------
 Symbolic Z-matrix:
 Charge =  0 Multiplicity = 3
 C                     0.        0.        0. 
 
                          Input orientation:                          
 ---------------------------------------------------------------------
 Center     Atomic      Atomic             Coordinates (Angstroms)
 Number     Number       Type             X           Y           Z
 ---------------------------------------------------------------------
      1          6           0        0.000000    0.000000    0.000000
 ---------------------------------------------------------------------
 Stoichiometry    C(3)
 Framework group  OH[O(C)]
 Deg. of freedom     0
 Full point group                 OH      NOp  48
 Largest Abelian subgroup         D2H     NOp   8
 Largest concise Abelian subgroup C1      NOp   1
                         Standard orientation:                         
 ---------------------------------------------------------------------
 Center     Atomic      Atomic             Coordinates (Angstroms)
 Number     Number       Type             X           Y           Z
 ---------------------------------------------------------------------
      1          6           0        0.000000    0.000000    0.000000
 ---------------------------------------------------------------------
 Standard basis: Aug-CC-pVTZ (5D, 7F)
 There are    14 symmetry adapted cartesian basis functions of AG  symmetry.
 There are     3 symmetry adapted cartesian basis functions of B1G symmetry.
 There are     3 symmetry adapted cartesian basis functions of B2G symmetry.
 There are     3 symmetry adapted cartesian basis functions of B3G symmetry.
 There are     2 symmetry adapted cartesian basis functions of AU  symmetry.
 There are    10 symmetry adapted cartesian basis functions of B1U symmetry.
 There are    10 symmetry adapted cartesian basis functions of B2U symmetry.
 There are    10 symmetry adapted cartesian basis functions of B3U symmetry.
 There are    11 symmetry adapted basis functions of AG  symmetry.
 There are     3 symmetry adapted basis functions of B1G symmetry.
 There are     3 symmetry adapted basis functions of B2G symmetry.
 There are     3 symmetry adapted basis functions of B3G symmetry.
 There are     2 symmetry adapted basis functions of AU  symmetry.
 There are     8 symmetry adapted basis functions of B1U symmetry.
 There are     8 symmetry adapted basis functions of B2U symmetry.
 There are     8 symmetry adapted basis functions of B3U symmetry.
    46 basis functions,    72 primitive gaussians,    55 cartesian basis functions
     4 alpha electrons        2 beta electrons
       nuclear repulsion energy         0.0000000000 Hartrees.
 NAtoms=    1 NActive=    1 NUniq=    1 SFac= 1.00D+00 NAtFMM=   60 NAOKFM=F Big=F
 Integral buffers will be    131072 words long.
 Raffenetti 2 integral format.
 Two-electron integral symmetry is turned on.
 Nuclear repulsion after empirical dispersion term =        0.0000000000 Hartrees.
 One-electron integrals computed using PRISM.
 NBasis=    46 RedAO= T EigKep=  2.98D-02  NBF=    11     3     3     3     2     8     8     8
 NBsUse=    46 1.00D-06 EigRej= -1.00D+00 NBFU=    11     3     3     3     2     8     8     8
 ExpMin= 3.57D-02 ExpMax= 8.24D+03 ExpMxC= 2.81D+02 IAcc=3 IRadAn=         5 AccDes= 0.00D+00
 Harris functional with IExCor=  402 and IRadAn=       5 diagonalized for initial guess.
 HarFok:  IExCor=  402 AccDes= 0.00D+00 IRadAn=         5 IDoV= 1 UseB2=F ITyADJ=14
 ICtDFT=  3500011 ScaDFX=  1.000000  1.000000  1.000000  1.000000
 FoFCou: FMM=F IPFlag=           0 FMFlag=      100000 FMFlg1=           0
         NFxFlg=           0 DoJE=T BraDBF=F KetDBF=T FulRan=T
         wScrn=  0.000000 ICntrl=       500 IOpCl=  0 I1Cent=   200000004 NGrid=           0
         NMat0=    1 NMatS0=      1 NMatT0=    0 NMatD0=    1 NMtDS0=    0 NMtDT0=    0
 Petite list used in FoFCou.
 Initial guess orbital symmetries:
 Alpha Orbitals:
       Occupied  (A1G) (A1G) (T1U) (T1U)
       Virtual   (T1U) (A1G) (T1U) (T1U) (T1U) (T2G) (T2G) (T2G)
                 (EG) (EG) (T1U) (T1U) (T1U) (A1G) (T2G) (T2G)
                 (T2G) (EG) (EG) (T2U) (T2U) (T2U) (A2U) (T1U)
                 (T1U) (T1U) (T1U) (T1U) (T1U) (T2G) (T2G) (T2G)
                 (EG) (EG) (T2U) (T2U) (T2U) (A2U) (T1U) (T1U)
                 (T1U) (A1G)
 Beta  Orbitals:
       Occupied  (A1G) (A1G)
       Virtual   (T1U) (T1U) (T1U) (A1G) (T1U) (T1U) (T1U) (T2G)
                 (T2G) (T2G) (EG) (EG) (T1U) (T1U) (T1U) (A1G)
                 (T2G) (T2G) (T2G) (EG) (EG) (T2U) (T2U) (T2U)
                 (A2U) (T1U) (T1U) (T1U) (T1U) (T1U) (T1U) (T2G)
                 (T2G) (T2G) (EG) (EG) (T2U) (T2U) (T2U) (A2U)
                 (T1U) (T1U) (T1U) (A1G)
 Initial guess <Sx>= 0.0000 <Sy>= 0.0000 <Sz>= 1.0000 <S**2>= 2.0000 S= 1.0000
 Keep R1 and R2 ints in memory in symmetry-blocked form, NReq=4095399.
 Requested convergence on RMS density matrix=1.00D-08 within 128 cycles.
 Requested convergence on MAX density matrix=1.00D-06.
 Requested convergence on             energy=1.00D-06.
 No special actions if energy rises.
 Density matrix breaks symmetry, PCut= 1.00D-04
 Density has only Abelian symmetry.
 Density matrix breaks symmetry, PCut= 1.00D-04
 Density has only Abelian symmetry.
 Density matrix breaks symmetry, PCut= 1.00D-04
 Density has only Abelian symmetry.
 Density matrix breaks symmetry, PCut= 1.00D-04
 Density has only Abelian symmetry.
 Density matrix breaks symmetry, PCut= 1.00D-04
 Density has only Abelian symmetry.
 Density matrix breaks symmetry, PCut= 1.00D-04
 Density has only Abelian symmetry.
 Density matrix breaks symmetry, PCut= 1.00D-04
 Density has only Abelian symmetry.
 Density matrix breaks symmetry, PCut= 1.00D-04
 Density has only Abelian symmetry.
 SCF Done:  E(UB3LYP) =  -37.8590608392     A.U. after    7 cycles
            NFock=  7  Conv=0.41D-08     -V/T= 2.0068
 <Sx>= 0.0000 <Sy>= 0.0000 <Sz>= 1.0000 <S**2>= 2.0037 S= 1.0012
 <L.S>= 0.000000000000E+00
 Annihilation of the first spin contaminant:
 S**2 before annihilation     2.0037,   after     2.0000
 SCF density gives NOpUse=  8 NOpAll= 48.

 **********************************************************************

            Population analysis using the SCF density.

 **********************************************************************

 Orbital symmetries:
 Alpha Orbitals:
       Occupied  (A1G) (?A) (?B) (?B)
       Virtual   (?B) (A1G) (?B) (?B) (?B) (T2G) (T2G) (T2G) (?A)
                 (?A) (?B) (?B) (?B) (?A) (T2G) (?A) (T2G) (T2G)
                 (?A) (A2U) (?C) (?C) (?C) (?C) (?C) (?C) (?B)
                 (?B) (?B) (T2G) (T2G) (T2G) (T2G) (T2G) (A2U)
                 (?C) (?C) (?C) (?C) (?C) (?C) (T2G)
 Beta  Orbitals:
       Occupied  (A1G) (?A)
       Virtual   (?B) (?B) (?B) (?A) (?B) (?B) (?B) (?A) (?C) (?C)
                 (?C) (?A) (?B) (?B) (?B) (?A) (?A) (?C) (?C) (?C)
                 (?A) (?B) (?B) (?B) (?B) (A2U) (?B) (?B) (?B)
                 (?B) (?B) (?A) (T2G) (T2G) (T2G) (?A) (?B) (?B)
                 (?B) (?B) (A2U) (?B) (?B) (A1G)
 Unable to determine electronic state:  an orbital has unidentified symmetry.
 Alpha  occ. eigenvalues --  -10.31148  -0.59063  -0.26941  -0.26941
 Alpha virt. eigenvalues --   -0.15753   0.03183   0.05393   0.05393   0.06011
 Alpha virt. eigenvalues --    0.21658   0.21658   0.21664   0.21664   0.22018
 Alpha virt. eigenvalues --    0.39357   0.39357   0.40949   0.56531   0.84453
 Alpha virt. eigenvalues --    0.84453   0.84758   0.84758   0.85626   0.92509
 Alpha virt. eigenvalues --    0.92509   0.92608   0.92608   0.92783   0.92783
 Alpha virt. eigenvalues --    0.92826   1.98054   1.98054   2.00554   3.02077
 Alpha virt. eigenvalues --    3.02077   3.03188   3.03188   3.05097   3.12538
 Alpha virt. eigenvalues --    3.12538   3.12826   3.12826   3.13022   3.13022
 Alpha virt. eigenvalues --    3.13657   4.17524
  Beta  occ. eigenvalues --  -10.28247  -0.48156
  Beta virt. eigenvalues --   -0.12940  -0.08493  -0.08493   0.04005   0.06225
  Beta virt. eigenvalues --    0.06968   0.06968   0.22299   0.22434   0.22434
  Beta virt. eigenvalues --    0.23162   0.23162   0.42089   0.44752   0.44752
  Beta virt. eigenvalues --    0.60911   0.88269   0.89118   0.89118   0.91737
  Beta virt. eigenvalues --    0.91737   0.93980   0.94265   0.94265   0.95014
  Beta virt. eigenvalues --    0.95014   0.96287   0.96287   2.02429   2.06754
  Beta virt. eigenvalues --    2.06754   3.09443   3.10860   3.10860   3.15069
  Beta virt. eigenvalues --    3.15069   3.17392   3.18047   3.18047   3.19819
  Beta virt. eigenvalues --    3.19819   3.22772   3.22772   4.22786
     Alpha Molecular Orbital Coefficients:
                           1         2         3         4         5
                       (A1G)--O      O         O         O         V
     Eigenvalues --   -10.31148  -0.59063  -0.26941  -0.26941  -0.15753
   1 1   C  1S          0.97283  -0.22372   0.00000   0.00000   0.00000
   2        2S         -0.01338   0.56660   0.00000   0.00000   0.00000
   3        3S          0.05283   0.16265   0.00000   0.00000   0.00000
   4        4S          0.00428   0.36707   0.00000   0.00000   0.00000
   5        5S         -0.00095   0.00269   0.00000   0.00000   0.00000
   6        6PX         0.00000   0.00000   0.00000   0.37408   0.00000
   7        6PY         0.00000   0.00000   0.37408   0.00000   0.00000
   8        6PZ         0.00000   0.00000   0.00000   0.00000   0.33603
   9        7PX         0.00000   0.00000   0.00000   0.47870   0.00000
  10        7PY         0.00000   0.00000   0.47870   0.00000   0.00000
  11        7PZ         0.00000   0.00000   0.00000   0.00000   0.44294
  12        8PX         0.00000   0.00000   0.00000   0.33725   0.00000
  13        8PY         0.00000   0.00000   0.33725   0.00000   0.00000
  14        8PZ         0.00000   0.00000   0.00000   0.00000   0.38733
  15        9PX         0.00000   0.00000   0.00000   0.03320   0.00000
  16        9PY         0.00000   0.00000   0.03320   0.00000   0.00000
  17        9PZ         0.00000   0.00000   0.00000   0.00000   0.08402
  18       10D 0       -0.00074  -0.00763   0.00000   0.00000   0.00000
  19       10D+1        0.00000   0.00000   0.00000   0.00000   0.00000
  20       10D-1        0.00000   0.00000   0.00000   0.00000   0.00000
  21       10D+2        0.00000  -0.00000   0.00000   0.00000   0.00000
  22       10D-2        0.00000   0.00000   0.00000   0.00000   0.00000
  23       11D 0        0.00017  -0.00684   0.00000   0.00000   0.00000
  24       11D+1        0.00000   0.00000   0.00000   0.00000   0.00000
  25       11D-1        0.00000   0.00000   0.00000   0.00000   0.00000
  26       11D+2       -0.00000   0.00000   0.00000   0.00000   0.00000
  27       11D-2        0.00000   0.00000   0.00000   0.00000   0.00000
  28       12D 0       -0.00009  -0.00253   0.00000   0.00000   0.00000
  29       12D+1        0.00000   0.00000   0.00000   0.00000   0.00000
  30       12D-1        0.00000   0.00000   0.00000   0.00000   0.00000
  31       12D+2        0.00000  -0.00000   0.00000   0.00000   0.00000
  32       12D-2        0.00000   0.00000   0.00000   0.00000   0.00000
  33       13F 0        0.00000   0.00000   0.00000   0.00000  -0.00381
  34       13F+1        0.00000   0.00000   0.00000  -0.00102   0.00000
  35       13F-1        0.00000   0.00000  -0.00102   0.00000   0.00000
  36       13F+2        0.00000   0.00000   0.00000   0.00000   0.00000
  37       13F-2        0.00000   0.00000   0.00000   0.00000   0.00000
  38       13F+3        0.00000   0.00000   0.00000  -0.00000   0.00000
  39       13F-3        0.00000   0.00000   0.00000   0.00000   0.00000
  40       14F 0        0.00000   0.00000   0.00000   0.00000  -0.00141
  41       14F+1        0.00000   0.00000   0.00000   0.00047   0.00000
  42       14F-1        0.00000   0.00000   0.00047   0.00000   0.00000
  43       14F+2        0.00000   0.00000   0.00000   0.00000   0.00000
  44       14F-2        0.00000   0.00000   0.00000   0.00000   0.00000
  45       14F+3        0.00000   0.00000   0.00000  -0.00000   0.00000
  46       14F-3        0.00000   0.00000   0.00000   0.00000   0.00000
                           6         7         8         9        10
                       (A1G)--V      V         V         V     (T2G)--V
     Eigenvalues --     0.03183   0.05393   0.05393   0.06011   0.21658
   1 1   C  1S          0.07906   0.00000   0.00000   0.00000   0.00000
   2        2S         -0.13751   0.00000   0.00000   0.00000   0.00000
   3        3S         -0.06921   0.00000   0.00000   0.00000   0.00000
   4        4S         -0.86266   0.00000   0.00000   0.00000   0.00000
   5        5S          1.55510   0.00000   0.00000   0.00000   0.00000
   6        6PX         0.00000   0.00000  -0.12598   0.00000   0.00000
   7        6PY         0.00000  -0.12598   0.00000   0.00000   0.00000
   8        6PZ         0.00000   0.00000   0.00000  -0.14096   0.00000
   9        7PX         0.00000   0.00000  -0.11942   0.00000   0.00000
  10        7PY         0.00000  -0.11942   0.00000   0.00000   0.00000
  11        7PZ         0.00000   0.00000   0.00000  -0.14151   0.00000
  12        8PX         0.00000   0.00000  -0.30832   0.00000   0.00000
  13        8PY         0.00000  -0.30832   0.00000   0.00000   0.00000
  14        8PZ         0.00000   0.00000   0.00000  -0.36969   0.00000
  15        9PX         0.00000   0.00000   1.15255   0.00000   0.00000
  16        9PY         0.00000   1.15255   0.00000   0.00000   0.00000
  17        9PZ         0.00000   0.00000   0.00000   1.16442   0.00000
  18       10D 0        0.00185   0.00000   0.00000   0.00000   0.00000
  19       10D+1        0.00000   0.00000   0.00000   0.00000   0.03577
  20       10D-1        0.00000   0.00000   0.00000   0.00000   0.00000
  21       10D+2        0.00000   0.00000   0.00000   0.00000   0.00000
  22       10D-2        0.00000   0.00000   0.00000   0.00000   0.00000
  23       11D 0        0.00144   0.00000   0.00000   0.00000   0.00000
  24       11D+1        0.00000   0.00000   0.00000   0.00000  -0.04729
  25       11D-1        0.00000   0.00000   0.00000   0.00000   0.00000
  26       11D+2        0.00000   0.00000   0.00000   0.00000   0.00000
  27       11D-2        0.00000   0.00000   0.00000   0.00000   0.00000
  28       12D 0       -0.00219   0.00000   0.00000   0.00000   0.00000
  29       12D+1        0.00000   0.00000   0.00000   0.00000   1.02202
  30       12D-1        0.00000   0.00000   0.00000   0.00000   0.00000
  31       12D+2       -0.00000   0.00000   0.00000   0.00000   0.00000
  32       12D-2        0.00000   0.00000   0.00000   0.00000   0.00000
  33       13F 0        0.00000   0.00000   0.00000   0.00140   0.00000
  34       13F+1        0.00000   0.00000   0.00010   0.00000   0.00000
  35       13F-1        0.00000   0.00010   0.00000   0.00000   0.00000
  36       13F+2        0.00000   0.00000   0.00000   0.00000   0.00000
  37       13F-2        0.00000   0.00000   0.00000   0.00000   0.00000
  38       13F+3        0.00000   0.00000   0.00000   0.00000   0.00000
  39       13F-3        0.00000  -0.00000   0.00000   0.00000   0.00000
  40       14F 0        0.00000   0.00000   0.00000  -0.00021   0.00000
  41       14F+1        0.00000   0.00000   0.00043   0.00000   0.00000
  42       14F-1        0.00000   0.00043   0.00000   0.00000   0.00000
  43       14F+2        0.00000   0.00000   0.00000  -0.00000   0.00000
  44       14F-2        0.00000   0.00000   0.00000   0.00000   0.00000
  45       14F+3        0.00000   0.00000  -0.00000   0.00000   0.00000
  46       14F-3        0.00000   0.00000   0.00000   0.00000   0.00000
                          11        12        13        14        15
                       (T2G)--V  (T2G)--V      V         V         V
     Eigenvalues --     0.21658   0.21664   0.21664   0.22018   0.39357
   1 1   C  1S          0.00000   0.00000   0.00000  -0.00148   0.00000
   2        2S          0.00000   0.00000  -0.00000  -0.00060   0.00000
   3        3S          0.00000   0.00000  -0.00000   0.00032   0.00000
   4        4S          0.00000   0.00000  -0.00000   0.00992   0.00000
   5        5S          0.00000   0.00000   0.00000  -0.00194   0.00000
   6        6PX         0.00000   0.00000   0.00000   0.00000  -0.27397
   7        6PY         0.00000   0.00000   0.00000   0.00000   0.00000
   8        6PZ         0.00000   0.00000   0.00000   0.00000   0.00000
   9        7PX         0.00000   0.00000   0.00000   0.00000  -0.81532
  10        7PY         0.00000   0.00000   0.00000   0.00000   0.00000
  11        7PZ         0.00000   0.00000   0.00000   0.00000   0.00000
  12        8PX         0.00000   0.00000   0.00000   0.00000   1.65756
  13        8PY         0.00000   0.00000   0.00000   0.00000   0.00000
  14        8PZ         0.00000   0.00000   0.00000   0.00000   0.00000
  15        9PX         0.00000   0.00000   0.00000   0.00000  -0.76920
  16        9PY         0.00000   0.00000   0.00000   0.00000   0.00000
  17        9PZ         0.00000   0.00000   0.00000   0.00000   0.00000
  18       10D 0        0.00000   0.00000  -0.00000   0.03504   0.00000
  19       10D+1        0.00000   0.00000   0.00000   0.00000   0.00000
  20       10D-1        0.03577   0.00000   0.00000   0.00000   0.00000
  21       10D+2        0.00000   0.00000   0.03687   0.00000   0.00000
  22       10D-2        0.00000   0.03687   0.00000   0.00000   0.00000
  23       11D 0        0.00000   0.00000   0.00000  -0.05043   0.00000
  24       11D+1        0.00000   0.00000   0.00000   0.00000   0.00000
  25       11D-1       -0.04729   0.00000   0.00000   0.00000   0.00000
  26       11D+2        0.00000   0.00000  -0.04409  -0.00000   0.00000
  27       11D-2        0.00000  -0.04409   0.00000   0.00000   0.00000
  28       12D 0        0.00000   0.00000  -0.00000   1.02384   0.00000
  29       12D+1        0.00000   0.00000   0.00000   0.00000   0.00000
  30       12D-1        1.02202   0.00000   0.00000   0.00000   0.00000
  31       12D+2        0.00000   0.00000   1.02008   0.00000   0.00000
  32       12D-2        0.00000   1.02008   0.00000   0.00000   0.00000
  33       13F 0        0.00000   0.00000   0.00000   0.00000   0.00000
  34       13F+1        0.00000   0.00000   0.00000   0.00000  -0.00001
  35       13F-1        0.00000   0.00000   0.00000   0.00000   0.00000
  36       13F+2        0.00000   0.00000   0.00000   0.00000   0.00000
  37       13F-2        0.00000   0.00000   0.00000   0.00000   0.00000
  38       13F+3        0.00000   0.00000   0.00000   0.00000   0.00000
  39       13F-3        0.00000   0.00000   0.00000   0.00000   0.00000
  40       14F 0        0.00000   0.00000   0.00000   0.00000   0.00000
  41       14F+1        0.00000   0.00000   0.00000   0.00000   0.00303
  42       14F-1        0.00000   0.00000   0.00000   0.00000   0.00000
  43       14F+2        0.00000   0.00000   0.00000   0.00000   0.00000
  44       14F-2        0.00000   0.00000   0.00000   0.00000   0.00000
  45       14F+3        0.00000   0.00000   0.00000   0.00000  -0.00000
  46       14F-3        0.00000   0.00000   0.00000   0.00000   0.00000
                          16        17        18        19        20
                           V         V         V     (T2G)--V      V
     Eigenvalues --     0.39357   0.40949   0.56531   0.84453   0.84453
   1 1   C  1S          0.00000   0.00000   0.05065   0.00000   0.00000
   2        2S          0.00000   0.00000  -1.52019   0.00000  -0.00000
   3        3S          0.00000   0.00000  -0.40508   0.00000  -0.00000
   4        4S          0.00000   0.00000   2.86082   0.00000   0.00000
   5        5S          0.00000   0.00000  -1.30909   0.00000  -0.00000
   6        6PX         0.00000   0.00000   0.00000   0.00000   0.00000
   7        6PY        -0.27397   0.00000   0.00000   0.00000   0.00000
   8        6PZ         0.00000  -0.28147   0.00000   0.00000   0.00000
   9        7PX         0.00000   0.00000   0.00000   0.00000   0.00000
  10        7PY        -0.81532   0.00000   0.00000   0.00000   0.00000
  11        7PZ         0.00000  -0.86033   0.00000   0.00000   0.00000
  12        8PX         0.00000   0.00000   0.00000   0.00000   0.00000
  13        8PY         1.65756   0.00000   0.00000   0.00000   0.00000
  14        8PZ         0.00000   1.64133   0.00000   0.00000   0.00000
  15        9PX         0.00000   0.00000   0.00000   0.00000   0.00000
  16        9PY        -0.76920   0.00000   0.00000   0.00000   0.00000
  17        9PZ         0.00000  -0.74880   0.00000   0.00000   0.00000
  18       10D 0        0.00000   0.00000   0.00548   0.00000   0.00000
  19       10D+1        0.00000   0.00000   0.00000   0.00000   0.00000
  20       10D-1        0.00000   0.00000   0.00000   0.00000   0.00000
  21       10D+2        0.00000   0.00000  -0.00000   0.00000   0.01328
  22       10D-2        0.00000   0.00000   0.00000   0.01328   0.00000
  23       11D 0        0.00000   0.00000   0.00891   0.00000  -0.00000
  24       11D+1        0.00000   0.00000   0.00000   0.00000   0.00000
  25       11D-1        0.00000   0.00000   0.00000   0.00000   0.00000
  26       11D+2        0.00000   0.00000   0.00000   0.00000   1.21167
  27       11D-2        0.00000   0.00000   0.00000   1.21167   0.00000
  28       12D 0        0.00000   0.00000  -0.00847   0.00000   0.00000
  29       12D+1        0.00000   0.00000   0.00000   0.00000   0.00000
  30       12D-1        0.00000   0.00000   0.00000   0.00000   0.00000
  31       12D+2        0.00000   0.00000  -0.00000   0.00000  -0.68177
  32       12D-2        0.00000   0.00000   0.00000  -0.68177   0.00000
  33       13F 0        0.00000   0.00273   0.00000   0.00000   0.00000
  34       13F+1        0.00000   0.00000   0.00000   0.00000   0.00000
  35       13F-1       -0.00001   0.00000   0.00000   0.00000   0.00000
  36       13F+2        0.00000  -0.00000   0.00000   0.00000   0.00000
  37       13F-2        0.00000   0.00000   0.00000   0.00000   0.00000
  38       13F+3        0.00000   0.00000   0.00000   0.00000   0.00000
  39       13F-3       -0.00000   0.00000   0.00000   0.00000   0.00000
  40       14F 0        0.00000  -0.00105   0.00000   0.00000   0.00000
  41       14F+1        0.00000   0.00000   0.00000   0.00000   0.00000
  42       14F-1        0.00303   0.00000   0.00000   0.00000   0.00000
  43       14F+2        0.00000   0.00000   0.00000   0.00000   0.00000
  44       14F-2        0.00000   0.00000   0.00000   0.00000   0.00000
  45       14F+3        0.00000   0.00000   0.00000   0.00000   0.00000
  46       14F-3        0.00000   0.00000   0.00000   0.00000   0.00000
                          21        22        23        24        25
                       (T2G)--V  (T2G)--V      V     (A2U)--V      V
     Eigenvalues --     0.84758   0.84758   0.85626   0.92509   0.92509
   1 1   C  1S          0.00000   0.00000  -0.00203   0.00000   0.00000
   2        2S          0.00000   0.00000   0.02350   0.00000   0.00000
   3        3S          0.00000   0.00000   0.00470   0.00000   0.00000
   4        4S          0.00000   0.00000  -0.02517   0.00000   0.00000
   5        5S          0.00000   0.00000   0.01052   0.00000   0.00000
   6        6PX         0.00000   0.00000   0.00000   0.00000   0.00000
   7        6PY         0.00000   0.00000   0.00000   0.00000   0.00000
   8        6PZ         0.00000   0.00000   0.00000   0.00000   0.00000
   9        7PX         0.00000   0.00000   0.00000   0.00000   0.00000
  10        7PY         0.00000   0.00000   0.00000   0.00000   0.00000
  11        7PZ         0.00000   0.00000   0.00000   0.00000  -0.00000
  12        8PX         0.00000   0.00000   0.00000   0.00000   0.00000
  13        8PY         0.00000   0.00000   0.00000   0.00000   0.00000
  14        8PZ         0.00000   0.00000   0.00000   0.00000  -0.00000
  15        9PX         0.00000   0.00000   0.00000   0.00000   0.00000
  16        9PY         0.00000   0.00000   0.00000   0.00000   0.00000
  17        9PZ         0.00000   0.00000   0.00000   0.00000   0.00000
  18       10D 0        0.00000   0.00000   0.00643   0.00000   0.00000
  19       10D+1        0.00976   0.00000   0.00000   0.00000   0.00000
  20       10D-1        0.00000   0.00976   0.00000   0.00000   0.00000
  21       10D+2        0.00000   0.00000   0.00000   0.00000   0.00000
  22       10D-2        0.00000   0.00000   0.00000   0.00000   0.00000
  23       11D 0        0.00000   0.00000   1.21614   0.00000   0.00000
  24       11D+1        1.21404   0.00000   0.00000   0.00000   0.00000
  25       11D-1        0.00000   1.21404   0.00000   0.00000   0.00000
  26       11D+2        0.00000   0.00000   0.00000   0.00000   0.00000
  27       11D-2        0.00000   0.00000   0.00000   0.00000   0.00000
  28       12D 0        0.00000   0.00000  -0.67712   0.00000   0.00000
  29       12D+1       -0.67936   0.00000   0.00000   0.00000   0.00000
  30       12D-1        0.00000  -0.67936   0.00000   0.00000   0.00000
  31       12D+2        0.00000   0.00000  -0.00000   0.00000   0.00000
  32       12D-2        0.00000   0.00000   0.00000   0.00000   0.00000
  33       13F 0        0.00000   0.00000   0.00000   0.00000   0.00000
  34       13F+1        0.00000   0.00000   0.00000   0.00000   0.00000
  35       13F-1        0.00000   0.00000   0.00000   0.00000   0.00000
  36       13F+2        0.00000   0.00000   0.00000   0.00000  -0.11337
  37       13F-2        0.00000   0.00000   0.00000  -0.11337   0.00000
  38       13F+3        0.00000   0.00000   0.00000   0.00000   0.00000
  39       13F-3        0.00000   0.00000   0.00000   0.00000   0.00000
  40       14F 0        0.00000   0.00000   0.00000   0.00000  -0.00000
  41       14F+1        0.00000   0.00000   0.00000   0.00000   0.00000
  42       14F-1        0.00000   0.00000   0.00000   0.00000   0.00000
  43       14F+2        0.00000   0.00000   0.00000   0.00000   1.05860
  44       14F-2        0.00000   0.00000   0.00000   1.05860   0.00000
  45       14F+3        0.00000   0.00000   0.00000   0.00000   0.00000
  46       14F-3        0.00000   0.00000   0.00000   0.00000   0.00000
                          26        27        28        29        30
                           V         V         V         V         V
     Eigenvalues --     0.92608   0.92608   0.92783   0.92783   0.92826
   1 1   C  1S          0.00000   0.00000   0.00000   0.00000   0.00000
   2        2S          0.00000   0.00000   0.00000   0.00000   0.00000
   3        3S          0.00000   0.00000   0.00000   0.00000   0.00000
   4        4S          0.00000   0.00000   0.00000   0.00000   0.00000
   5        5S          0.00000   0.00000   0.00000   0.00000   0.00000
   6        6PX         0.00067   0.00000   0.00000  -0.00000   0.00000
   7        6PY         0.00000   0.00067   0.00000   0.00000   0.00000
   8        6PZ         0.00000   0.00000   0.00000   0.00000   0.00279
   9        7PX         0.00280   0.00000   0.00000   0.00000   0.00000
  10        7PY         0.00000   0.00280  -0.00000   0.00000   0.00000
  11        7PZ         0.00000   0.00000   0.00000   0.00000  -0.00032
  12        8PX        -0.00500   0.00000   0.00000  -0.00000   0.00000
  13        8PY         0.00000  -0.00500   0.00000   0.00000   0.00000
  14        8PZ         0.00000   0.00000   0.00000   0.00000   0.00215
  15        9PX         0.00182   0.00000   0.00000   0.00000   0.00000
  16        9PY         0.00000   0.00182  -0.00000   0.00000   0.00000
  17        9PZ         0.00000   0.00000   0.00000   0.00000  -0.00043
  18       10D 0        0.00000   0.00000   0.00000   0.00000   0.00000
  19       10D+1        0.00000   0.00000   0.00000   0.00000   0.00000
  20       10D-1        0.00000   0.00000   0.00000   0.00000   0.00000
  21       10D+2        0.00000   0.00000   0.00000   0.00000   0.00000
  22       10D-2        0.00000   0.00000   0.00000   0.00000   0.00000
  23       11D 0        0.00000   0.00000   0.00000   0.00000   0.00000
  24       11D+1        0.00000   0.00000   0.00000   0.00000   0.00000
  25       11D-1        0.00000   0.00000   0.00000   0.00000   0.00000
  26       11D+2        0.00000   0.00000   0.00000   0.00000   0.00000
  27       11D-2        0.00000   0.00000   0.00000   0.00000   0.00000
  28       12D 0        0.00000   0.00000   0.00000   0.00000   0.00000
  29       12D+1        0.00000   0.00000   0.00000   0.00000   0.00000
  30       12D-1        0.00000   0.00000   0.00000   0.00000   0.00000
  31       12D+2        0.00000   0.00000   0.00000   0.00000   0.00000
  32       12D-2        0.00000   0.00000   0.00000   0.00000   0.00000
  33       13F 0        0.00000   0.00000   0.00000   0.00000  -0.11461
  34       13F+1       -0.11406   0.00000   0.00000  -0.00000   0.00000
  35       13F-1        0.00000  -0.11406   0.00000   0.00000   0.00000
  36       13F+2        0.00000   0.00000   0.00000   0.00000  -0.00000
  37       13F-2        0.00000   0.00000   0.00000   0.00000   0.00000
  38       13F+3        0.00000   0.00000   0.00000  -0.11321   0.00000
  39       13F-3        0.00000  -0.00000  -0.11321   0.00000   0.00000
  40       14F 0        0.00000   0.00000   0.00000   0.00000   1.05919
  41       14F+1        1.05893   0.00000   0.00000   0.00000   0.00000
  42       14F-1        0.00000   1.05893  -0.00000   0.00000   0.00000
  43       14F+2        0.00000   0.00000   0.00000   0.00000   0.00000
  44       14F-2        0.00000   0.00000   0.00000   0.00000   0.00000
  45       14F+3       -0.00000   0.00000   0.00000   1.05853   0.00000
  46       14F-3        0.00000   0.00000   1.05853   0.00000   0.00000
                          31        32        33        34        35
                           V         V         V     (T2G)--V  (T2G)--V
     Eigenvalues --     1.98054   1.98054   2.00554   3.02077   3.02077
   1 1   C  1S          0.00000   0.00000   0.00000   0.00000   0.00000
   2        2S          0.00000   0.00000   0.00000   0.00000  -0.00000
   3        3S          0.00000   0.00000   0.00000   0.00000  -0.00000
   4        4S          0.00000   0.00000   0.00000   0.00000   0.00000
   5        5S          0.00000   0.00000   0.00000   0.00000   0.00000
   6        6PX        -1.26594   0.00000   0.00000   0.00000   0.00000
   7        6PY         0.00000  -1.26594   0.00000   0.00000   0.00000
   8        6PZ         0.00000   0.00000  -1.27336   0.00000   0.00000
   9        7PX         1.64565   0.00000   0.00000   0.00000   0.00000
  10        7PY         0.00000   1.64565   0.00000   0.00000   0.00000
  11        7PZ         0.00000   0.00000   1.63094   0.00000   0.00000
  12        8PX        -0.94895   0.00000   0.00000   0.00000   0.00000
  13        8PY         0.00000  -0.94895   0.00000   0.00000   0.00000
  14        8PZ         0.00000   0.00000  -0.93604   0.00000   0.00000
  15        9PX         0.30116   0.00000   0.00000   0.00000   0.00000
  16        9PY         0.00000   0.30116   0.00000   0.00000   0.00000
  17        9PZ         0.00000   0.00000   0.29698   0.00000   0.00000
  18       10D 0        0.00000   0.00000   0.00000   0.00000  -0.00000
  19       10D+1        0.00000   0.00000   0.00000   0.00000   0.00000
  20       10D-1        0.00000   0.00000   0.00000   0.00000   0.00000
  21       10D+2        0.00000   0.00000   0.00000   0.00000   1.22134
  22       10D-2        0.00000   0.00000   0.00000   1.22134   0.00000
  23       11D 0        0.00000   0.00000   0.00000   0.00000   0.00000
  24       11D+1        0.00000   0.00000   0.00000   0.00000   0.00000
  25       11D-1        0.00000   0.00000   0.00000   0.00000   0.00000
  26       11D+2        0.00000   0.00000   0.00000   0.00000  -0.84886
  27       11D-2        0.00000   0.00000   0.00000  -0.84886   0.00000
  28       12D 0        0.00000   0.00000   0.00000   0.00000  -0.00000
  29       12D+1        0.00000   0.00000   0.00000   0.00000   0.00000
  30       12D-1        0.00000   0.00000   0.00000   0.00000   0.00000
  31       12D+2        0.00000   0.00000   0.00000   0.00000   0.30274
  32       12D-2        0.00000   0.00000   0.00000   0.30274   0.00000
  33       13F 0        0.00000   0.00000   0.00248   0.00000   0.00000
  34       13F+1        0.00372   0.00000   0.00000   0.00000   0.00000
  35       13F-1        0.00000   0.00372   0.00000   0.00000   0.00000
  36       13F+2        0.00000   0.00000   0.00000   0.00000   0.00000
  37       13F-2        0.00000   0.00000   0.00000   0.00000   0.00000
  38       13F+3        0.00000   0.00000   0.00000   0.00000   0.00000
  39       13F-3        0.00000  -0.00000   0.00000   0.00000   0.00000
  40       14F 0        0.00000   0.00000   0.00006   0.00000   0.00000
  41       14F+1       -0.00195   0.00000   0.00000   0.00000   0.00000
  42       14F-1        0.00000  -0.00195   0.00000   0.00000   0.00000
  43       14F+2        0.00000   0.00000   0.00000   0.00000   0.00000
  44       14F-2        0.00000   0.00000   0.00000   0.00000   0.00000
  45       14F+3       -0.00000   0.00000   0.00000   0.00000   0.00000
  46       14F-3        0.00000   0.00000   0.00000   0.00000   0.00000
                          36        37        38        39        40
                       (T2G)--V  (T2G)--V  (T2G)--V  (A2U)--V      V
     Eigenvalues --     3.03188   3.03188   3.05097   3.12538   3.12538
   1 1   C  1S          0.00000   0.00000   0.01129   0.00000   0.00000
   2        2S          0.00000   0.00000   0.04446   0.00000   0.00000
   3        3S          0.00000   0.00000  -0.02196   0.00000   0.00000
   4        4S          0.00000   0.00000  -0.03239   0.00000   0.00000
   5        5S          0.00000   0.00000   0.01111   0.00000   0.00000
   6        6PX         0.00000   0.00000   0.00000   0.00000   0.00000
   7        6PY         0.00000   0.00000   0.00000   0.00000   0.00000
   8        6PZ         0.00000   0.00000   0.00000   0.00000   0.00000
   9        7PX         0.00000   0.00000   0.00000   0.00000   0.00000
  10        7PY         0.00000   0.00000   0.00000   0.00000   0.00000
  11        7PZ         0.00000   0.00000   0.00000   0.00000  -0.00000
  12        8PX         0.00000   0.00000   0.00000   0.00000   0.00000
  13        8PY         0.00000   0.00000   0.00000   0.00000   0.00000
  14        8PZ         0.00000   0.00000   0.00000   0.00000   0.00000
  15        9PX         0.00000   0.00000   0.00000   0.00000   0.00000
  16        9PY         0.00000   0.00000   0.00000   0.00000   0.00000
  17        9PZ         0.00000   0.00000   0.00000   0.00000  -0.00000
  18       10D 0        0.00000   0.00000   1.22135   0.00000   0.00000
  19       10D+1        1.22141   0.00000   0.00000   0.00000   0.00000
  20       10D-1        0.00000   1.22141   0.00000   0.00000   0.00000
  21       10D+2        0.00000   0.00000   0.00000   0.00000   0.00000
  22       10D-2        0.00000   0.00000   0.00000   0.00000   0.00000
  23       11D 0        0.00000   0.00000  -0.84198   0.00000   0.00000
  24       11D+1       -0.84529   0.00000   0.00000   0.00000   0.00000
  25       11D-1        0.00000  -0.84529   0.00000   0.00000   0.00000
  26       11D+2        0.00000   0.00000  -0.00000   0.00000   0.00000
  27       11D-2        0.00000   0.00000   0.00000   0.00000   0.00000
  28       12D 0        0.00000   0.00000   0.30030   0.00000   0.00000
  29       12D+1        0.30159   0.00000   0.00000   0.00000   0.00000
  30       12D-1        0.00000   0.30159   0.00000   0.00000   0.00000
  31       12D+2        0.00000   0.00000   0.00000   0.00000   0.00000
  32       12D-2        0.00000   0.00000   0.00000   0.00000   0.00000
  33       13F 0        0.00000   0.00000   0.00000   0.00000   0.00000
  34       13F+1        0.00000   0.00000   0.00000   0.00000   0.00000
  35       13F-1        0.00000   0.00000   0.00000   0.00000   0.00000
  36       13F+2        0.00000   0.00000   0.00000   0.00000   1.19789
  37       13F-2        0.00000   0.00000   0.00000   1.19789   0.00000
  38       13F+3        0.00000   0.00000   0.00000   0.00000   0.00000
  39       13F-3        0.00000   0.00000   0.00000   0.00000   0.00000
  40       14F 0        0.00000   0.00000   0.00000   0.00000  -0.00000
  41       14F+1        0.00000   0.00000   0.00000   0.00000   0.00000
  42       14F-1        0.00000   0.00000   0.00000   0.00000   0.00000
  43       14F+2        0.00000   0.00000   0.00000   0.00000  -0.57198
  44       14F-2        0.00000   0.00000   0.00000  -0.57198   0.00000
  45       14F+3        0.00000   0.00000   0.00000   0.00000   0.00000
  46       14F-3        0.00000   0.00000   0.00000   0.00000   0.00000
                          41        42        43        44        45
                           V         V         V         V         V
     Eigenvalues --     3.12826   3.12826   3.13022   3.13022   3.13657
   1 1   C  1S          0.00000   0.00000   0.00000   0.00000   0.00000
   2        2S          0.00000   0.00000   0.00000   0.00000   0.00000
   3        3S          0.00000   0.00000   0.00000   0.00000   0.00000
   4        4S          0.00000   0.00000   0.00000   0.00000   0.00000
   5        5S          0.00000   0.00000   0.00000   0.00000   0.00000
   6        6PX        -0.00000   0.00000   0.00432   0.00000   0.00000
   7        6PY         0.00000   0.00000   0.00000   0.00432   0.00000
   8        6PZ         0.00000   0.00000   0.00000   0.00000   0.00478
   9        7PX         0.00000   0.00000  -0.00444   0.00000   0.00000
  10        7PY         0.00000  -0.00000   0.00000  -0.00444   0.00000
  11        7PZ         0.00000   0.00000   0.00000   0.00000   0.00014
  12        8PX        -0.00000   0.00000   0.00280   0.00000   0.00000
  13        8PY         0.00000   0.00000   0.00000   0.00280   0.00000
  14        8PZ         0.00000   0.00000   0.00000   0.00000   0.00006
  15        9PX         0.00000   0.00000  -0.00084   0.00000   0.00000
  16        9PY         0.00000  -0.00000   0.00000  -0.00084   0.00000
  17        9PZ         0.00000   0.00000   0.00000   0.00000  -0.00004
  18       10D 0        0.00000   0.00000   0.00000   0.00000   0.00000
  19       10D+1        0.00000   0.00000   0.00000   0.00000   0.00000
  20       10D-1        0.00000   0.00000   0.00000   0.00000   0.00000
  21       10D+2        0.00000   0.00000   0.00000   0.00000   0.00000
  22       10D-2        0.00000   0.00000   0.00000   0.00000   0.00000
  23       11D 0        0.00000   0.00000   0.00000   0.00000   0.00000
  24       11D+1        0.00000   0.00000   0.00000   0.00000   0.00000
  25       11D-1        0.00000   0.00000   0.00000   0.00000   0.00000
  26       11D+2        0.00000   0.00000   0.00000   0.00000   0.00000
  27       11D-2        0.00000   0.00000   0.00000   0.00000   0.00000
  28       12D 0        0.00000   0.00000   0.00000   0.00000   0.00000
  29       12D+1        0.00000   0.00000   0.00000   0.00000   0.00000
  30       12D-1        0.00000   0.00000   0.00000   0.00000   0.00000
  31       12D+2        0.00000   0.00000   0.00000   0.00000   0.00000
  32       12D-2        0.00000   0.00000   0.00000   0.00000   0.00000
  33       13F 0        0.00000   0.00000   0.00000   0.00000   1.19776
  34       13F+1       -0.00000   0.00000   1.19782   0.00000   0.00000
  35       13F-1        0.00000   0.00000   0.00000   1.19782   0.00000
  36       13F+2        0.00000   0.00000   0.00000   0.00000  -0.00000
  37       13F-2        0.00000   0.00000   0.00000   0.00000   0.00000
  38       13F+3        1.19790   0.00000   0.00000   0.00000   0.00000
  39       13F-3        0.00000   1.19790   0.00000  -0.00000   0.00000
  40       14F 0        0.00000   0.00000   0.00000   0.00000  -0.57089
  41       14F+1        0.00000   0.00000  -0.57136   0.00000   0.00000
  42       14F-1        0.00000  -0.00000   0.00000  -0.57136   0.00000
  43       14F+2        0.00000   0.00000   0.00000   0.00000   0.00000
  44       14F-2        0.00000   0.00000   0.00000   0.00000   0.00000
  45       14F+3       -0.57211   0.00000  -0.00000   0.00000   0.00000
  46       14F-3        0.00000  -0.57211   0.00000   0.00000   0.00000
                          46
                       (T2G)--V
     Eigenvalues --     4.17524
   1 1   C  1S          1.25724
   2        2S          3.44851
   3        3S         -2.52455
   4        4S         -2.33455
   5        5S          0.76883
   6        6PX         0.00000
   7        6PY         0.00000
   8        6PZ         0.00000
   9        7PX         0.00000
  10        7PY         0.00000
  11        7PZ         0.00000
  12        8PX         0.00000
  13        8PY         0.00000
  14        8PZ         0.00000
  15        9PX         0.00000
  16        9PY         0.00000
  17        9PZ         0.00000
  18       10D 0       -0.01204
  19       10D+1        0.00000
  20       10D-1        0.00000
  21       10D+2       -0.00000
  22       10D-2        0.00000
  23       11D 0        0.00767
  24       11D+1        0.00000
  25       11D-1        0.00000
  26       11D+2        0.00000
  27       11D-2        0.00000
  28       12D 0       -0.00249
  29       12D+1        0.00000
  30       12D-1        0.00000
  31       12D+2        0.00000
  32       12D-2        0.00000
  33       13F 0        0.00000
  34       13F+1        0.00000
  35       13F-1        0.00000
  36       13F+2        0.00000
  37       13F-2        0.00000
  38       13F+3        0.00000
  39       13F-3        0.00000
  40       14F 0        0.00000
  41       14F+1        0.00000
  42       14F-1        0.00000
  43       14F+2        0.00000
  44       14F-2        0.00000
  45       14F+3        0.00000
  46       14F-3        0.00000
     Beta Molecular Orbital Coefficients:
                           1         2         3         4         5
                       (A1G)--O      O         V         V         V
     Eigenvalues --   -10.28247  -0.48156  -0.12940  -0.08493  -0.08493
   1 1   C  1S          0.97495  -0.21727   0.00000   0.00000   0.00000
   2        2S         -0.01167   0.52093   0.00000   0.00000   0.00000
   3        3S          0.04885   0.14889   0.00000   0.00000   0.00000
   4        4S          0.00315   0.41201   0.00000   0.00000   0.00000
   5        5S         -0.00062   0.02300   0.00000   0.00000   0.00000
   6        6PX         0.00000   0.00000   0.00000   0.00000   0.30309
   7        6PY         0.00000   0.00000   0.00000   0.30309   0.00000
   8        6PZ         0.00000   0.00000   0.32498   0.00000   0.00000
   9        7PX         0.00000   0.00000   0.00000   0.00000   0.37347
  10        7PY         0.00000   0.00000   0.00000   0.37347   0.00000
  11        7PZ         0.00000   0.00000   0.41532   0.00000   0.00000
  12        8PX         0.00000   0.00000   0.00000   0.00000   0.41592
  13        8PY         0.00000   0.00000   0.00000   0.41592   0.00000
  14        8PZ         0.00000   0.00000   0.40670   0.00000   0.00000
  15        9PX         0.00000   0.00000   0.00000   0.00000   0.20228
  16        9PY         0.00000   0.00000   0.00000   0.20228   0.00000
  17        9PZ         0.00000   0.00000   0.11964   0.00000   0.00000
  18       10D 0        0.00070   0.01097   0.00000   0.00000   0.00000
  19       10D+1        0.00000   0.00000   0.00000   0.00000   0.00000
  20       10D-1        0.00000   0.00000   0.00000   0.00000   0.00000
  21       10D+2       -0.00000  -0.00000   0.00000   0.00000   0.00000
  22       10D-2        0.00000   0.00000   0.00000   0.00000   0.00000
  23       11D 0       -0.00029   0.01947   0.00000   0.00000   0.00000
  24       11D+1        0.00000   0.00000   0.00000   0.00000   0.00000
  25       11D-1        0.00000   0.00000   0.00000   0.00000   0.00000
  26       11D+2        0.00000   0.00000   0.00000   0.00000   0.00000
  27       11D-2        0.00000   0.00000   0.00000   0.00000   0.00000
  28       12D 0        0.00011   0.00238   0.00000   0.00000   0.00000
  29       12D+1        0.00000   0.00000   0.00000   0.00000   0.00000
  30       12D-1        0.00000   0.00000   0.00000   0.00000   0.00000
  31       12D+2       -0.00000   0.00000   0.00000   0.00000   0.00000
  32       12D-2        0.00000   0.00000   0.00000   0.00000   0.00000
  33       13F 0        0.00000   0.00000   0.00826   0.00000   0.00000
  34       13F+1        0.00000   0.00000   0.00000   0.00000   0.00615
  35       13F-1        0.00000   0.00000   0.00000   0.00615   0.00000
  36       13F+2        0.00000   0.00000  -0.00000   0.00000   0.00000
  37       13F-2        0.00000   0.00000   0.00000   0.00000   0.00000
  38       13F+3        0.00000   0.00000   0.00000   0.00000  -0.00000
  39       13F-3        0.00000   0.00000   0.00000   0.00000   0.00000
  40       14F 0        0.00000   0.00000   0.00891   0.00000   0.00000
  41       14F+1        0.00000   0.00000   0.00000   0.00000   0.00778
  42       14F-1        0.00000   0.00000   0.00000   0.00778   0.00000
  43       14F+2        0.00000   0.00000   0.00000   0.00000   0.00000
  44       14F-2        0.00000   0.00000   0.00000   0.00000   0.00000
  45       14F+3        0.00000   0.00000   0.00000   0.00000  -0.00000
  46       14F-3        0.00000   0.00000   0.00000   0.00000   0.00000
                           6         7         8         9        10
                           V         V         V         V         V
     Eigenvalues --     0.04005   0.06225   0.06968   0.06968   0.22299
   1 1   C  1S          0.08391   0.00000   0.00000   0.00000   0.00266
   2        2S         -0.11497   0.00000   0.00000   0.00000  -0.02688
   3        3S         -0.06118   0.00000   0.00000   0.00000  -0.00684
   4        4S         -0.95651   0.00000   0.00000   0.00000   0.04629
   5        5S          1.59099   0.00000   0.00000   0.00000  -0.04031
   6        6PX         0.00000   0.00000  -0.17072   0.00000   0.00000
   7        6PY         0.00000   0.00000   0.00000  -0.17072   0.00000
   8        6PZ         0.00000  -0.15145   0.00000   0.00000   0.00000
   9        7PX         0.00000   0.00000  -0.15876   0.00000   0.00000
  10        7PY         0.00000   0.00000   0.00000  -0.15876   0.00000
  11        7PZ         0.00000  -0.14907   0.00000   0.00000   0.00000
  12        8PX         0.00000   0.00000  -0.49333   0.00000   0.00000
  13        8PY         0.00000   0.00000   0.00000  -0.49333   0.00000
  14        8PZ         0.00000  -0.40984   0.00000   0.00000   0.00000
  15        9PX         0.00000   0.00000   1.17663   0.00000   0.00000
  16        9PY         0.00000   0.00000   0.00000   1.17663   0.00000
  17        9PZ         0.00000   1.17007   0.00000   0.00000   0.00000
  18       10D 0       -0.00388   0.00000   0.00000   0.00000   0.03396
  19       10D+1        0.00000   0.00000   0.00000   0.00000   0.00000
  20       10D-1        0.00000   0.00000   0.00000   0.00000   0.00000
  21       10D+2        0.00000   0.00000   0.00000   0.00000  -0.00000
  22       10D-2        0.00000   0.00000   0.00000   0.00000   0.00000
  23       11D 0       -0.00453   0.00000   0.00000   0.00000  -0.06797
  24       11D+1        0.00000   0.00000   0.00000   0.00000   0.00000
  25       11D-1        0.00000   0.00000   0.00000   0.00000   0.00000
  26       11D+2       -0.00000   0.00000   0.00000   0.00000   0.00000
  27       11D-2        0.00000   0.00000   0.00000   0.00000   0.00000
  28       12D 0        0.01726   0.00000   0.00000   0.00000   1.03336
  29       12D+1        0.00000   0.00000   0.00000   0.00000   0.00000
  30       12D-1        0.00000   0.00000   0.00000   0.00000   0.00000
  31       12D+2       -0.00000   0.00000   0.00000   0.00000  -0.00000
  32       12D-2        0.00000   0.00000   0.00000   0.00000   0.00000
  33       13F 0        0.00000  -0.00375   0.00000   0.00000   0.00000
  34       13F+1        0.00000   0.00000  -0.00347   0.00000   0.00000
  35       13F-1        0.00000   0.00000   0.00000  -0.00347   0.00000
  36       13F+2        0.00000   0.00000   0.00000   0.00000   0.00000
  37       13F-2        0.00000   0.00000   0.00000   0.00000   0.00000
  38       13F+3        0.00000   0.00000   0.00000   0.00000   0.00000
  39       13F-3        0.00000   0.00000   0.00000  -0.00000   0.00000
  40       14F 0        0.00000  -0.00025   0.00000   0.00000   0.00000
  41       14F+1        0.00000   0.00000  -0.00104   0.00000   0.00000
  42       14F-1        0.00000   0.00000   0.00000  -0.00104   0.00000
  43       14F+2        0.00000  -0.00000   0.00000   0.00000   0.00000
  44       14F-2        0.00000   0.00000   0.00000   0.00000   0.00000
  45       14F+3        0.00000   0.00000  -0.00000   0.00000   0.00000
  46       14F-3        0.00000   0.00000   0.00000   0.00000   0.00000
                          11        12        13        14        15
                           V         V         V         V         V
     Eigenvalues --     0.22434   0.22434   0.23162   0.23162   0.42089
   1 1   C  1S          0.00000   0.00000   0.00000   0.00000   0.00000
   2        2S          0.00000   0.00000   0.00000  -0.00000   0.00000
   3        3S          0.00000   0.00000   0.00000  -0.00000   0.00000
   4        4S          0.00000   0.00000   0.00000  -0.00000   0.00000
   5        5S          0.00000   0.00000   0.00000   0.00000   0.00000
   6        6PX         0.00000   0.00000   0.00000   0.00000   0.00000
   7        6PY         0.00000   0.00000   0.00000   0.00000   0.00000
   8        6PZ         0.00000   0.00000   0.00000   0.00000  -0.28629
   9        7PX         0.00000   0.00000   0.00000   0.00000   0.00000
  10        7PY         0.00000   0.00000   0.00000   0.00000   0.00000
  11        7PZ         0.00000   0.00000   0.00000   0.00000  -0.87730
  12        8PX         0.00000   0.00000   0.00000   0.00000   0.00000
  13        8PY         0.00000   0.00000   0.00000   0.00000   0.00000
  14        8PZ         0.00000   0.00000   0.00000   0.00000   1.63034
  15        9PX         0.00000   0.00000   0.00000   0.00000   0.00000
  16        9PY         0.00000   0.00000   0.00000   0.00000   0.00000
  17        9PZ         0.00000   0.00000   0.00000   0.00000  -0.73581
  18       10D 0        0.00000   0.00000   0.00000   0.00000   0.00000
  19       10D+1        0.03434   0.00000   0.00000   0.00000   0.00000
  20       10D-1        0.00000   0.03434   0.00000   0.00000   0.00000
  21       10D+2        0.00000   0.00000   0.00000   0.03435   0.00000
  22       10D-2        0.00000   0.00000   0.03435   0.00000   0.00000
  23       11D 0        0.00000   0.00000   0.00000  -0.00000   0.00000
  24       11D+1       -0.07361   0.00000   0.00000   0.00000   0.00000
  25       11D-1        0.00000  -0.07361   0.00000   0.00000   0.00000
  26       11D+2        0.00000   0.00000   0.00000  -0.08651   0.00000
  27       11D-2        0.00000   0.00000  -0.08651   0.00000   0.00000
  28       12D 0        0.00000   0.00000   0.00000   0.00000   0.00000
  29       12D+1        1.03667   0.00000   0.00000   0.00000   0.00000
  30       12D-1        0.00000   1.03667   0.00000   0.00000   0.00000
  31       12D+2        0.00000   0.00000   0.00000   1.04358   0.00000
  32       12D-2        0.00000   0.00000   1.04358   0.00000   0.00000
  33       13F 0        0.00000   0.00000   0.00000   0.00000  -0.00860
  34       13F+1        0.00000   0.00000   0.00000   0.00000   0.00000
  35       13F-1        0.00000   0.00000   0.00000   0.00000   0.00000
  36       13F+2        0.00000   0.00000   0.00000   0.00000  -0.00000
  37       13F-2        0.00000   0.00000   0.00000   0.00000   0.00000
  38       13F+3        0.00000   0.00000   0.00000   0.00000   0.00000
  39       13F-3        0.00000   0.00000   0.00000   0.00000   0.00000
  40       14F 0        0.00000   0.00000   0.00000   0.00000   0.01566
  41       14F+1        0.00000   0.00000   0.00000   0.00000   0.00000
  42       14F-1        0.00000   0.00000   0.00000   0.00000   0.00000
  43       14F+2        0.00000   0.00000   0.00000   0.00000   0.00000
  44       14F-2        0.00000   0.00000   0.00000   0.00000   0.00000
  45       14F+3        0.00000   0.00000   0.00000   0.00000   0.00000
  46       14F-3        0.00000   0.00000   0.00000   0.00000   0.00000
                          16        17        18        19        20
                           V         V         V         V         V
     Eigenvalues --     0.44752   0.44752   0.60911   0.88269   0.89118
   1 1   C  1S          0.00000   0.00000   0.05008   0.00904   0.00000
   2        2S          0.00000   0.00000  -1.56015   0.01335   0.00000
   3        3S          0.00000   0.00000  -0.39532  -0.00873   0.00000
   4        4S          0.00000   0.00000   2.83807  -0.04791   0.00000
   5        5S          0.00000   0.00000  -1.26840   0.02203   0.00000
   6        6PX        -0.29243   0.00000   0.00000   0.00000   0.00000
   7        6PY         0.00000  -0.29243   0.00000   0.00000   0.00000
   8        6PZ         0.00000   0.00000   0.00000   0.00000   0.00000
   9        7PX        -0.90377   0.00000   0.00000   0.00000   0.00000
  10        7PY         0.00000  -0.90377   0.00000   0.00000   0.00000
  11        7PZ         0.00000   0.00000   0.00000   0.00000   0.00000
  12        8PX         1.61072   0.00000   0.00000   0.00000   0.00000
  13        8PY         0.00000   1.61072   0.00000   0.00000   0.00000
  14        8PZ         0.00000   0.00000   0.00000   0.00000   0.00000
  15        9PX        -0.70842   0.00000   0.00000   0.00000   0.00000
  16        9PY         0.00000  -0.70842   0.00000   0.00000   0.00000
  17        9PZ         0.00000   0.00000   0.00000   0.00000   0.00000
  18       10D 0        0.00000   0.00000  -0.01407  -0.00129   0.00000
  19       10D+1        0.00000   0.00000   0.00000   0.00000   0.00000
  20       10D-1        0.00000   0.00000   0.00000   0.00000  -0.00287
  21       10D+2        0.00000   0.00000  -0.00000   0.00000   0.00000
  22       10D-2        0.00000   0.00000   0.00000   0.00000   0.00000
  23       11D 0        0.00000   0.00000   0.02121   1.22066   0.00000
  24       11D+1        0.00000   0.00000   0.00000   0.00000   0.00000
  25       11D-1        0.00000   0.00000   0.00000   0.00000   1.22190
  26       11D+2        0.00000   0.00000  -0.00000  -0.00000   0.00000
  27       11D-2        0.00000   0.00000   0.00000   0.00000   0.00000
  28       12D 0        0.00000   0.00000  -0.02338  -0.66367   0.00000
  29       12D+1        0.00000   0.00000   0.00000   0.00000   0.00000
  30       12D-1        0.00000   0.00000   0.00000   0.00000  -0.65961
  31       12D+2        0.00000   0.00000   0.00000   0.00000   0.00000
  32       12D-2        0.00000   0.00000   0.00000   0.00000   0.00000
  33       13F 0        0.00000   0.00000   0.00000   0.00000   0.00000
  34       13F+1       -0.00738   0.00000   0.00000   0.00000   0.00000
  35       13F-1        0.00000  -0.00738   0.00000   0.00000   0.00000
  36       13F+2        0.00000   0.00000   0.00000   0.00000   0.00000
  37       13F-2        0.00000   0.00000   0.00000   0.00000   0.00000
  38       13F+3        0.00000   0.00000   0.00000   0.00000   0.00000
  39       13F-3        0.00000  -0.00000   0.00000   0.00000   0.00000
  40       14F 0        0.00000   0.00000   0.00000   0.00000   0.00000
  41       14F+1        0.01274   0.00000   0.00000   0.00000   0.00000
  42       14F-1        0.00000   0.01274   0.00000   0.00000   0.00000
  43       14F+2        0.00000   0.00000   0.00000   0.00000   0.00000
  44       14F-2        0.00000   0.00000   0.00000   0.00000   0.00000
  45       14F+3       -0.00000   0.00000   0.00000   0.00000   0.00000
  46       14F-3        0.00000   0.00000   0.00000   0.00000   0.00000
                          21        22        23        24        25
                           V         V         V         V         V
     Eigenvalues --     0.89118   0.91737   0.91737   0.93980   0.94265
   1 1   C  1S          0.00000   0.00000   0.00000   0.00000   0.00000
   2        2S          0.00000   0.00000  -0.00000   0.00000   0.00000
   3        3S          0.00000   0.00000  -0.00000   0.00000   0.00000
   4        4S          0.00000   0.00000   0.00000   0.00000   0.00000
   5        5S          0.00000   0.00000  -0.00000   0.00000   0.00000
   6        6PX         0.00000   0.00000   0.00000   0.00000   0.00000
   7        6PY         0.00000   0.00000   0.00000   0.00000  -0.00755
   8        6PZ         0.00000   0.00000   0.00000  -0.00990   0.00000
   9        7PX         0.00000   0.00000   0.00000   0.00000   0.00000
  10        7PY         0.00000   0.00000   0.00000   0.00000   0.01227
  11        7PZ         0.00000   0.00000   0.00000   0.01571   0.00000
  12        8PX         0.00000   0.00000   0.00000   0.00000   0.00000
  13        8PY         0.00000   0.00000   0.00000   0.00000  -0.02529
  14        8PZ         0.00000   0.00000   0.00000  -0.03122   0.00000
  15        9PX         0.00000   0.00000   0.00000   0.00000   0.00000
  16        9PY         0.00000   0.00000   0.00000   0.00000   0.00900
  17        9PZ         0.00000   0.00000   0.00000   0.01135   0.00000
  18       10D 0        0.00000   0.00000   0.00000   0.00000   0.00000
  19       10D+1       -0.00287   0.00000   0.00000   0.00000   0.00000
  20       10D-1        0.00000   0.00000   0.00000   0.00000   0.00000
  21       10D+2        0.00000   0.00000  -0.00806   0.00000   0.00000
  22       10D-2        0.00000  -0.00806   0.00000   0.00000   0.00000
  23       11D 0        0.00000   0.00000   0.00000   0.00000   0.00000
  24       11D+1        1.22190   0.00000   0.00000   0.00000   0.00000
  25       11D-1        0.00000   0.00000   0.00000   0.00000   0.00000
  26       11D+2        0.00000   0.00000   1.22483   0.00000   0.00000
  27       11D-2        0.00000   1.22483   0.00000   0.00000   0.00000
  28       12D 0        0.00000   0.00000  -0.00000   0.00000   0.00000
  29       12D+1       -0.65961   0.00000   0.00000   0.00000   0.00000
  30       12D-1        0.00000   0.00000   0.00000   0.00000   0.00000
  31       12D+2        0.00000   0.00000  -0.64995   0.00000   0.00000
  32       12D-2        0.00000  -0.64995   0.00000   0.00000   0.00000
  33       13F 0        0.00000   0.00000   0.00000  -0.11961   0.00000
  34       13F+1        0.00000   0.00000   0.00000   0.00000   0.00000
  35       13F-1        0.00000   0.00000   0.00000   0.00000  -0.12029
  36       13F+2        0.00000   0.00000   0.00000  -0.00000   0.00000
  37       13F-2        0.00000   0.00000   0.00000   0.00000   0.00000
  38       13F+3        0.00000   0.00000   0.00000   0.00000   0.00000
  39       13F-3        0.00000   0.00000   0.00000   0.00000   0.00000
  40       14F 0        0.00000   0.00000   0.00000   1.06139   0.00000
  41       14F+1        0.00000   0.00000   0.00000   0.00000   0.00000
  42       14F-1        0.00000   0.00000   0.00000   0.00000   1.06177
  43       14F+2        0.00000   0.00000   0.00000   0.00000   0.00000
  44       14F-2        0.00000   0.00000   0.00000   0.00000   0.00000
  45       14F+3        0.00000   0.00000   0.00000   0.00000   0.00000
  46       14F-3        0.00000   0.00000   0.00000   0.00000  -0.00000
                          26        27        28        29        30
                           V         V     (A2U)--V      V         V
     Eigenvalues --     0.94265   0.95014   0.95014   0.96287   0.96287
   1 1   C  1S          0.00000   0.00000   0.00000   0.00000   0.00000
   2        2S          0.00000   0.00000   0.00000   0.00000   0.00000
   3        3S          0.00000   0.00000   0.00000   0.00000   0.00000
   4        4S          0.00000   0.00000   0.00000   0.00000   0.00000
   5        5S          0.00000   0.00000   0.00000   0.00000   0.00000
   6        6PX        -0.00755   0.00000   0.00000   0.00000   0.00000
   7        6PY         0.00000   0.00000   0.00000  -0.00000   0.00000
   8        6PZ         0.00000   0.00000   0.00000   0.00000   0.00000
   9        7PX         0.01227   0.00000   0.00000   0.00000  -0.00000
  10        7PY         0.00000   0.00000   0.00000   0.00000   0.00000
  11        7PZ         0.00000  -0.00000   0.00000   0.00000   0.00000
  12        8PX        -0.02529   0.00000   0.00000   0.00000   0.00000
  13        8PY         0.00000   0.00000   0.00000  -0.00000   0.00000
  14        8PZ         0.00000  -0.00000   0.00000   0.00000   0.00000
  15        9PX         0.00900   0.00000   0.00000   0.00000  -0.00000
  16        9PY         0.00000   0.00000   0.00000   0.00000   0.00000
  17        9PZ         0.00000   0.00000   0.00000   0.00000   0.00000
  18       10D 0        0.00000   0.00000   0.00000   0.00000   0.00000
  19       10D+1        0.00000   0.00000   0.00000   0.00000   0.00000
  20       10D-1        0.00000   0.00000   0.00000   0.00000   0.00000
  21       10D+2        0.00000   0.00000   0.00000   0.00000   0.00000
  22       10D-2        0.00000   0.00000   0.00000   0.00000   0.00000
  23       11D 0        0.00000   0.00000   0.00000   0.00000   0.00000
  24       11D+1        0.00000   0.00000   0.00000   0.00000   0.00000
  25       11D-1        0.00000   0.00000   0.00000   0.00000   0.00000
  26       11D+2        0.00000   0.00000   0.00000   0.00000   0.00000
  27       11D-2        0.00000   0.00000   0.00000   0.00000   0.00000
  28       12D 0        0.00000   0.00000   0.00000   0.00000   0.00000
  29       12D+1        0.00000   0.00000   0.00000   0.00000   0.00000
  30       12D-1        0.00000   0.00000   0.00000   0.00000   0.00000
  31       12D+2        0.00000   0.00000   0.00000   0.00000   0.00000
  32       12D-2        0.00000   0.00000   0.00000   0.00000   0.00000
  33       13F 0        0.00000   0.00000   0.00000   0.00000   0.00000
  34       13F+1       -0.12029   0.00000   0.00000   0.00000   0.00000
  35       13F-1        0.00000   0.00000   0.00000  -0.00000   0.00000
  36       13F+2        0.00000  -0.12202   0.00000   0.00000   0.00000
  37       13F-2        0.00000   0.00000  -0.12202   0.00000   0.00000
  38       13F+3       -0.00000   0.00000   0.00000   0.00000  -0.12476
  39       13F-3        0.00000   0.00000   0.00000  -0.12476   0.00000
  40       14F 0        0.00000  -0.00000   0.00000   0.00000   0.00000
  41       14F+1        1.06177   0.00000   0.00000   0.00000  -0.00000
  42       14F-1        0.00000   0.00000   0.00000   0.00000   0.00000
  43       14F+2        0.00000   1.06271   0.00000   0.00000   0.00000
  44       14F-2        0.00000   0.00000   1.06271   0.00000   0.00000
  45       14F+3        0.00000   0.00000   0.00000   0.00000   1.06399
  46       14F-3        0.00000   0.00000   0.00000   1.06399   0.00000
                          31        32        33        34        35
                           V         V         V         V     (T2G)--V
     Eigenvalues --     2.02429   2.06754   2.06754   3.09443   3.10860
   1 1   C  1S          0.00000   0.00000   0.00000  -0.00556   0.00000
   2        2S          0.00000   0.00000   0.00000  -0.04343   0.00000
   3        3S          0.00000   0.00000   0.00000   0.00964   0.00000
   4        4S          0.00000   0.00000   0.00000   0.03889   0.00000
   5        5S          0.00000   0.00000   0.00000  -0.01331   0.00000
   6        6PX         0.00000  -1.27549   0.00000   0.00000   0.00000
   7        6PY         0.00000   0.00000  -1.27549   0.00000   0.00000
   8        6PZ        -1.27390   0.00000   0.00000   0.00000   0.00000
   9        7PX         0.00000   1.62306   0.00000   0.00000   0.00000
  10        7PY         0.00000   0.00000   1.62306   0.00000   0.00000
  11        7PZ         1.62823   0.00000   0.00000   0.00000   0.00000
  12        8PX         0.00000  -0.91940   0.00000   0.00000   0.00000
  13        8PY         0.00000   0.00000  -0.91940   0.00000   0.00000
  14        8PZ        -0.92967   0.00000   0.00000   0.00000   0.00000
  15        9PX         0.00000   0.29071   0.00000   0.00000   0.00000
  16        9PY         0.00000   0.00000   0.29071   0.00000   0.00000
  17        9PZ         0.29475   0.00000   0.00000   0.00000   0.00000
  18       10D 0        0.00000   0.00000   0.00000   1.22134   0.00000
  19       10D+1        0.00000   0.00000   0.00000   0.00000   0.00000
  20       10D-1        0.00000   0.00000   0.00000   0.00000   1.22148
  21       10D+2        0.00000   0.00000   0.00000  -0.00000   0.00000
  22       10D-2        0.00000   0.00000   0.00000   0.00000   0.00000
  23       11D 0        0.00000   0.00000   0.00000  -0.83372   0.00000
  24       11D+1        0.00000   0.00000   0.00000   0.00000   0.00000
  25       11D-1        0.00000   0.00000   0.00000   0.00000  -0.83198
  26       11D+2        0.00000   0.00000   0.00000   0.00000   0.00000
  27       11D-2        0.00000   0.00000   0.00000   0.00000   0.00000
  28       12D 0        0.00000   0.00000   0.00000   0.29641   0.00000
  29       12D+1        0.00000   0.00000   0.00000   0.00000   0.00000
  30       12D-1        0.00000   0.00000   0.00000   0.00000   0.29538
  31       12D+2        0.00000   0.00000   0.00000  -0.00000   0.00000
  32       12D-2        0.00000   0.00000   0.00000   0.00000   0.00000
  33       13F 0        0.01203   0.00000   0.00000   0.00000   0.00000
  34       13F+1        0.00000   0.00973   0.00000   0.00000   0.00000
  35       13F-1        0.00000   0.00000   0.00973   0.00000   0.00000
  36       13F+2        0.00000   0.00000   0.00000   0.00000   0.00000
  37       13F-2        0.00000   0.00000   0.00000   0.00000   0.00000
  38       13F+3        0.00000  -0.00000   0.00000   0.00000   0.00000
  39       13F-3        0.00000   0.00000   0.00000   0.00000   0.00000
  40       14F 0       -0.01259   0.00000   0.00000   0.00000   0.00000
  41       14F+1        0.00000  -0.00977   0.00000   0.00000   0.00000
  42       14F-1        0.00000   0.00000  -0.00977   0.00000   0.00000
  43       14F+2        0.00000   0.00000   0.00000   0.00000   0.00000
  44       14F-2        0.00000   0.00000   0.00000   0.00000   0.00000
  45       14F+3        0.00000   0.00000   0.00000   0.00000   0.00000
  46       14F-3        0.00000   0.00000  -0.00000   0.00000   0.00000
                          36        37        38        39        40
                       (T2G)--V  (T2G)--V      V         V         V
     Eigenvalues --     3.10860   3.15069   3.15069   3.17392   3.18047
   1 1   C  1S          0.00000   0.00000   0.00000   0.00000   0.00000
   2        2S          0.00000   0.00000   0.00000   0.00000   0.00000
   3        3S          0.00000   0.00000  -0.00000   0.00000   0.00000
   4        4S          0.00000   0.00000   0.00000   0.00000   0.00000
   5        5S          0.00000   0.00000  -0.00000   0.00000   0.00000
   6        6PX         0.00000   0.00000   0.00000   0.00000   0.00000
   7        6PY         0.00000   0.00000   0.00000   0.00000   0.00575
   8        6PZ         0.00000   0.00000   0.00000   0.00704   0.00000
   9        7PX         0.00000   0.00000   0.00000   0.00000   0.00000
  10        7PY         0.00000   0.00000   0.00000   0.00000  -0.01991
  11        7PZ         0.00000   0.00000   0.00000  -0.02442   0.00000
  12        8PX         0.00000   0.00000   0.00000   0.00000   0.00000
  13        8PY         0.00000   0.00000   0.00000   0.00000   0.01130
  14        8PZ         0.00000   0.00000   0.00000   0.01384   0.00000
  15        9PX         0.00000   0.00000   0.00000   0.00000   0.00000
  16        9PY         0.00000   0.00000   0.00000   0.00000  -0.00346
  17        9PZ         0.00000   0.00000   0.00000  -0.00427   0.00000
  18       10D 0        0.00000   0.00000   0.00000   0.00000   0.00000
  19       10D+1        1.22148   0.00000   0.00000   0.00000   0.00000
  20       10D-1        0.00000   0.00000   0.00000   0.00000   0.00000
  21       10D+2        0.00000   0.00000   1.22146   0.00000   0.00000
  22       10D-2        0.00000   1.22146   0.00000   0.00000   0.00000
  23       11D 0        0.00000   0.00000  -0.00000   0.00000   0.00000
  24       11D+1       -0.83198   0.00000   0.00000   0.00000   0.00000
  25       11D-1        0.00000   0.00000   0.00000   0.00000   0.00000
  26       11D+2        0.00000   0.00000  -0.82642   0.00000   0.00000
  27       11D-2        0.00000  -0.82642   0.00000   0.00000   0.00000
  28       12D 0        0.00000   0.00000   0.00000   0.00000   0.00000
  29       12D+1        0.29538   0.00000   0.00000   0.00000   0.00000
  30       12D-1        0.00000   0.00000   0.00000   0.00000   0.00000
  31       12D+2        0.00000   0.00000   0.29245   0.00000   0.00000
  32       12D-2        0.00000   0.29245   0.00000   0.00000   0.00000
  33       13F 0        0.00000   0.00000   0.00000   1.19716   0.00000
  34       13F+1        0.00000   0.00000   0.00000   0.00000   0.00000
  35       13F-1        0.00000   0.00000   0.00000   0.00000   1.19713
  36       13F+2        0.00000   0.00000   0.00000   0.00000   0.00000
  37       13F-2        0.00000   0.00000   0.00000   0.00000   0.00000
  38       13F+3        0.00000   0.00000   0.00000   0.00000   0.00000
  39       13F-3        0.00000   0.00000   0.00000   0.00000  -0.00000
  40       14F 0        0.00000   0.00000   0.00000  -0.56635   0.00000
  41       14F+1        0.00000   0.00000   0.00000   0.00000   0.00000
  42       14F-1        0.00000   0.00000   0.00000   0.00000  -0.56578
  43       14F+2        0.00000   0.00000   0.00000  -0.00000   0.00000
  44       14F-2        0.00000   0.00000   0.00000   0.00000   0.00000
  45       14F+3        0.00000   0.00000   0.00000   0.00000   0.00000
  46       14F-3        0.00000   0.00000   0.00000   0.00000   0.00000
                          41        42        43        44        45
                           V         V     (A2U)--V      V         V
     Eigenvalues --     3.18047   3.19819   3.19819   3.22772   3.22772
   1 1   C  1S          0.00000   0.00000   0.00000   0.00000   0.00000
   2        2S          0.00000   0.00000   0.00000   0.00000   0.00000
   3        3S          0.00000   0.00000   0.00000   0.00000   0.00000
   4        4S          0.00000   0.00000   0.00000   0.00000   0.00000
   5        5S          0.00000   0.00000   0.00000   0.00000   0.00000
   6        6PX         0.00575   0.00000   0.00000   0.00000  -0.00000
   7        6PY         0.00000   0.00000   0.00000   0.00000   0.00000
   8        6PZ         0.00000   0.00000   0.00000   0.00000   0.00000
   9        7PX        -0.01991   0.00000   0.00000   0.00000   0.00000
  10        7PY         0.00000   0.00000   0.00000  -0.00000   0.00000
  11        7PZ         0.00000   0.00000   0.00000   0.00000   0.00000
  12        8PX         0.01130   0.00000   0.00000   0.00000  -0.00000
  13        8PY         0.00000   0.00000   0.00000   0.00000   0.00000
  14        8PZ         0.00000  -0.00000   0.00000   0.00000   0.00000
  15        9PX        -0.00346   0.00000   0.00000   0.00000   0.00000
  16        9PY         0.00000   0.00000   0.00000  -0.00000   0.00000
  17        9PZ         0.00000  -0.00000   0.00000   0.00000   0.00000
  18       10D 0        0.00000   0.00000   0.00000   0.00000   0.00000
  19       10D+1        0.00000   0.00000   0.00000   0.00000   0.00000
  20       10D-1        0.00000   0.00000   0.00000   0.00000   0.00000
  21       10D+2        0.00000   0.00000   0.00000   0.00000   0.00000
  22       10D-2        0.00000   0.00000   0.00000   0.00000   0.00000
  23       11D 0        0.00000   0.00000   0.00000   0.00000   0.00000
  24       11D+1        0.00000   0.00000   0.00000   0.00000   0.00000
  25       11D-1        0.00000   0.00000   0.00000   0.00000   0.00000
  26       11D+2        0.00000   0.00000   0.00000   0.00000   0.00000
  27       11D-2        0.00000   0.00000   0.00000   0.00000   0.00000
  28       12D 0        0.00000   0.00000   0.00000   0.00000   0.00000
  29       12D+1        0.00000   0.00000   0.00000   0.00000   0.00000
  30       12D-1        0.00000   0.00000   0.00000   0.00000   0.00000
  31       12D+2        0.00000   0.00000   0.00000   0.00000   0.00000
  32       12D-2        0.00000   0.00000   0.00000   0.00000   0.00000
  33       13F 0        0.00000  -0.00000   0.00000   0.00000   0.00000
  34       13F+1        1.19713   0.00000   0.00000   0.00000  -0.00000
  35       13F-1        0.00000   0.00000   0.00000   0.00000   0.00000
  36       13F+2        0.00000   1.19704   0.00000   0.00000   0.00000
  37       13F-2        0.00000   0.00000   1.19704   0.00000   0.00000
  38       13F+3        0.00000   0.00000   0.00000   0.00000   1.19676
  39       13F-3        0.00000   0.00000   0.00000   1.19676   0.00000
  40       14F 0        0.00000   0.00000   0.00000   0.00000   0.00000
  41       14F+1       -0.56578   0.00000   0.00000   0.00000   0.00000
  42       14F-1        0.00000   0.00000   0.00000  -0.00000   0.00000
  43       14F+2        0.00000  -0.56431   0.00000   0.00000   0.00000
  44       14F-2        0.00000   0.00000  -0.56431   0.00000   0.00000
  45       14F+3       -0.00000   0.00000   0.00000   0.00000  -0.56188
  46       14F-3        0.00000   0.00000   0.00000  -0.56188   0.00000
                          46
                       (A1G)--V
     Eigenvalues --     4.22786
   1 1   C  1S          1.25644
   2        2S          3.43865
   3        3S         -2.52729
   4        4S         -2.31731
   5        5S          0.76190
   6        6PX         0.00000
   7        6PY         0.00000
   8        6PZ         0.00000
   9        7PX         0.00000
  10        7PY         0.00000
  11        7PZ         0.00000
  12        8PX         0.00000
  13        8PY         0.00000
  14        8PZ         0.00000
  15        9PX         0.00000
  16        9PY         0.00000
  17        9PZ         0.00000
  18       10D 0        0.00752
  19       10D+1        0.00000
  20       10D-1        0.00000
  21       10D+2       -0.00000
  22       10D-2        0.00000
  23       11D 0       -0.00928
  24       11D+1        0.00000
  25       11D-1        0.00000
  26       11D+2       -0.00000
  27       11D-2        0.00000
  28       12D 0        0.00401
  29       12D+1        0.00000
  30       12D-1        0.00000
  31       12D+2        0.00000
  32       12D-2        0.00000
  33       13F 0        0.00000
  34       13F+1        0.00000
  35       13F-1        0.00000
  36       13F+2        0.00000
  37       13F-2        0.00000
  38       13F+3        0.00000
  39       13F-3        0.00000
  40       14F 0        0.00000
  41       14F+1        0.00000
  42       14F-1        0.00000
  43       14F+2        0.00000
  44       14F-2        0.00000
  45       14F+3        0.00000
  46       14F-3        0.00000
     Alpha Density Matrix:
                           1         2         3         4         5
   1 1   C  1S          0.99646
   2        2S         -0.13977   0.32122
   3        3S          0.01501   0.09145   0.02925
   4        4S         -0.07795   0.20793   0.05993   0.13476
   5        5S         -0.00153   0.00154   0.00039   0.00098   0.00001
[...]
  27       11D-2       -0.00000   0.00000   0.00000   0.00000   0.00000
  28       12D 0       -0.00000   0.00000   0.00004  -0.00000  -0.00000
  29       12D+1       -0.00000   0.00000   0.00000   0.00000   0.00000
  30       12D-1       -0.00000   0.00000  -0.00000   0.00000   0.00000
  31       12D+2        0.00000   0.00000  -0.00000   0.00000   0.00000
  32       12D-2       -0.00000   0.00000   0.00000   0.00000   0.00000
  33       13F 0        0.00000   0.00000   0.00000   0.00000   0.00000
  34       13F+1        0.00000   0.00000   0.00000   0.00000   0.00000
  35       13F-1        0.00000   0.00000   0.00000   0.00000   0.00000
  36       13F+2        0.00000   0.00000   0.00000   0.00000   0.00000
  37       13F-2        0.00000   0.00000   0.00000   0.00000   0.00000
  38       13F+3        0.00000   0.00000   0.00000   0.00000   0.00000
  39       13F-3        0.00000   0.00000   0.00000   0.00000   0.00000
  40       14F 0        0.00000   0.00000   0.00000   0.00000   0.00000
  41       14F+1        0.00000   0.00000   0.00000   0.00000   0.00000
  42       14F-1        0.00000   0.00000   0.00000   0.00000   0.00000
  43       14F+2        0.00000   0.00000   0.00000   0.00000   0.00000
  44       14F-2        0.00000   0.00000   0.00000   0.00000   0.00000
  45       14F+3        0.00000   0.00000   0.00000   0.00000   0.00000
  46       14F-3        0.00000   0.00000   0.00000   0.00000   0.00000
                          26        27        28        29        30
  26       11D+2        0.00000
  27       11D-2        0.00000  -0.00000
  28       12D 0       -0.00000  -0.00000   0.00001
  29       12D+1        0.00000   0.00000  -0.00000   0.00000
  30       12D-1       -0.00000   0.00000   0.00000   0.00000   0.00000
  31       12D+2       -0.00000   0.00000  -0.00000  -0.00000   0.00000
  32       12D-2       -0.00000  -0.00000   0.00000   0.00000   0.00000
  33       13F 0        0.00000   0.00000   0.00000   0.00000   0.00000
  34       13F+1        0.00000   0.00000   0.00000   0.00000   0.00000
  35       13F-1        0.00000   0.00000   0.00000   0.00000   0.00000
  36       13F+2        0.00000   0.00000   0.00000   0.00000   0.00000
  37       13F-2        0.00000   0.00000   0.00000   0.00000   0.00000
  38       13F+3        0.00000   0.00000   0.00000   0.00000   0.00000
  39       13F-3        0.00000   0.00000   0.00000   0.00000   0.00000
  40       14F 0        0.00000   0.00000   0.00000   0.00000   0.00000
  41       14F+1        0.00000   0.00000   0.00000   0.00000   0.00000
  42       14F-1        0.00000   0.00000   0.00000   0.00000   0.00000
  43       14F+2        0.00000   0.00000   0.00000   0.00000   0.00000
  44       14F-2        0.00000   0.00000   0.00000   0.00000   0.00000
  45       14F+3        0.00000   0.00000   0.00000   0.00000   0.00000
  46       14F-3        0.00000   0.00000   0.00000   0.00000   0.00000
                          31        32        33        34        35
  31       12D+2       -0.00000
  32       12D-2        0.00000   0.00000
  33       13F 0        0.00000   0.00000   0.00000
  34       13F+1        0.00000   0.00000   0.00000   0.00000
  35       13F-1        0.00000   0.00000  -0.00000  -0.00000   0.00000
  36       13F+2        0.00000   0.00000   0.00000   0.00000  -0.00000
  37       13F-2        0.00000   0.00000   0.00000  -0.00000  -0.00000
  38       13F+3        0.00000   0.00000   0.00000  -0.00000   0.00000
  39       13F-3        0.00000   0.00000  -0.00000   0.00000  -0.00000
  40       14F 0        0.00000   0.00000  -0.00000  -0.00000   0.00000
  41       14F+1        0.00000   0.00000  -0.00000  -0.00000  -0.00000
  42       14F-1        0.00000   0.00000   0.00000   0.00000  -0.00000
  43       14F+2        0.00000   0.00000  -0.00000   0.00000   0.00000
  44       14F-2        0.00000   0.00000   0.00000  -0.00000  -0.00000
  45       14F+3        0.00000   0.00000   0.00000  -0.00000   0.00000
  46       14F-3        0.00000   0.00000   0.00000   0.00000  -0.00000
                          36        37        38        39        40
  36       13F+2        0.00000
  37       13F-2        0.00000   0.00000
  38       13F+3       -0.00000  -0.00000   0.00000
  39       13F-3       -0.00000  -0.00000  -0.00000   0.00000
  40       14F 0        0.00000   0.00000  -0.00000  -0.00000   0.00000
  41       14F+1        0.00000   0.00000   0.00000  -0.00000   0.00000
  42       14F-1        0.00000  -0.00000  -0.00000   0.00000   0.00000
  43       14F+2       -0.00000   0.00000  -0.00000  -0.00000   0.00000
  44       14F-2        0.00000  -0.00000  -0.00000   0.00000   0.00000
  45       14F+3       -0.00000   0.00000   0.00000  -0.00000  -0.00000
  46       14F-3        0.00000  -0.00000   0.00000   0.00000  -0.00000
                          41        42        43        44        45
  41       14F+1        0.00000
  42       14F-1        0.00000   0.00000
  43       14F+2        0.00000  -0.00000   0.00000
  44       14F-2       -0.00000   0.00000   0.00000   0.00000
  45       14F+3        0.00000  -0.00000   0.00000  -0.00000   0.00000
  46       14F-3       -0.00000   0.00000  -0.00000  -0.00000  -0.00000
                          46
  46       14F-3        0.00000
     Gross orbital populations:
                         Total     Alpha     Beta      Spin
   1 1   C  1S          1.95781   0.97817   0.97963  -0.00146
   2        2S          1.05381   0.55110   0.50271   0.04839
   3        3S          0.26442   0.13919   0.12523   0.01396
   4        4S          0.70659   0.32976   0.37683  -0.04706
   5        5S          0.01639   0.00158   0.01481  -0.01322
   6        6PX         0.27816   0.27816   0.00000   0.27816
   7        6PY         0.27816   0.27816   0.00000   0.27816
   8        6PZ         0.00000   0.00000   0.00000   0.00000
   9        7PX         0.45127   0.45127   0.00000   0.45127
  10        7PY         0.45127   0.45127   0.00000   0.45127
  11        7PZ         0.00000   0.00000   0.00000   0.00000
  12        8PX         0.25784   0.25784   0.00000   0.25784
  13        8PY         0.25784   0.25784   0.00000   0.25784
  14        8PZ         0.00000   0.00000   0.00000   0.00000
  15        9PX         0.01273   0.01273   0.00000   0.01273
  16        9PY         0.01273   0.01273   0.00000   0.01273
  17        9PZ         0.00000   0.00000   0.00000   0.00000
  18       10D 0        0.00033   0.00009   0.00024  -0.00015
  19       10D+1        0.00000   0.00000   0.00000  -0.00000
  20       10D-1        0.00000   0.00000   0.00000  -0.00000
  21       10D+2        0.00000   0.00000   0.00000   0.00000
  22       10D-2        0.00000   0.00000   0.00000  -0.00000
  23       11D 0        0.00060   0.00008   0.00052  -0.00043
  24       11D+1        0.00000   0.00000   0.00000  -0.00000
  25       11D-1        0.00000   0.00000   0.00000  -0.00000
  26       11D+2        0.00000   0.00000   0.00000  -0.00000
  27       11D-2       -0.00000   0.00000  -0.00000   0.00000
  28       12D 0        0.00005   0.00002   0.00004  -0.00002
  29       12D+1        0.00000   0.00000   0.00000  -0.00000
  30       12D-1        0.00000   0.00000   0.00000  -0.00000
  31       12D+2       -0.00000  -0.00000  -0.00000   0.00000
  32       12D-2        0.00000   0.00000  -0.00000   0.00000
  33       13F 0        0.00000   0.00000   0.00000   0.00000
  34       13F+1        0.00000   0.00000   0.00000   0.00000
  35       13F-1        0.00000   0.00000   0.00000   0.00000
  36       13F+2        0.00000   0.00000   0.00000   0.00000
  37       13F-2        0.00000   0.00000   0.00000   0.00000
  38       13F+3        0.00000   0.00000   0.00000   0.00000
  39       13F-3        0.00000   0.00000   0.00000   0.00000
  40       14F 0       -0.00000  -0.00000   0.00000  -0.00000
  41       14F+1       -0.00000  -0.00000   0.00000  -0.00000
  42       14F-1       -0.00000  -0.00000   0.00000  -0.00000
  43       14F+2       -0.00000  -0.00000   0.00000  -0.00000
  44       14F-2       -0.00000  -0.00000   0.00000  -0.00000
  45       14F+3        0.00000   0.00000   0.00000   0.00000
  46       14F-3        0.00000   0.00000   0.00000   0.00000
          Condensed to atoms (all electrons):
               1
     1  C    6.000000
          Atomic-Atomic Spin Densities.
               1
     1  C    2.000000
 Mulliken charges and spin densities:
               1          2
     1  C   -0.000000   2.000000
 Sum of Mulliken charges =  -0.00000   2.00000
 Mulliken charges and spin densities with hydrogens summed into heavy atoms:
               1          2
     1  C   -0.000000   2.000000
 Electronic spatial extent (au):  <R**2>=             14.0656
 Charge=             -0.0000 electrons
 Dipole moment (field-independent basis, Debye):
    X=              0.0000    Y=              0.0000    Z=              0.0000  Tot=              0.0000
 Quadrupole moment (field-independent basis, Debye-Ang):
   XX=             -6.9761   YY=             -6.9761   ZZ=             -4.9666
   XY=              0.0000   XZ=              0.0000   YZ=             -0.0000
 Traceless Quadrupole moment (field-independent basis, Debye-Ang):
   XX=             -0.6698   YY=             -0.6698   ZZ=              1.3396
   XY=              0.0000   XZ=              0.0000   YZ=             -0.0000
 Octapole moment (field-independent basis, Debye-Ang**2):
  XXX=              0.0000  YYY=              0.0000  ZZZ=              0.0000  XYY=              0.0000
  XXY=              0.0000  XXZ=              0.0000  XZZ=              0.0000  YZZ=              0.0000
  YYZ=              0.0000  XYZ=              0.0000
 Hexadecapole moment (field-independent basis, Debye-Ang**3):
 XXXX=             -9.8625 YYYY=             -9.8625 ZZZZ=             -5.2675 XXXY=              0.0000
 XXXZ=              0.0000 YYYX=             -0.0000 YYYZ=             -0.0000 ZZZX=              0.0000
 ZZZY=             -0.0000 XXYY=             -3.2875 XXZZ=             -2.5217 YYZZ=             -2.5217
 XXYZ=             -0.0000 YYXZ=              0.0000 ZZXY=              0.0000
 N-N= 0.000000000000D+00 E-N=-8.807302430016D+01  KE= 3.760482824216D+01
 Symmetry AG   KE= 3.503581349679D+01
 Symmetry B1G  KE= 3.198706116750D-53
 Symmetry B2G  KE= 9.569093764189D-36
 Symmetry B3G  KE= 9.569093764189D-36
 Symmetry AU   KE= 2.673348921199D-38
 Symmetry B1U  KE= 4.816211445636D-33
 Symmetry B2U  KE= 1.284507372682D+00
 Symmetry B3U  KE= 1.284507372682D+00
 Symmetry AG   SP= 1.081026812240D-14
 Symmetry B1G  SP= 1.991650157760D-53
 Symmetry B2G  SP=-3.375188548522D-36
 Symmetry B3G  SP=-3.375188548522D-36
 Symmetry AU   SP= 6.762662587235D-39
 Symmetry B1U  SP= 3.749419744633D-33
 Symmetry B2U  SP= 1.000000000000D+00
 Symmetry B3U  SP= 1.000000000000D+00
 Orbital energies and kinetic energies (alpha):
                                 1                 2
   1         (A1G)--O        -10.311483         15.876044
   2         O                -0.590628          1.679015
   3         O                -0.269408          1.284507
   4         O                -0.269408          1.284507
   5         V                -0.157528          1.112287
   6         (A1G)--V          0.031828          0.284305
   7         V                 0.053925          0.208898
   8         V                 0.053925          0.208898
   9         V                 0.060106          0.251752
  10         (T2G)--V          0.216577          0.346262
  11         (T2G)--V          0.216577          0.346262
  12         (T2G)--V          0.216639          0.347191
  13         V                 0.216639          0.347191
  14         V                 0.220179          0.345485
  15         V                 0.393570          1.107154
  16         V                 0.393570          1.107154
  17         V                 0.409488          1.181393
  18         V                 0.565314          1.706861
  19         (T2G)--V          0.844530          1.320646
  20         V                 0.844530          1.320646
  21         (T2G)--V          0.847585          1.319005
  22         (T2G)--V          0.847585          1.319005
  23         V                 0.856256          1.317745
  24         (A2U)--V          0.925094          1.157384
  25         V                 0.925094          1.157384
  26         V                 0.926077          1.157237
  27         V                 0.926077          1.157237
  28         V                 0.927834          1.157417
  29         V                 0.927834          1.157417
  30         V                 0.928265          1.157142
  31         V                 1.980536          4.960767
  32         V                 1.980536          4.960767
  33         V                 2.005539          5.015894
  34         (T2G)--V          3.020770          4.561951
  35         (T2G)--V          3.020770          4.561951
  36         (T2G)--V          3.031883          4.564521
  37         (T2G)--V          3.031883          4.564521
  38         (T2G)--V          3.050969          4.567075
  39         (A2U)--V          3.125378          3.949071
  40         V                 3.125378          3.949071
  41         V                 3.128261          3.949038
  42         V                 3.128261          3.949038
  43         V                 3.130219          3.949234
  44         V                 3.130219          3.949234
  45         V                 3.136566          3.949328
  46         (T2G)--V          4.175236         14.294294
 Orbital energies and kinetic energies (beta):
                                 1                 2
   1         (A1G)--O        -10.282465         15.929186
   2         O                -0.481555          1.551569
   3         V                -0.129402          1.043230
   4         V                -0.084930          0.919274
   5         V                -0.084930          0.919274
   6         V                 0.040050          0.296530
   7         V                 0.062253          0.280002
   8         V                 0.069684          0.337371
   9         V                 0.069684          0.337371
  10         V                 0.222987          0.342613
  11         V                 0.224341          0.341185
  12         V                 0.224341          0.341185
  13         V                 0.231619          0.339205
  14         V                 0.231619          0.339205
  15         V                 0.420892          1.217632
  16         V                 0.447522          1.271307
  17         V                 0.447522          1.271307
  18         V                 0.609110          1.764379
  19         V                 0.882691          1.315760
  20         V                 0.891180          1.315406
  21         V                 0.891180          1.315406
  22         V                 0.917371          1.314073
  23         V                 0.917371          1.314073
  24         V                 0.939797          1.156112
  25         V                 0.942648          1.155970
  26         V                 0.942648          1.155970
  27         V                 0.950140          1.155694
  28         (A2U)--V          0.950140          1.155694
  29         V                 0.962871          1.155220
  30         V                 0.962871          1.155220
  31         V                 2.024287          5.020957
  32         V                 2.067538          5.033732
  33         V                 2.067538          5.033732
  34         V                 3.094434          4.571408
  35         (T2G)--V          3.108600          4.573197
  36         (T2G)--V          3.108600          4.573197
  37         (T2G)--V          3.150689          4.576510
  38         V                 3.150689          4.576510
  39         V                 3.173924          3.949864
  40         V                 3.180468          3.950144
  41         V                 3.180468          3.950144
  42         V                 3.198186          3.950761
  43         (A2U)--V          3.198186          3.950761
  44         V                 3.227717          3.951235
  45         V                 3.227717          3.951235
  46         (A1G)--V          4.227865         14.299380
 Total kinetic energy from orbitals= 3.760482824216D+01
                          Isotropic Fermi Contact Couplings
        Atom                 a.u.       MegaHertz       Gauss      10(-4) cm-1
     1  C(13)              0.00967       5.43591       1.93967       1.81322
 --------------------------------------------------------
       Center         ----  Spin Dipole Couplings  ----
                      3XX-RR        3YY-RR        3ZZ-RR
 --------------------------------------------------------
     1   Atom        0.714961      0.714961     -1.429921
 --------------------------------------------------------
                        XY            XZ            YZ
 --------------------------------------------------------
     1   Atom        0.000000      0.000000      0.000000
 --------------------------------------------------------


 ---------------------------------------------------------------------------------
              Anisotropic Spin Dipole Couplings in Principal Axis System
 ---------------------------------------------------------------------------------

       Atom             a.u.   MegaHertz   Gauss  10(-4) cm-1        Axes

              Baa    -1.4299  -191.882   -68.468   -64.005  0.0000  0.0000  1.0000
     1 C(13)  Bbb     0.7150    95.941    34.234    32.002  1.0000  0.0000  0.0000
              Bcc     0.7150    95.941    34.234    32.002 -0.0000  1.0000  0.0000
 

 ---------------------------------------------------------------------------------

 1\1\GINC-LOGIN\SP\UB3LYP\Aug-CC-pVTZ\C1(3)\C7441090\20-Nov-2023\0\\# B
 3LYP/aug-cc-pVTZ EmpiricalDispersion=GD3 Pop=Full\\Carbon\\0,3\C,0,0.,
 0.,0.\\Version=ES64L-G16RevA.03\HF=-37.8590608\S2=2.003726\S2-1=0.\S2A
 =2.\RMSD=4.131e-09\Dipole=0.,0.,0.\Quadrupole=0.9959769,-0.4979885,-0.
 4979885,0.,0.,0.\PG=OH [O(C1)]\\@


 THOUGH I SPEAK WITH THE TONGUES OF MEN AND OF ANGELS, 
 AND HAVE NOT LOVE,
 I AM BECOME AS SOUNDING BRASS, A TINKLING CYMBAL.
 AND THOUGH I HAVE THE GIFT OF PROPHECY,
 AND UNDERSTAND ALL MYSTERIES, AND ALL KNOWLEDGE.
 AND THOUGH I HAVE ALL FAITH, SO THAT I COULD REMOVE MOUNTAINS,
 AND HAVE NOT LOVE, I AM NOTHING.
 AND THOUGH I BESTOW ALL MY GOODS TO FEED THE POOR,
 AND THOUGH I GIVE MY BODY TO BE BURNED,
 AND HAVE NOT LOVE IT PROFITETH ME NOTHING.
 LOVE SUFFERETH LONG, AND IS KIND,
 LOVE ENVIETH NOT,
 LOVE VAUNTETH NOT ITSELF, IS NOT PUFFED UP,
 DOTH NOT BEHAVE ITSELF UNSEEMLY, SEEKETH NOT HER OWN,
 IS NOT EASILY PROVOKED, THINKETH NO EVIL,
 REJOICETH NOT IN INIQUITY, BUT REJOICETH IN THE TRUTH,
 BEARETH ALL THINGS, BELIEVETH ALL THINGS,
 HOPETH ALL THINGS, ENDURETH ALL THINGS.
 LOVE NEVER FAILETH, BUT WHETHER THERE BE PROPHECIES, THEY SHALL FAIL, 
 WHETHER THERE BE TONGUES, THEY SHALL CEASE,
 WHETHER THERE BE KNOWLEDGE, IT SHALL VANISH AWAY.
 FOR WE KNOW IN PART, AND WE PROPHESY IN PART.
 BUT WHEN THAT WHICH IS PERFECT IS COME, THEN THAT WHICH IS IN PART 
 SHALL BE DONE AWAY. 
 WHEN I WAS A CHILD, I SPAKE AS A CHILD, I UNDERSTOOD AS A CHILD, 
 I THOUGHT AS A CHILD.
 BUT WHEN I BECAME A MAN, I PUT AWAY CHILDISH THINGS.
 FOR NOW WE SEE THROUGH A GLASS, DARKLY, BUT THEN FACE TO FACE.
 NOW I KNOW IN PART. BUT THEN SHALL I KNOW EVEN AS ALSO I AM KNOWN.
 AND NOW ABIDETH FAITH, HOPE AND LOVE, THESE THREE.
 BUT THE GREATEST OF THESE IS LOVE.

                     I CORINTHIANS 13
 Job cpu time:       0 days  0 hours  0 minutes  7.6 seconds.
 Elapsed time:       0 days  0 hours  0 minutes  3.6 seconds.
 File lengths (MBytes):  RWF=      5 Int=      0 D2E=      0 Chk=      1 Scr=      1
 Normal termination of Gaussian 16 at Mon Nov 20 23:51:14 2023.
