Chlorine                                                                
SP        UB3LYP                                                      Aug-CC-pVTZ         
Number of atoms                            I                1
Info1-9                                    I   N=           9
          12          11           0           0           0         110
           1          18        -502
Full Title                                 C   N=           1
Chlorine    
Route                                      C   N=           5
# B3LYP/aug-cc-pVTZ EmpiricalDispersion=GD3 Pop=Full        
Charge                                     I                0
Multiplicity                               I                2
Number of electrons                        I               17
Number of alpha electrons                  I                9
Number of beta electrons                   I                8
Number of basis functions                  I               50
Number of independent functions            I               50
Number of point charges in /Mol/           I                0
Number of translation vectors              I                0
Atomic numbers                             I   N=           1
          17
Nuclear charges                            R   N=           1
  1.70000000E+01
Current cartesian coordinates              R   N=           3
  0.00000000E+00  0.00000000E+00  0.00000000E+00
Number of symbols in /Mol/                 I                0
Force Field                                I                0
Atom Types                                 C   N=           1
            
Int Atom Types                             I   N=           1
           0
MM charges                                 R   N=           1
  0.00000000E+00
Integer atomic weights                     I   N=           1
          35
Real atomic weights                        R   N=           1
  3.49688527E+01
Atom fragment info                         I   N=           1
           0
Atom residue num                           I   N=           1
           0
Nuclear spins                              I   N=           1
           3
Nuclear ZEff                               R   N=           1
 -1.42400000E+01
Nuclear ZNuc                               R   N=           1
  1.70000000E+01
Nuclear QMom                               R   N=           1
 -8.16500000E+00
Nuclear GFac                               R   N=           1
  8.21874000E-01
MicOpt                                     I   N=           1
          -1
Number of residues                         I                0
Number of secondary structures             I                0
SymInf integers                            I   N=          26
           1           8           1           1           1           1
          -1          -1          -1           1          -1          -1
          -1           1          -1          -1          -1          -1
           1           1           1          -1           1           1
           1          -1
RotTr to input orientation                 R   N=          12
  0.00000000E+00  0.00000000E+00 -1.00000000E+00  0.00000000E+00  1.00000000E+00
  0.00000000E+00  1.00000000E+00  0.00000000E+00  0.00000000E+00  0.00000000E+00
  0.00000000E+00  0.00000000E+00
Number of contracted shells                I               16
Number of primitive shells                 I               51
Pure/Cartesian d shells                    I                0
Pure/Cartesian f shells                    I                0
Highest angular momentum                   I                3
Largest degree of contraction              I               11
Shell types                                I   N=          16
           0           0           0           0           0           0
           1           1           1           1           1          -2
          -2          -2          -3          -3
Number of primitives per shell             I   N=          16
          11           9           8           1           1           1
           6           6           1           1           1           1
           1           1           1           1
Shell to atom map                          I   N=          16
           1           1           1           1           1           1
           1           1           1           1           1           1
           1           1           1           1
Primitive exponents                        R   N=          51
  4.56100000E+05  6.83300000E+04  1.55500000E+04  4.40500000E+03  1.43900000E+03
  5.20400000E+02  2.03100000E+02  8.39600000E+01  3.62000000E+01  1.58300000E+01
  6.33400000E+00  4.40500000E+03  1.43900000E+03  5.20400000E+02  2.03100000E+02
  8.39600000E+01  3.62000000E+01  1.58300000E+01  6.33400000E+00  2.69400000E+00
  1.43900000E+03  2.03100000E+02  8.39600000E+01  3.62000000E+01  1.58300000E+01
  6.33400000E+00  2.69400000E+00  4.31300000E-01  9.76800000E-01  1.62500000E-01
  5.91000000E-02  6.63300000E+02  1.56800000E+02  4.99800000E+01  1.84200000E+01
  7.24000000E+00  2.92200000E+00  1.56800000E+02  4.99800000E+01  1.84200000E+01
  7.24000000E+00  2.92200000E+00  3.81800000E-01  1.02200000E+00  1.30100000E-01
  4.19000000E-02  1.04600000E+00  3.44000000E-01  1.35000000E-01  7.06000000E-01
  3.12000000E-01
Contraction coefficients                   R   N=          51
  4.93229477E-05  3.83207967E-04  2.00947816E-03  8.38950124E-03  2.94843950E-02
  8.78759948E-02  2.11589759E-01  3.65611554E-01  3.41246350E-01  1.02162570E-01
  2.14249949E-03 -2.21747925E-06 -1.71189708E-04 -1.27922846E-03 -9.32956265E-03
 -3.98910062E-02 -1.05536085E-01  9.36202446E-03  5.10511140E-01  5.73150737E-01
  4.03949245E-06  2.12481765E-04  8.59484452E-04  4.63248159E-03  4.47343490E-04
 -7.38438245E-02 -3.62271994E-01  1.16620337E+00  1.00000000E+00  1.00000000E+00
  1.00000000E+00  2.47206402E-03  1.97550234E-02  9.09917355E-02  2.63187834E-01
  4.49078073E-01  3.60183072E-01  3.03427809E-05 -1.22475826E-03 -6.01429772E-03
 -2.76401323E-02  4.35105612E-04  1.00307272E+00  1.00000000E+00  1.00000000E+00
  1.00000000E+00  1.00000000E+00  1.00000000E+00  1.00000000E+00  1.00000000E+00
  1.00000000E+00
Coordinates of each shell                  R   N=          48
  0.00000000E+00  0.00000000E+00  0.00000000E+00  0.00000000E+00  0.00000000E+00
  0.00000000E+00  0.00000000E+00  0.00000000E+00  0.00000000E+00  0.00000000E+00
  0.00000000E+00  0.00000000E+00  0.00000000E+00  0.00000000E+00  0.00000000E+00
  0.00000000E+00  0.00000000E+00  0.00000000E+00  0.00000000E+00  0.00000000E+00
  0.00000000E+00  0.00000000E+00  0.00000000E+00  0.00000000E+00  0.00000000E+00
  0.00000000E+00  0.00000000E+00  0.00000000E+00  0.00000000E+00  0.00000000E+00
  0.00000000E+00  0.00000000E+00  0.00000000E+00  0.00000000E+00  0.00000000E+00
  0.00000000E+00  0.00000000E+00  0.00000000E+00  0.00000000E+00  0.00000000E+00
  0.00000000E+00  0.00000000E+00  0.00000000E+00  0.00000000E+00  0.00000000E+00
  0.00000000E+00  0.00000000E+00  0.00000000E+00
Num ILSW                                   I              100
ILSW                                       I   N=         100
           1           0           0           0           2           0
           0           0           0           0         402          -1
           5           0           0           0           0           0
           0           0           1           0           0           0
           1           0           0           0           0           0
           0           0      100000           0          -1           0
           0           0           0           0           0           0
           0           0           0           1           0           0
           0 -2000000000           1           0           0           0
           0           1         131          52           0           0
           0           0           5           0           0           0
           0           0           0           0           0           1
           0           0           0           0           0           0
           0           0           0           0           0           0
           0           0           0           0           0           0
           0           0           0           0           0           0
           0           0           0           0
Num RLSW                                   I               52
RLSW                                       R   N=          52
  8.00000000E-01  7.20000000E-01  1.00000000E+00  8.10000000E-01  2.00000000E-01
  0.00000000E+00  0.00000000E+00  1.00000000E+00  0.00000000E+00  0.00000000E+00
  0.00000000E+00  0.00000000E+00  1.00000000E+00  0.00000000E+00  0.00000000E+00
  0.00000000E+00  0.00000000E+00  1.00000000E+00  0.00000000E+00  0.00000000E+00
  0.00000000E+00  0.00000000E+00  1.00000000E+00  0.00000000E+00  0.00000000E+00
  0.00000000E+00  0.00000000E+00  1.00000000E+00  0.00000000E+00  0.00000000E+00
  0.00000000E+00  0.00000000E+00  1.00000000E+00  0.00000000E+00  0.00000000E+00
  0.00000000E+00  0.00000000E+00  0.00000000E+00  1.00000000E+00  1.00000000E+00
  0.00000000E+00  1.00000000E+00  0.00000000E+00  0.00000000E+00  0.00000000E+00
  0.00000000E+00  0.00000000E+00  0.00000000E+00  0.00000000E+00  0.00000000E+00
  0.00000000E+00  0.00000000E+00
MxBond                                     I                1
NBond                                      I   N=           1
           0
IBond                                      I   N=           1
           0
RBond                                      R   N=           1
  0.00000000E+00
Virial Ratio                               R      2.002725793196546E+00
SCF Energy                                 R     -4.601753308283534E+02
Total Energy                               R     -4.601753308283534E+02
S**2                                       R      7.532368039004576E-01
S**2 after annihilation                    R      7.500044659039689E-01
RMS Density                                R      2.885411275348250E-09
Job Status                                 I                1
Nuclear derivative order                   I                0
External E-field                           R   N=          35
  0.00000000E+00  0.00000000E+00  0.00000000E+00  0.00000000E+00  0.00000000E+00
  0.00000000E+00  0.00000000E+00  0.00000000E+00  0.00000000E+00  0.00000000E+00
  0.00000000E+00  0.00000000E+00  0.00000000E+00  0.00000000E+00  0.00000000E+00
  0.00000000E+00  0.00000000E+00  0.00000000E+00  0.00000000E+00  0.00000000E+00
  0.00000000E+00  0.00000000E+00  0.00000000E+00  0.00000000E+00  0.00000000E+00
  0.00000000E+00  0.00000000E+00  0.00000000E+00  0.00000000E+00  0.00000000E+00
  0.00000000E+00  0.00000000E+00  0.00000000E+00  0.00000000E+00  0.00000000E+00
IOpCl                                      I                1
IROHF                                      I                0
Alpha Orbital Energies                     R   N=          50
 -1.01614382E+02 -9.51611244E+00 -7.29037798E+00 -7.26753153E+00 -7.26753153E+00
 -8.51073217E-01 -4.13299992E-01 -3.58639706E-01 -3.58639706E-01  3.52449619E-02
  5.74352501E-02  6.18099418E-02  6.18099418E-02  1.93688993E-01  1.98322471E-01
  1.98322471E-01  2.15591587E-01  2.15591587E-01  4.45691010E-01  4.68410673E-01
  4.68410673E-01  6.56997177E-01  6.65575984E-01  6.65575984E-01  6.95586816E-01
  6.95586816E-01  7.01870243E-01  9.49338128E-01  9.52797904E-01  9.52797904E-01
  9.62664416E-01  9.62664416E-01  9.80153861E-01  9.80153861E-01  2.10329475E+00
  2.11356195E+00  2.11356195E+00  2.14678954E+00  2.14678954E+00  2.23056238E+00
  2.27292039E+00  2.27292039E+00  2.64523083E+00  2.65123055E+00  2.65123055E+00
  2.66892515E+00  2.66892515E+00  2.69955992E+00  2.69955992E+00  4.57097274E+00
Beta Orbital Energies                      R   N=          50
 -1.01607633E+02 -9.50952480E+00 -7.26820242E+00 -7.26363566E+00 -7.26363566E+00
 -7.97575772E-01 -3.43674214E-01 -3.43674214E-01 -2.48942460E-01  3.91663954E-02
  6.23438940E-02  6.23438940E-02  6.49519154E-02  2.16394107E-01  2.16394123E-01
  2.17180596E-01  2.17180596E-01  2.21505296E-01  4.72731930E-01  4.72731930E-01
  4.77760461E-01  6.99604199E-01  6.99604213E-01  7.03862880E-01  7.03862880E-01
  7.10867900E-01  7.19326820E-01  9.76028507E-01  9.76028507E-01  9.76111532E-01
  9.76111544E-01  9.78168935E-01  9.79644928E-01  9.79644928E-01  2.14863592E+00
  2.14863592E+00  2.15032492E+00  2.15032493E+00  2.15212273E+00  2.28124007E+00
  2.28124007E+00  2.28342332E+00  2.69961668E+00  2.69961669E+00  2.70088083E+00
  2.70088083E+00  2.70286890E+00  2.70286890E+00  2.70692368E+00  4.58803022E+00
Alpha MO coefficients                      R   N=        2500
  9.99516159E-01  4.00452564E-03  2.56716976E-03 -3.13786073E-03 -1.58736996E-03
  4.94733857E-04  0.00000000E+00  0.00000000E+00  0.00000000E+00  0.00000000E+00
  0.00000000E+00  0.00000000E+00  0.00000000E+00  0.00000000E+00  0.00000000E+00
  0.00000000E+00  0.00000000E+00  0.00000000E+00  0.00000000E+00  0.00000000E+00
  0.00000000E+00 -6.33622792E-07  0.00000000E+00  0.00000000E+00  1.09746687E-06
  0.00000000E+00  5.11461294E-07  0.00000000E+00  0.00000000E+00 -8.85876949E-07
  0.00000000E+00 -2.11844657E-07  0.00000000E+00  0.00000000E+00  3.66925711E-07
  0.00000000E+00  0.00000000E+00  0.00000000E+00  0.00000000E+00  0.00000000E+00
  0.00000000E+00  0.00000000E+00  0.00000000E+00  0.00000000E+00  0.00000000E+00
  0.00000000E+00  0.00000000E+00  0.00000000E+00  0.00000000E+00  0.00000000E+00
 -2.80187909E-01  9.58722479E-01 -1.81614493E-02  1.05862958E-01  7.98780112E-03
 -2.16968106E-03  0.00000000E+00  0.00000000E+00  0.00000000E+00  0.00000000E+00
  0.00000000E+00  0.00000000E+00  0.00000000E+00  0.00000000E+00  0.00000000E+00
  0.00000000E+00  0.00000000E+00  0.00000000E+00  0.00000000E+00  0.00000000E+00
  0.00000000E+00 -6.34589853E-04  0.00000000E+00  0.00000000E+00  1.09914187E-03
  0.00000000E+00  2.79877733E-04  0.00000000E+00  0.00000000E+00 -4.84762454E-04
  0.00000000E+00 -1.17664543E-04  0.00000000E+00  0.00000000E+00  2.03800967E-04
  0.00000000E+00  0.00000000E+00  0.00000000E+00  0.00000000E+00  0.00000000E+00
  0.00000000E+00  0.00000000E+00  0.00000000E+00  0.00000000E+00  0.00000000E+00
  0.00000000E+00  0.00000000E+00  0.00000000E+00  0.00000000E+00  0.00000000E+00
  0.00000000E+00  0.00000000E+00  0.00000000E+00  0.00000000E+00  0.00000000E+00
  0.00000000E+00  9.68999893E-01  0.00000000E+00  0.00000000E+00 -6.70630576E-03
  0.00000000E+00  0.00000000E+00  6.66718346E-02  0.00000000E+00  0.00000000E+00
  2.34215827E-03  0.00000000E+00  0.00000000E+00 -6.66735893E-04  0.00000000E+00
  0.00000000E+00  0.00000000E+00  0.00000000E+00  0.00000000E+00  0.00000000E+00
  0.00000000E+00  0.00000000E+00  0.00000000E+00  0.00000000E+00  0.00000000E+00
  0.00000000E+00  0.00000000E+00  0.00000000E+00  0.00000000E+00  0.00000000E+00
  0.00000000E+00  0.00000000E+00 -4.02435457E-04  0.00000000E+00  0.00000000E+00
  0.00000000E+00  5.19541941E-04  0.00000000E+00  0.00000000E+00  1.91019684E-04
  0.00000000E+00  0.00000000E+00  0.00000000E+00 -2.46605351E-04  0.00000000E+00
  0.00000000E+00  0.00000000E+00  0.00000000E+00  0.00000000E+00  0.00000000E+00
  0.00000000E+00  0.00000000E+00  0.00000000E+00  9.69653518E-01  0.00000000E+00
  0.00000000E+00 -6.39097075E-03  0.00000000E+00  0.00000000E+00  6.52746431E-02
  0.00000000E+00  0.00000000E+00  2.19363243E-03  0.00000000E+00  0.00000000E+00
 -6.20035443E-04  0.00000000E+00  0.00000000E+00  0.00000000E+00  0.00000000E+00
  0.00000000E+00  0.00000000E+00  0.00000000E+00  0.00000000E+00  0.00000000E+00
  0.00000000E+00  0.00000000E+00  0.00000000E+00  0.00000000E+00  0.00000000E+00
  0.00000000E+00 -3.27801841E-04  0.00000000E+00  0.00000000E+00  4.23190356E-04
  0.00000000E+00  0.00000000E+00  0.00000000E+00  1.55839482E-04  0.00000000E+00
  0.00000000E+00 -2.01187906E-04  0.00000000E+00  0.00000000E+00  0.00000000E+00
  0.00000000E+00  0.00000000E+00  0.00000000E+00  0.00000000E+00  0.00000000E+00
  0.00000000E+00  0.00000000E+00  9.69653518E-01  0.00000000E+00  0.00000000E+00
 -6.39097075E-03  0.00000000E+00  0.00000000E+00  6.52746431E-02  0.00000000E+00
  0.00000000E+00  2.19363243E-03  0.00000000E+00  0.00000000E+00 -6.20035443E-04
  0.00000000E+00  0.00000000E+00  0.00000000E+00  0.00000000E+00  0.00000000E+00
  0.00000000E+00  0.00000000E+00  0.00000000E+00  0.00000000E+00  0.00000000E+00
  0.00000000E+00  0.00000000E+00  0.00000000E+00  0.00000000E+00  0.00000000E+00
  0.00000000E+00  0.00000000E+00  0.00000000E+00 -1.33824541E-04  0.00000000E+00
  0.00000000E+00  0.00000000E+00  5.18300219E-04  0.00000000E+00  0.00000000E+00
  6.36212018E-05  0.00000000E+00  0.00000000E+00  0.00000000E+00 -2.46403856E-04
  8.87146077E-02 -3.29980477E-01  6.32791979E-01  9.04739496E-02  3.70047936E-01
  4.31615750E-03  0.00000000E+00  0.00000000E+00  0.00000000E+00  0.00000000E+00
  0.00000000E+00  0.00000000E+00  0.00000000E+00  0.00000000E+00  0.00000000E+00
  0.00000000E+00  0.00000000E+00  0.00000000E+00  0.00000000E+00  0.00000000E+00
  0.00000000E+00 -8.91840481E-03  0.00000000E+00  0.00000000E+00  1.54471302E-02
  0.00000000E+00 -1.04449882E-02  0.00000000E+00  0.00000000E+00  1.80912503E-02
  0.00000000E+00 -1.53988943E-04  0.00000000E+00  0.00000000E+00  2.66716673E-04
  0.00000000E+00  0.00000000E+00  0.00000000E+00  0.00000000E+00  0.00000000E+00
  0.00000000E+00  0.00000000E+00  0.00000000E+00  0.00000000E+00  0.00000000E+00
  0.00000000E+00  0.00000000E+00  0.00000000E+00  0.00000000E+00  0.00000000E+00
  0.00000000E+00  0.00000000E+00  0.00000000E+00  0.00000000E+00  0.00000000E+00
  0.00000000E+00 -2.76746452E-01  0.00000000E+00  0.00000000E+00  5.70433768E-01
  0.00000000E+00  0.00000000E+00  2.82713380E-01  0.00000000E+00  0.00000000E+00
  3.09622745E-01  0.00000000E+00  0.00000000E+00  9.29891919E-03  0.00000000E+00
  0.00000000E+00  0.00000000E+00  0.00000000E+00  0.00000000E+00  0.00000000E+00
  0.00000000E+00  0.00000000E+00  0.00000000E+00  0.00000000E+00  0.00000000E+00
  0.00000000E+00  0.00000000E+00  0.00000000E+00  0.00000000E+00  0.00000000E+00
  0.00000000E+00  0.00000000E+00 -7.21463959E-03  0.00000000E+00  0.00000000E+00
  0.00000000E+00  9.31405965E-03  0.00000000E+00  0.00000000E+00 -4.78202593E-03
  0.00000000E+00  0.00000000E+00  0.00000000E+00  6.17356893E-03  0.00000000E+00
  0.00000000E+00  0.00000000E+00  0.00000000E+00  0.00000000E+00  0.00000000E+00
  0.00000000E+00  0.00000000E+00 -2.71866813E-01  0.00000000E+00  0.00000000E+00
  5.44700431E-01  0.00000000E+00  0.00000000E+00  2.80093033E-01  0.00000000E+00
  0.00000000E+00  3.36646286E-01  0.00000000E+00  0.00000000E+00  2.12288051E-02
  0.00000000E+00  0.00000000E+00  0.00000000E+00  0.00000000E+00  0.00000000E+00
  0.00000000E+00  0.00000000E+00  0.00000000E+00  0.00000000E+00  0.00000000E+00
  0.00000000E+00  0.00000000E+00  0.00000000E+00  0.00000000E+00  0.00000000E+00
  0.00000000E+00  0.00000000E+00  0.00000000E+00 -2.37439300E-03  0.00000000E+00
  0.00000000E+00  0.00000000E+00  9.19598457E-03  0.00000000E+00  0.00000000E+00
 -1.78777225E-03  0.00000000E+00  0.00000000E+00  0.00000000E+00  6.92401217E-03
  0.00000000E+00  0.00000000E+00  0.00000000E+00  0.00000000E+00  0.00000000E+00
  0.00000000E+00  0.00000000E+00  0.00000000E+00 -2.71866813E-01  0.00000000E+00
  0.00000000E+00  5.44700431E-01  0.00000000E+00  0.00000000E+00  2.80093033E-01
  0.00000000E+00  0.00000000E+00  3.36646286E-01  0.00000000E+00  0.00000000E+00
  2.12288051E-02  0.00000000E+00  0.00000000E+00  0.00000000E+00  0.00000000E+00
  0.00000000E+00  0.00000000E+00  0.00000000E+00  0.00000000E+00  0.00000000E+00
  0.00000000E+00  0.00000000E+00  0.00000000E+00  0.00000000E+00  0.00000000E+00
  0.00000000E+00 -5.81605132E-03  0.00000000E+00  0.00000000E+00  7.50848995E-03
  0.00000000E+00  0.00000000E+00  0.00000000E+00 -4.37912980E-03  0.00000000E+00
  0.00000000E+00  5.65343226E-03  0.00000000E+00  0.00000000E+00  0.00000000E+00
 -2.49365496E-02  1.47114383E-01 -1.14895288E-01 -6.56899234E-02 -1.05926288E+00
  1.67793652E+00  0.00000000E+00  0.00000000E+00  0.00000000E+00  0.00000000E+00
  0.00000000E+00  0.00000000E+00  0.00000000E+00  0.00000000E+00  0.00000000E+00
  0.00000000E+00  0.00000000E+00  0.00000000E+00  0.00000000E+00  0.00000000E+00
  0.00000000E+00  2.87548510E-03  0.00000000E+00  0.00000000E+00 -4.98048629E-03
  0.00000000E+00  2.71446523E-03  0.00000000E+00  0.00000000E+00 -4.70159169E-03
  0.00000000E+00 -1.23822867E-02  0.00000000E+00  0.00000000E+00  2.14467497E-02
  0.00000000E+00  0.00000000E+00  0.00000000E+00  0.00000000E+00  0.00000000E+00
  0.00000000E+00  0.00000000E+00  0.00000000E+00  0.00000000E+00  0.00000000E+00
  0.00000000E+00  0.00000000E+00  0.00000000E+00  0.00000000E+00  0.00000000E+00
  0.00000000E+00  0.00000000E+00  0.00000000E+00  0.00000000E+00  0.00000000E+00
  0.00000000E+00  8.10211902E-02  0.00000000E+00  0.00000000E+00 -1.21573966E-01
  0.00000000E+00  0.00000000E+00 -1.07188269E-01  0.00000000E+00  0.00000000E+00
 -3.62927588E-01  0.00000000E+00  0.00000000E+00  1.19997861E+00  0.00000000E+00
  0.00000000E+00  0.00000000E+00  0.00000000E+00  0.00000000E+00  0.00000000E+00
  0.00000000E+00  0.00000000E+00  0.00000000E+00  0.00000000E+00  0.00000000E+00
  0.00000000E+00  0.00000000E+00  0.00000000E+00  0.00000000E+00  0.00000000E+00
  0.00000000E+00  0.00000000E+00  2.51888495E-03  0.00000000E+00  0.00000000E+00
  0.00000000E+00 -3.25186648E-03  0.00000000E+00  0.00000000E+00 -1.16326377E-03
  0.00000000E+00  0.00000000E+00  0.00000000E+00  1.50176707E-03  0.00000000E+00
  0.00000000E+00  0.00000000E+00  0.00000000E+00  0.00000000E+00  0.00000000E+00
  0.00000000E+00  0.00000000E+00  8.37170136E-02  0.00000000E+00  0.00000000E+00
 -1.12545076E-01  0.00000000E+00  0.00000000E+00 -1.10414542E-01  0.00000000E+00
  0.00000000E+00 -4.08677335E-01  0.00000000E+00  0.00000000E+00  1.21713019E+00
  0.00000000E+00  0.00000000E+00  0.00000000E+00  0.00000000E+00  0.00000000E+00
  0.00000000E+00  0.00000000E+00  0.00000000E+00  0.00000000E+00  0.00000000E+00
  0.00000000E+00  0.00000000E+00  0.00000000E+00  0.00000000E+00  0.00000000E+00
  0.00000000E+00  0.00000000E+00  0.00000000E+00  8.84971059E-04  0.00000000E+00
  0.00000000E+00  0.00000000E+00 -3.42747818E-03  0.00000000E+00  0.00000000E+00
 -3.32062220E-04  0.00000000E+00  0.00000000E+00  0.00000000E+00  1.28607145E-03
  0.00000000E+00  0.00000000E+00  0.00000000E+00  0.00000000E+00  0.00000000E+00
  0.00000000E+00  0.00000000E+00  0.00000000E+00  8.37170136E-02  0.00000000E+00
  0.00000000E+00 -1.12545076E-01  0.00000000E+00  0.00000000E+00 -1.10414542E-01
  0.00000000E+00  0.00000000E+00 -4.08677335E-01  0.00000000E+00  0.00000000E+00
  1.21713019E+00  0.00000000E+00  0.00000000E+00  0.00000000E+00  0.00000000E+00
  0.00000000E+00  0.00000000E+00  0.00000000E+00  0.00000000E+00  0.00000000E+00
  0.00000000E+00  0.00000000E+00  0.00000000E+00  0.00000000E+00  0.00000000E+00
  0.00000000E+00  2.16772754E-03  0.00000000E+00  0.00000000E+00 -2.79852421E-03
  0.00000000E+00  0.00000000E+00  0.00000000E+00 -8.13383001E-04  0.00000000E+00
  0.00000000E+00  1.05007294E-03  0.00000000E+00  0.00000000E+00  0.00000000E+00
 -2.95922529E-03  4.83370699E-03 -3.61602102E-02 -6.66796770E-03  5.10093621E-02
 -4.76930286E-02  0.00000000E+00  0.00000000E+00  0.00000000E+00  0.00000000E+00
  0.00000000E+00  0.00000000E+00  0.00000000E+00  0.00000000E+00  0.00000000E+00
  0.00000000E+00  0.00000000E+00  0.00000000E+00  0.00000000E+00  0.00000000E+00
  0.00000000E+00 -8.87195818E-02  0.00000000E+00  0.00000000E+00  1.53666823E-01
  0.00000000E+00 -3.89244749E-02  0.00000000E+00  0.00000000E+00  6.74191682E-02
  0.00000000E+00 -4.42985949E-01  0.00000000E+00  0.00000000E+00  7.67274171E-01
  0.00000000E+00  0.00000000E+00  0.00000000E+00  0.00000000E+00  0.00000000E+00
  0.00000000E+00  0.00000000E+00  0.00000000E+00  0.00000000E+00  0.00000000E+00
  0.00000000E+00  0.00000000E+00  0.00000000E+00  0.00000000E+00  0.00000000E+00
  0.00000000E+00  0.00000000E+00  0.00000000E+00  0.00000000E+00  0.00000000E+00
  0.00000000E+00  0.00000000E+00  0.00000000E+00  0.00000000E+00  0.00000000E+00
  0.00000000E+00  0.00000000E+00  0.00000000E+00  0.00000000E+00  0.00000000E+00
  0.00000000E+00  0.00000000E+00  0.00000000E+00  0.00000000E+00  0.00000000E+00
  0.00000000E+00  0.00000000E+00  0.00000000E+00  0.00000000E+00  0.00000000E+00
  1.75343533E-01  0.00000000E+00  0.00000000E+00  0.00000000E+00  0.00000000E+00
  6.61499500E-02  0.00000000E+00  0.00000000E+00  0.00000000E+00  0.00000000E+00
  8.96865532E-01  0.00000000E+00  0.00000000E+00  0.00000000E+00  0.00000000E+00
  0.00000000E+00  0.00000000E+00  0.00000000E+00  0.00000000E+00  0.00000000E+00
  0.00000000E+00  0.00000000E+00  0.00000000E+00  0.00000000E+00  0.00000000E+00
  0.00000000E+00  0.00000000E+00  0.00000000E+00  0.00000000E+00  0.00000000E+00
  0.00000000E+00  0.00000000E+00  0.00000000E+00  0.00000000E+00  0.00000000E+00
  0.00000000E+00  0.00000000E+00  0.00000000E+00  0.00000000E+00  0.00000000E+00
  0.00000000E+00  0.00000000E+00  0.00000000E+00  0.00000000E+00  0.00000000E+00
  0.00000000E+00  0.00000000E+00  1.75343533E-01  0.00000000E+00  0.00000000E+00
  0.00000000E+00  0.00000000E+00  6.61499500E-02  0.00000000E+00  0.00000000E+00
  0.00000000E+00  0.00000000E+00  8.96865532E-01  0.00000000E+00  0.00000000E+00
  0.00000000E+00  0.00000000E+00  0.00000000E+00  0.00000000E+00  0.00000000E+00
  0.00000000E+00  0.00000000E+00  0.00000000E+00  0.00000000E+00  0.00000000E+00
  0.00000000E+00  0.00000000E+00  0.00000000E+00  0.00000000E+00  0.00000000E+00
  0.00000000E+00  0.00000000E+00  0.00000000E+00  0.00000000E+00  0.00000000E+00
  0.00000000E+00  0.00000000E+00  0.00000000E+00  0.00000000E+00  0.00000000E+00
  0.00000000E+00  0.00000000E+00  0.00000000E+00  0.00000000E+00  0.00000000E+00
  0.00000000E+00  0.00000000E+00  0.00000000E+00  0.00000000E+00  0.00000000E+00
  0.00000000E+00  0.00000000E+00  0.00000000E+00  1.67359990E-01  0.00000000E+00
  0.00000000E+00  0.00000000E+00  0.00000000E+00  3.16167431E-02  0.00000000E+00
  0.00000000E+00  0.00000000E+00  0.00000000E+00  9.27530834E-01  0.00000000E+00
  0.00000000E+00  0.00000000E+00  0.00000000E+00  0.00000000E+00  0.00000000E+00
  0.00000000E+00  0.00000000E+00  0.00000000E+00  0.00000000E+00  0.00000000E+00
  0.00000000E+00  0.00000000E+00  0.00000000E+00  0.00000000E+00  0.00000000E+00
 -1.49484876E-16 -3.85020565E-15 -7.34139427E-15  4.64080724E-15  6.45107775E-15
 -1.22086952E-15  0.00000000E+00  0.00000000E+00  0.00000000E+00  0.00000000E+00
  0.00000000E+00  0.00000000E+00  0.00000000E+00  0.00000000E+00  0.00000000E+00
  0.00000000E+00  0.00000000E+00  0.00000000E+00  0.00000000E+00  0.00000000E+00
  0.00000000E+00  1.44938003E-01  0.00000000E+00  0.00000000E+00  8.36799952E-02
  0.00000000E+00  2.73809027E-02  0.00000000E+00  0.00000000E+00  1.58083715E-02
  0.00000000E+00  8.03265265E-01  0.00000000E+00  0.00000000E+00  4.63765417E-01
  0.00000000E+00  0.00000000E+00  0.00000000E+00  0.00000000E+00  0.00000000E+00
  0.00000000E+00  0.00000000E+00  0.00000000E+00  0.00000000E+00  0.00000000E+00
  0.00000000E+00  0.00000000E+00  0.00000000E+00  0.00000000E+00  0.00000000E+00
  0.00000000E+00  0.00000000E+00  0.00000000E+00  0.00000000E+00  0.00000000E+00
  0.00000000E+00  1.55891649E-01  0.00000000E+00  0.00000000E+00 -1.15715400E+00
  0.00000000E+00  0.00000000E+00 -1.11612317E-01  0.00000000E+00  0.00000000E+00
  1.95208531E+00  0.00000000E+00  0.00000000E+00 -8.98433032E-01  0.00000000E+00
  0.00000000E+00  0.00000000E+00  0.00000000E+00  0.00000000E+00  0.00000000E+00
  0.00000000E+00  0.00000000E+00  0.00000000E+00  0.00000000E+00  0.00000000E+00
  0.00000000E+00  0.00000000E+00  0.00000000E+00  0.00000000E+00  0.00000000E+00
  0.00000000E+00  0.00000000E+00  7.51225048E-03  0.00000000E+00  0.00000000E+00
  0.00000000E+00 -9.69827367E-03  0.00000000E+00  0.00000000E+00 -1.11027302E-02
  0.00000000E+00  0.00000000E+00  0.00000000E+00  1.43335630E-02  0.00000000E+00
  0.00000000E+00  0.00000000E+00  0.00000000E+00  0.00000000E+00  0.00000000E+00
  0.00000000E+00  0.00000000E+00  0.00000000E+00  1.58327845E-01  0.00000000E+00
  0.00000000E+00 -1.18254059E+00  0.00000000E+00  0.00000000E+00 -1.07394380E-01
  0.00000000E+00  0.00000000E+00  1.94546820E+00  0.00000000E+00  0.00000000E+00
 -8.76703873E-01  0.00000000E+00  0.00000000E+00  0.00000000E+00  0.00000000E+00
  0.00000000E+00  0.00000000E+00  0.00000000E+00  0.00000000E+00  0.00000000E+00
  0.00000000E+00  0.00000000E+00  0.00000000E+00  0.00000000E+00  0.00000000E+00
  0.00000000E+00  6.51928915E-03  0.00000000E+00  0.00000000E+00 -8.41636609E-03
  0.00000000E+00  0.00000000E+00  0.00000000E+00 -9.47088554E-03  0.00000000E+00
  0.00000000E+00  1.22268607E-02  0.00000000E+00  0.00000000E+00  0.00000000E+00
  0.00000000E+00  0.00000000E+00  0.00000000E+00  0.00000000E+00  0.00000000E+00
  0.00000000E+00  0.00000000E+00  1.58327845E-01  0.00000000E+00  0.00000000E+00
 -1.18254059E+00  0.00000000E+00  0.00000000E+00 -1.07394380E-01  0.00000000E+00
  0.00000000E+00  1.94546820E+00  0.00000000E+00  0.00000000E+00 -8.76703873E-01
  0.00000000E+00  0.00000000E+00  0.00000000E+00  0.00000000E+00  0.00000000E+00
  0.00000000E+00  0.00000000E+00  0.00000000E+00  0.00000000E+00  0.00000000E+00
  0.00000000E+00  0.00000000E+00  0.00000000E+00  0.00000000E+00  0.00000000E+00
  0.00000000E+00  0.00000000E+00  0.00000000E+00  2.66148864E-03  0.00000000E+00
  0.00000000E+00  0.00000000E+00 -1.03079012E-02  0.00000000E+00  0.00000000E+00
 -3.86647283E-03  0.00000000E+00  0.00000000E+00  0.00000000E+00  1.49747849E-02
  6.13542334E-03  3.34373430E-02  1.55495583E-01  9.75861509E-04 -2.96216141E-01
  1.37567143E-01  0.00000000E+00  0.00000000E+00  0.00000000E+00  0.00000000E+00