 Entering Gaussian System, Link 0=g16
 Input=Cl.com
 Output=Cl.log
 Initial command:
 /usr/site/hpc/x86_64/glibc-2.17/broadwell/gaussian/g16_a.03/pgi-16.5/g16/l1.exe "/home/c744/c7441090/data/Gau-3858315.inp" -scrdir="/home/c744/c7441090/data/"
 Entering Link 1 = /usr/site/hpc/x86_64/glibc-2.17/broadwell/gaussian/g16_a.03/pgi-16.5/g16/l1.exe PID=   3858316.
  
 Copyright (c) 1988,1990,1992,1993,1995,1998,2003,2009,2016,
            Gaussian, Inc.  All Rights Reserved.
  
 This is part of the Gaussian(R) 16 program.  It is based on
 the Gaussian(R) 09 system (copyright 2009, Gaussian, Inc.),
 the Gaussian(R) 03 system (copyright 2003, Gaussian, Inc.),
 the Gaussian(R) 98 system (copyright 1998, Gaussian, Inc.),
 the Gaussian(R) 94 system (copyright 1995, Gaussian, Inc.),
 the Gaussian 92(TM) system (copyright 1992, Gaussian, Inc.),
 the Gaussian 90(TM) system (copyright 1990, Gaussian, Inc.),
 the Gaussian 88(TM) system (copyright 1988, Gaussian, Inc.),
 the Gaussian 86(TM) system (copyright 1986, Carnegie Mellon
 University), and the Gaussian 82(TM) system (copyright 1983,
 Carnegie Mellon University). Gaussian is a federally registered
 trademark of Gaussian, Inc.
  
 This software contains proprietary and confidential information,
 including trade secrets, belonging to Gaussian, Inc.
  
 This software is provided under written license and may be
 used, copied, transmitted, or stored only in accord with that
 written license.
  
 The following legend is applicable only to US Government
 contracts under FAR:
  
                    RESTRICTED RIGHTS LEGEND
  
 Use, reproduction and disclosure by the US Government is
 subject to restrictions as set forth in subparagraphs (a)
 and (c) of the Commercial Computer Software - Restricted
 Rights clause in FAR 52.227-19.
  
 Gaussian, Inc.
 340 Quinnipiac St., Bldg. 40, Wallingford CT 06492
  
  
 ---------------------------------------------------------------
 Warning -- This program may not be used in any manner that
 competes with the business of Gaussian, Inc. or will provide
 assistance to any competitor of Gaussian, Inc.  The licensee
 of this program is prohibited from giving any competitor of
 Gaussian, Inc. access to this program.  By using this program,
 the user acknowledges that Gaussian, Inc. is engaged in the
 business of creating and licensing software in the field of
 computational chemistry and represents and warrants to the
 licensee that it is not a competitor of Gaussian, Inc. and that
 it will not use this program in any manner prohibited above.
 ---------------------------------------------------------------
  

 Cite this work as:
 Gaussian 16, Revision A.03,
 M. J. Frisch, G. W. Trucks, H. B. Schlegel, G. E. Scuseria, 
 M. A. Robb, J. R. Cheeseman, G. Scalmani, V. Barone, 
 G. A. Petersson, H. Nakatsuji, X. Li, M. Caricato, A. V. Marenich, 
 J. Bloino, B. G. Janesko, R. Gomperts, B. Mennucci, H. P. Hratchian, 
 J. V. Ortiz, A. F. Izmaylov, J. L. Sonnenberg, D. Williams-Young, 
 F. Ding, F. Lipparini, F. Egidi, J. Goings, B. Peng, A. Petrone, 
 T. Henderson, D. Ranasinghe, V. G. Zakrzewski, J. Gao, N. Rega, 
 G. Zheng, W. Liang, M. Hada, M. Ehara, K. Toyota, R. Fukuda, 
 J. Hasegawa, M. Ishida, T. Nakajima, Y. Honda, O. Kitao, H. Nakai, 
 T. Vreven, K. Throssell, J. A. Montgomery, Jr., J. E. Peralta, 
 F. Ogliaro, M. J. Bearpark, J. J. Heyd, E. N. Brothers, K. N. Kudin, 
 V. N. Staroverov, T. A. Keith, R. Kobayashi, J. Normand, 
 K. Raghavachari, A. P. Rendell, J. C. Burant, S. S. Iyengar, 
 J. Tomasi, M. Cossi, J. M. Millam, M. Klene, C. Adamo, R. Cammi, 
 J. W. Ochterski, R. L. Martin, K. Morokuma, O. Farkas, 
 J. B. Foresman, and D. J. Fox, Gaussian, Inc., Wallingford CT, 2016.
 
 ******************************************
 Gaussian 16:  ES64L-G16RevA.03 25-Dec-2016
                20-Nov-2023 
 ******************************************
 %NProcShared=4
 Will use up to    4 processors via shared memory.
 %Mem=1GB
 %Chk=Cl.chk
 ----------------------------------------------------
 # B3LYP/aug-cc-pVTZ EmpiricalDispersion=GD3 Pop=Full
 ----------------------------------------------------
 1/38=1,172=1/1;
 2/12=2,17=6,18=5,40=1/2;
 3/5=16,6=1,7=10,11=2,25=1,30=1,74=-5,124=31/1,2,3;
 4//1;
 5/5=2,38=5/2;
 6/7=3,28=1/1;
 99/5=1,9=1/99;
 --------
 Chlorine
 --------
 Symbolic Z-matrix:
 Charge =  0 Multiplicity = 2
 Cl                    0.        0.        0. 
 
                          Input orientation:                          
 ---------------------------------------------------------------------
 Center     Atomic      Atomic             Coordinates (Angstroms)
 Number     Number       Type             X           Y           Z
 ---------------------------------------------------------------------
      1         17           0        0.000000    0.000000    0.000000
 ---------------------------------------------------------------------
 Stoichiometry    Cl(2)
 Framework group  OH[O(Cl)]
 Deg. of freedom     0
 Full point group                 OH      NOp  48
 Largest Abelian subgroup         D2H     NOp   8
 Largest concise Abelian subgroup C1      NOp   1
                         Standard orientation:                         
 ---------------------------------------------------------------------
 Center     Atomic      Atomic             Coordinates (Angstroms)
 Number     Number       Type             X           Y           Z
 ---------------------------------------------------------------------
      1         17           0        0.000000    0.000000    0.000000
 ---------------------------------------------------------------------
 Standard basis: Aug-CC-pVTZ (5D, 7F)
 There are    15 symmetry adapted cartesian basis functions of AG  symmetry.
 There are     3 symmetry adapted cartesian basis functions of B1G symmetry.
 There are     3 symmetry adapted cartesian basis functions of B2G symmetry.
 There are     3 symmetry adapted cartesian basis functions of B3G symmetry.
 There are     2 symmetry adapted cartesian basis functions of AU  symmetry.
 There are    11 symmetry adapted cartesian basis functions of B1U symmetry.
 There are    11 symmetry adapted cartesian basis functions of B2U symmetry.
 There are    11 symmetry adapted cartesian basis functions of B3U symmetry.
 There are    12 symmetry adapted basis functions of AG  symmetry.
 There are     3 symmetry adapted basis functions of B1G symmetry.
 There are     3 symmetry adapted basis functions of B2G symmetry.
 There are     3 symmetry adapted basis functions of B3G symmetry.
 There are     2 symmetry adapted basis functions of AU  symmetry.
 There are     9 symmetry adapted basis functions of B1U symmetry.
 There are     9 symmetry adapted basis functions of B2U symmetry.
 There are     9 symmetry adapted basis functions of B3U symmetry.
    50 basis functions,   114 primitive gaussians,    59 cartesian basis functions
     9 alpha electrons        8 beta electrons
       nuclear repulsion energy         0.0000000000 Hartrees.
 NAtoms=    1 NActive=    1 NUniq=    1 SFac= 1.00D+00 NAtFMM=   60 NAOKFM=F Big=F
 Integral buffers will be    131072 words long.
 Raffenetti 2 integral format.
 Two-electron integral symmetry is turned on.
 Nuclear repulsion after empirical dispersion term =        0.0000000000 Hartrees.
 One-electron integrals computed using PRISM.
 NBasis=    50 RedAO= T EigKep=  1.62D-02  NBF=    12     3     3     3     2     9     9     9
 NBsUse=    50 1.00D-06 EigRej= -1.00D+00 NBFU=    12     3     3     3     2     9     9     9
 ExpMin= 4.19D-02 ExpMax= 4.56D+05 ExpMxC= 1.44D+03 IAcc=3 IRadAn=         5 AccDes= 0.00D+00
 Harris functional with IExCor=  402 and IRadAn=       5 diagonalized for initial guess.
 HarFok:  IExCor=  402 AccDes= 0.00D+00 IRadAn=         5 IDoV= 1 UseB2=F ITyADJ=14
 ICtDFT=  3500011 ScaDFX=  1.000000  1.000000  1.000000  1.000000
 FoFCou: FMM=F IPFlag=           0 FMFlag=      100000 FMFlg1=           0
         NFxFlg=           0 DoJE=T BraDBF=F KetDBF=T FulRan=T
         wScrn=  0.000000 ICntrl=       500 IOpCl=  0 I1Cent=   200000004 NGrid=           0
         NMat0=    1 NMatS0=      1 NMatT0=    0 NMatD0=    1 NMtDS0=    0 NMtDT0=    0
 Petite list used in FoFCou.
 Initial guess orbital symmetries:
 Alpha Orbitals:
       Occupied  (A1G) (A1G) (T1U) (T1U) (T1U) (A1G) (T1U) (T1U)
                 (T1U)
       Virtual   (A1G) (T1U) (T1U) (T1U) (T2G) (T2G) (T2G) (EG)
                 (EG) (T1U) (T1U) (T1U) (T2G) (T2G) (T2G) (EG)
                 (EG) (A1G) (T2U) (T2U) (T2U) (A2U) (T1U) (T1U)
                 (T1U) (T2G) (T2G) (T2G) (EG) (EG) (T1U) (T1U)
                 (T1U) (T2U) (T2U) (T2U) (A2U) (T1U) (T1U) (T1U)
                 (A1G)
 Beta  Orbitals:
       Occupied  (A1G) (A1G) (T1U) (T1U) (T1U) (A1G) (T1U) (T1U)
       Virtual   (T1U) (A1G) (T1U) (T1U) (T1U) (T2G) (T2G) (T2G)
                 (EG) (EG) (T1U) (T1U) (T1U) (T2G) (T2G) (T2G)
                 (EG) (EG) (A1G) (T2U) (T2U) (T2U) (A2U) (T1U)
                 (T1U) (T1U) (T2G) (T2G) (T2G) (EG) (EG) (T1U)
                 (T1U) (T1U) (T2U) (T2U) (T2U) (A2U) (T1U) (T1U)
                 (T1U) (A1G)
 Initial guess <Sx>= 0.0000 <Sy>= 0.0000 <Sz>= 0.5000 <S**2>= 0.7500 S= 0.5000
 Keep R1 and R2 ints in memory in symmetry-blocked form, NReq=4341620.
 Requested convergence on RMS density matrix=1.00D-08 within 128 cycles.
 Requested convergence on MAX density matrix=1.00D-06.
 Requested convergence on             energy=1.00D-06.
 No special actions if energy rises.
 Density matrix breaks symmetry, PCut= 1.00D-04
 Density has only Abelian symmetry.
 Density matrix breaks symmetry, PCut= 1.00D-04
 Density has only Abelian symmetry.
 Density matrix breaks symmetry, PCut= 1.00D-04
 Density has only Abelian symmetry.
 Density matrix breaks symmetry, PCut= 1.00D-04
 Density has only Abelian symmetry.
 Density matrix breaks symmetry, PCut= 1.00D-04
 Density has only Abelian symmetry.
 Density matrix breaks symmetry, PCut= 1.00D-04
 Density has only Abelian symmetry.
 Density matrix breaks symmetry, PCut= 1.00D-04
 Density has only Abelian symmetry.
 Density matrix breaks symmetry, PCut= 1.00D-04
 Density has only Abelian symmetry.
 Density matrix breaks symmetry, PCut= 1.00D-04
 Density has only Abelian symmetry.
 SCF Done:  E(UB3LYP) =  -460.175330828     A.U. after    8 cycles
            NFock=  8  Conv=0.29D-08     -V/T= 2.0027
 <Sx>= 0.0000 <Sy>= 0.0000 <Sz>= 0.5000 <S**2>= 0.7532 S= 0.5016
 <L.S>= 0.000000000000E+00
 Annihilation of the first spin contaminant:
 S**2 before annihilation     0.7532,   after     0.7500
 SCF density gives NOpUse=  8 NOpAll= 48.

 **********************************************************************

            Population analysis using the SCF density.

 **********************************************************************

 Orbital symmetries:
 Alpha Orbitals:
       Occupied  (A1G) (A1G) (T1U) (T1U) (T1U) (?A) (?B) (?B) (?B)
       Virtual   (?A) (?B) (?B) (?B) (?A) (?C) (?C) (?C) (?A) (?B)
                 (?B) (?B) (?A) (?C) (?C) (?C) (?A) (?A) (?B) (?B)
                 (?B) (?B) (A2U) (?B) (?B) (?A) (T2G) (T2G) (T2G)
                 (?A) (?B) (?B) (?B) (?B) (?B) (?B) (?B) (A2U)
                 (?B) (?B) (A1G)
 Beta  Orbitals:
       Occupied  (A1G) (A1G) (T1U) (T1U) (T1U) (?A) (?B) (?B)
       Virtual   (?B) (?A) (?B) (?B) (?B) (?C) (?A) (?C) (?C) (?A)
                 (?B) (?B) (?B) (?C) (?A) (?C) (?C) (?A) (?A) (?D)
                 (?D) (A2U) (?D) (?D) (?D) (?D) (T2G) (T2G) (T2G)
                 (EG) (EG) (T1U) (T1U) (T1U) (A2U) (?D) (?D) (?D)
                 (?D) (?D) (?D) (A1G)
 Unable to determine electronic state:  an orbital has unidentified symmetry.
 Alpha  occ. eigenvalues -- -101.61438  -9.51611  -7.29038  -7.26753  -7.26753
 Alpha  occ. eigenvalues --   -0.85107  -0.41330  -0.35864  -0.35864
 Alpha virt. eigenvalues --    0.03524   0.05744   0.06181   0.06181   0.19369
 Alpha virt. eigenvalues --    0.19832   0.19832   0.21559   0.21559   0.44569
 Alpha virt. eigenvalues --    0.46841   0.46841   0.65700   0.66558   0.66558
 Alpha virt. eigenvalues --    0.69559   0.69559   0.70187   0.94934   0.95280
 Alpha virt. eigenvalues --    0.95280   0.96266   0.96266   0.98015   0.98015
 Alpha virt. eigenvalues --    2.10329   2.11356   2.11356   2.14679   2.14679
 Alpha virt. eigenvalues --    2.23056   2.27292   2.27292   2.64523   2.65123
 Alpha virt. eigenvalues --    2.65123   2.66893   2.66893   2.69956   2.69956
 Alpha virt. eigenvalues --    4.57097
  Beta  occ. eigenvalues -- -101.60763  -9.50952  -7.26820  -7.26364  -7.26364
  Beta  occ. eigenvalues --   -0.79758  -0.34367  -0.34367
  Beta virt. eigenvalues --   -0.24894   0.03917   0.06234   0.06234   0.06495
  Beta virt. eigenvalues --    0.21639   0.21639   0.21718   0.21718   0.22151
  Beta virt. eigenvalues --    0.47273   0.47273   0.47776   0.69960   0.69960
  Beta virt. eigenvalues --    0.70386   0.70386   0.71087   0.71933   0.97603
  Beta virt. eigenvalues --    0.97603   0.97611   0.97611   0.97817   0.97964
  Beta virt. eigenvalues --    0.97964   2.14864   2.14864   2.15032   2.15032
  Beta virt. eigenvalues --    2.15212   2.28124   2.28124   2.28342   2.69962
  Beta virt. eigenvalues --    2.69962   2.70088   2.70088   2.70287   2.70287
  Beta virt. eigenvalues --    2.70692   4.58803
     Alpha Molecular Orbital Coefficients:
                           1         2         3         4         5
                       (A1G)--O  (A1G)--O  (T1U)--O  (T1U)--O  (T1U)--O
     Eigenvalues --  -101.61438  -9.51611  -7.29038  -7.26753  -7.26753
   1 1   Cl 1S          0.99952  -0.28019   0.00000   0.00000   0.00000
   2        2S          0.00400   0.95872   0.00000   0.00000   0.00000
   3        3S          0.00257  -0.01816   0.00000   0.00000   0.00000
   4        4S         -0.00314   0.10586   0.00000   0.00000   0.00000
   5        5S         -0.00159   0.00799   0.00000   0.00000   0.00000
   6        6S          0.00049  -0.00217   0.00000   0.00000   0.00000
   7        7PX         0.00000   0.00000   0.96900   0.00000   0.00000
   8        7PY         0.00000   0.00000   0.00000   0.00000   0.96965
   9        7PZ         0.00000   0.00000   0.00000   0.96965   0.00000
  10        8PX         0.00000   0.00000  -0.00671   0.00000   0.00000
  11        8PY         0.00000   0.00000   0.00000   0.00000  -0.00639
  12        8PZ         0.00000   0.00000   0.00000  -0.00639   0.00000
  13        9PX         0.00000   0.00000   0.06667   0.00000   0.00000
  14        9PY         0.00000   0.00000   0.00000   0.00000   0.06527
  15        9PZ         0.00000   0.00000   0.00000   0.06527   0.00000
  16       10PX         0.00000   0.00000   0.00234   0.00000   0.00000
  17       10PY         0.00000   0.00000   0.00000   0.00000   0.00219
  18       10PZ         0.00000   0.00000   0.00000   0.00219   0.00000
  19       11PX         0.00000   0.00000  -0.00067   0.00000   0.00000
  20       11PY         0.00000   0.00000   0.00000   0.00000  -0.00062
  21       11PZ         0.00000   0.00000   0.00000  -0.00062   0.00000
  22       12D 0       -0.00000  -0.00063   0.00000   0.00000   0.00000
  23       12D+1        0.00000   0.00000   0.00000   0.00000   0.00000
  24       12D-1        0.00000   0.00000   0.00000   0.00000   0.00000
  25       12D+2        0.00000   0.00110   0.00000   0.00000   0.00000
  26       12D-2        0.00000   0.00000   0.00000   0.00000   0.00000
  27       13D 0        0.00000   0.00028   0.00000   0.00000   0.00000
  28       13D+1        0.00000   0.00000   0.00000   0.00000   0.00000
  29       13D-1        0.00000   0.00000   0.00000   0.00000   0.00000
  30       13D+2       -0.00000  -0.00048   0.00000   0.00000   0.00000
  31       13D-2        0.00000   0.00000   0.00000   0.00000   0.00000
  32       14D 0       -0.00000  -0.00012   0.00000   0.00000   0.00000
  33       14D+1        0.00000   0.00000   0.00000   0.00000   0.00000
  34       14D-1        0.00000   0.00000   0.00000   0.00000   0.00000
  35       14D+2        0.00000   0.00020   0.00000   0.00000   0.00000
  36       14D-2        0.00000   0.00000   0.00000   0.00000   0.00000
  37       15F 0        0.00000   0.00000   0.00000  -0.00033   0.00000
  38       15F+1        0.00000   0.00000  -0.00040   0.00000   0.00000
  39       15F-1        0.00000   0.00000   0.00000   0.00000  -0.00013
  40       15F+2        0.00000   0.00000   0.00000   0.00042   0.00000
  41       15F-2        0.00000   0.00000   0.00000   0.00000   0.00000
  42       15F+3        0.00000   0.00000   0.00052   0.00000   0.00000
  43       15F-3        0.00000   0.00000   0.00000   0.00000   0.00052
  44       16F 0        0.00000   0.00000   0.00000   0.00016   0.00000
  45       16F+1        0.00000   0.00000   0.00019   0.00000   0.00000
  46       16F-1        0.00000   0.00000   0.00000   0.00000   0.00006
  47       16F+2        0.00000   0.00000   0.00000  -0.00020   0.00000
  48       16F-2        0.00000   0.00000   0.00000   0.00000   0.00000
  49       16F+3        0.00000   0.00000  -0.00025   0.00000   0.00000
  50       16F-3        0.00000   0.00000   0.00000   0.00000  -0.00025
                           6         7         8         9        10
                           O         O         O         O         V
     Eigenvalues --    -0.85107  -0.41330  -0.35864  -0.35864   0.03524
   1 1   Cl 1S          0.08871   0.00000   0.00000   0.00000  -0.02494
   2        2S         -0.32998   0.00000   0.00000   0.00000   0.14711
   3        3S          0.63279   0.00000   0.00000   0.00000  -0.11490
   4        4S          0.09047   0.00000   0.00000   0.00000  -0.06569
   5        5S          0.37005   0.00000   0.00000   0.00000  -1.05926
   6        6S          0.00432   0.00000   0.00000   0.00000   1.67794
   7        7PX         0.00000  -0.27675   0.00000   0.00000   0.00000
   8        7PY         0.00000   0.00000  -0.27187   0.00000   0.00000
   9        7PZ         0.00000   0.00000   0.00000  -0.27187   0.00000
  10        8PX         0.00000   0.57043   0.00000   0.00000   0.00000
  11        8PY         0.00000   0.00000   0.54470   0.00000   0.00000
  12        8PZ         0.00000   0.00000   0.00000   0.54470   0.00000
  13        9PX         0.00000   0.28271   0.00000   0.00000   0.00000
  14        9PY         0.00000   0.00000   0.28009   0.00000   0.00000
  15        9PZ         0.00000   0.00000   0.00000   0.28009   0.00000
  16       10PX         0.00000   0.30962   0.00000   0.00000   0.00000
  17       10PY         0.00000   0.00000   0.33665   0.00000   0.00000
  18       10PZ         0.00000   0.00000   0.00000   0.33665   0.00000
  19       11PX         0.00000   0.00930   0.00000   0.00000   0.00000
  20       11PY         0.00000   0.00000   0.02123   0.00000   0.00000
  21       11PZ         0.00000   0.00000   0.00000   0.02123   0.00000
  22       12D 0       -0.00892   0.00000   0.00000   0.00000   0.00288
  23       12D+1        0.00000   0.00000   0.00000   0.00000   0.00000
  24       12D-1        0.00000   0.00000   0.00000   0.00000   0.00000
  25       12D+2        0.01545   0.00000   0.00000   0.00000  -0.00498
  26       12D-2        0.00000   0.00000   0.00000   0.00000   0.00000
  27       13D 0       -0.01044   0.00000   0.00000   0.00000   0.00271
  28       13D+1        0.00000   0.00000   0.00000   0.00000   0.00000
  29       13D-1        0.00000   0.00000   0.00000   0.00000   0.00000
  30       13D+2        0.01809   0.00000   0.00000   0.00000  -0.00470
  31       13D-2        0.00000   0.00000   0.00000   0.00000   0.00000
  32       14D 0       -0.00015   0.00000   0.00000   0.00000  -0.01238
  33       14D+1        0.00000   0.00000   0.00000   0.00000   0.00000
  34       14D-1        0.00000   0.00000   0.00000   0.00000   0.00000
  35       14D+2        0.00027   0.00000   0.00000   0.00000   0.02145
  36       14D-2        0.00000   0.00000   0.00000   0.00000   0.00000
  37       15F 0        0.00000   0.00000   0.00000  -0.00582   0.00000
  38       15F+1        0.00000  -0.00721   0.00000   0.00000   0.00000
  39       15F-1        0.00000   0.00000  -0.00237   0.00000   0.00000
  40       15F+2        0.00000   0.00000   0.00000   0.00751   0.00000
  41       15F-2        0.00000   0.00000   0.00000   0.00000   0.00000
  42       15F+3        0.00000   0.00931   0.00000   0.00000   0.00000
  43       15F-3        0.00000   0.00000   0.00920   0.00000   0.00000
  44       16F 0        0.00000   0.00000   0.00000  -0.00438   0.00000
  45       16F+1        0.00000  -0.00478   0.00000   0.00000   0.00000
  46       16F-1        0.00000   0.00000  -0.00179   0.00000   0.00000
  47       16F+2        0.00000   0.00000   0.00000   0.00565   0.00000
  48       16F-2        0.00000   0.00000   0.00000   0.00000   0.00000
  49       16F+3        0.00000   0.00617   0.00000   0.00000   0.00000
  50       16F-3        0.00000   0.00000   0.00692   0.00000   0.00000
                          11        12        13        14        15
                           V         V         V         V         V
     Eigenvalues --     0.05744   0.06181   0.06181   0.19369   0.19832
   1 1   Cl 1S          0.00000   0.00000   0.00000  -0.00296   0.00000
   2        2S          0.00000   0.00000   0.00000   0.00483   0.00000
   3        3S          0.00000   0.00000   0.00000  -0.03616   0.00000
   4        4S          0.00000   0.00000   0.00000  -0.00667   0.00000
   5        5S          0.00000   0.00000   0.00000   0.05101   0.00000
   6        6S          0.00000   0.00000   0.00000  -0.04769   0.00000
   7        7PX         0.08102   0.00000   0.00000   0.00000   0.00000
   8        7PY         0.00000   0.08372   0.00000   0.00000   0.00000
   9        7PZ         0.00000   0.00000   0.08372   0.00000   0.00000
  10        8PX        -0.12157   0.00000   0.00000   0.00000   0.00000
  11        8PY         0.00000  -0.11255   0.00000   0.00000   0.00000
  12        8PZ         0.00000   0.00000  -0.11255   0.00000   0.00000
  13        9PX        -0.10719   0.00000   0.00000   0.00000   0.00000
  14        9PY         0.00000  -0.11041   0.00000   0.00000   0.00000
  15        9PZ         0.00000   0.00000  -0.11041   0.00000   0.00000
  16       10PX        -0.36293   0.00000   0.00000   0.00000   0.00000
  17       10PY         0.00000  -0.40868   0.00000   0.00000   0.00000
  18       10PZ         0.00000   0.00000  -0.40868   0.00000   0.00000
  19       11PX         1.19998   0.00000   0.00000   0.00000   0.00000
  20       11PY         0.00000   1.21713   0.00000   0.00000   0.00000
  21       11PZ         0.00000   0.00000   1.21713   0.00000   0.00000
  22       12D 0        0.00000   0.00000   0.00000  -0.08872   0.00000
  23       12D+1        0.00000   0.00000   0.00000   0.00000   0.00000
  24       12D-1        0.00000   0.00000   0.00000   0.00000   0.00000
  25       12D+2        0.00000   0.00000   0.00000   0.15367   0.00000
  26       12D-2        0.00000   0.00000   0.00000   0.00000   0.17534
  27       13D 0        0.00000   0.00000   0.00000  -0.03892   0.00000
  28       13D+1        0.00000   0.00000   0.00000   0.00000   0.00000
  29       13D-1        0.00000   0.00000   0.00000   0.00000   0.00000
  30       13D+2        0.00000   0.00000   0.00000   0.06742   0.00000
  31       13D-2        0.00000   0.00000   0.00000   0.00000   0.06615
  32       14D 0        0.00000   0.00000   0.00000  -0.44299   0.00000
  33       14D+1        0.00000   0.00000   0.00000   0.00000   0.00000
  34       14D-1        0.00000   0.00000   0.00000   0.00000   0.00000
  35       14D+2        0.00000   0.00000   0.00000   0.76727   0.00000
  36       14D-2        0.00000   0.00000   0.00000   0.00000   0.89687
  37       15F 0        0.00000   0.00000   0.00217   0.00000   0.00000
  38       15F+1        0.00252   0.00000   0.00000   0.00000   0.00000
  39       15F-1        0.00000   0.00088   0.00000   0.00000   0.00000
  40       15F+2        0.00000   0.00000  -0.00280   0.00000   0.00000
  41       15F-2        0.00000   0.00000   0.00000   0.00000   0.00000
  42       15F+3       -0.00325   0.00000   0.00000   0.00000   0.00000
  43       15F-3        0.00000  -0.00343   0.00000   0.00000   0.00000
  44       16F 0        0.00000   0.00000  -0.00081   0.00000   0.00000
  45       16F+1       -0.00116   0.00000   0.00000   0.00000   0.00000
  46       16F-1        0.00000  -0.00033   0.00000   0.00000   0.00000
  47       16F+2        0.00000   0.00000   0.00105   0.00000   0.00000
  48       16F-2        0.00000   0.00000   0.00000   0.00000   0.00000
  49       16F+3        0.00150   0.00000   0.00000   0.00000   0.00000
  50       16F-3        0.00000   0.00129   0.00000   0.00000   0.00000
                          16        17        18        19        20
                           V         V         V         V         V
     Eigenvalues --     0.19832   0.21559   0.21559   0.44569   0.46841
   1 1   Cl 1S          0.00000   0.00000  -0.00000   0.00000   0.00000
   2        2S          0.00000   0.00000  -0.00000   0.00000   0.00000
   3        3S          0.00000   0.00000  -0.00000   0.00000   0.00000
   4        4S          0.00000   0.00000   0.00000   0.00000   0.00000
   5        5S          0.00000   0.00000   0.00000   0.00000   0.00000
   6        6S          0.00000   0.00000  -0.00000   0.00000   0.00000
   7        7PX         0.00000   0.00000   0.00000   0.15589   0.00000
   8        7PY         0.00000   0.00000   0.00000   0.00000   0.00000
   9        7PZ         0.00000   0.00000   0.00000   0.00000   0.15833
  10        8PX         0.00000   0.00000   0.00000  -1.15715   0.00000
  11        8PY         0.00000   0.00000   0.00000   0.00000   0.00000
  12        8PZ         0.00000   0.00000   0.00000   0.00000  -1.18254
  13        9PX         0.00000   0.00000   0.00000  -0.11161   0.00000
  14        9PY         0.00000   0.00000   0.00000   0.00000   0.00000
  15        9PZ         0.00000   0.00000   0.00000   0.00000  -0.10739
  16       10PX         0.00000   0.00000   0.00000   1.95209   0.00000
  17       10PY         0.00000   0.00000   0.00000   0.00000   0.00000
  18       10PZ         0.00000   0.00000   0.00000   0.00000   1.94547
  19       11PX         0.00000   0.00000   0.00000  -0.89843   0.00000
  20       11PY         0.00000   0.00000   0.00000   0.00000   0.00000
  21       11PZ         0.00000   0.00000   0.00000   0.00000  -0.87670
  22       12D 0        0.00000   0.00000   0.14494   0.00000   0.00000
  23       12D+1        0.17534   0.00000   0.00000   0.00000   0.00000
  24       12D-1        0.00000   0.16736   0.00000   0.00000   0.00000
  25       12D+2        0.00000   0.00000   0.08368   0.00000   0.00000
  26       12D-2        0.00000   0.00000   0.00000   0.00000   0.00000
  27       13D 0        0.00000   0.00000   0.02738   0.00000   0.00000
  28       13D+1        0.06615   0.00000   0.00000   0.00000   0.00000
  29       13D-1        0.00000   0.03162   0.00000   0.00000   0.00000
  30       13D+2        0.00000   0.00000   0.01581   0.00000   0.00000
  31       13D-2        0.00000   0.00000   0.00000   0.00000   0.00000
  32       14D 0        0.00000   0.00000   0.80327   0.00000   0.00000
  33       14D+1        0.89687   0.00000   0.00000   0.00000   0.00000
  34       14D-1        0.00000   0.92753   0.00000   0.00000   0.00000
  35       14D+2        0.00000   0.00000   0.46377   0.00000   0.00000
  36       14D-2        0.00000   0.00000   0.00000   0.00000   0.00000
  37       15F 0        0.00000   0.00000   0.00000   0.00000   0.00652
  38       15F+1        0.00000   0.00000   0.00000   0.00751   0.00000
  39       15F-1        0.00000   0.00000   0.00000   0.00000   0.00000
  40       15F+2        0.00000   0.00000   0.00000   0.00000  -0.00842
  41       15F-2        0.00000   0.00000   0.00000   0.00000   0.00000
  42       15F+3        0.00000   0.00000   0.00000  -0.00970   0.00000
  43       15F-3        0.00000   0.00000   0.00000   0.00000   0.00000
  44       16F 0        0.00000   0.00000   0.00000   0.00000  -0.00947
  45       16F+1        0.00000   0.00000   0.00000  -0.01110   0.00000
  46       16F-1        0.00000   0.00000   0.00000   0.00000   0.00000
  47       16F+2        0.00000   0.00000   0.00000   0.00000   0.01223
  48       16F-2        0.00000   0.00000   0.00000   0.00000   0.00000
  49       16F+3        0.00000   0.00000   0.00000   0.01433   0.00000
  50       16F-3        0.00000   0.00000   0.00000   0.00000   0.00000
                          21        22        23        24        25
                           V         V         V         V         V
     Eigenvalues --     0.46841   0.65700   0.66558   0.66558   0.69559
   1 1   Cl 1S          0.00000   0.00614   0.00000   0.00000   0.00000
   2        2S          0.00000   0.03344   0.00000   0.00000   0.00000
   3        3S          0.00000   0.15550   0.00000   0.00000   0.00000
   4        4S          0.00000   0.00098   0.00000   0.00000   0.00000
   5        5S          0.00000  -0.29622   0.00000   0.00000   0.00000
   6        6S          0.00000   0.13757   0.00000   0.00000   0.00000
   7        7PX         0.00000   0.00000   0.00000   0.00000   0.00000
   8        7PY         0.15833   0.00000   0.00000   0.00000   0.00000
   9        7PZ         0.00000   0.00000   0.00000   0.00000   0.00000
  10        8PX         0.00000   0.00000   0.00000   0.00000   0.00000
  11        8PY        -1.18254   0.00000   0.00000   0.00000   0.00000
  12        8PZ         0.00000   0.00000   0.00000   0.00000   0.00000
  13        9PX         0.00000   0.00000   0.00000   0.00000   0.00000
  14        9PY        -0.10739   0.00000   0.00000   0.00000   0.00000
  15        9PZ         0.00000   0.00000   0.00000   0.00000   0.00000
  16       10PX         0.00000   0.00000   0.00000   0.00000   0.00000
  17       10PY         1.94547   0.00000   0.00000   0.00000   0.00000
  18       10PZ         0.00000   0.00000   0.00000   0.00000   0.00000
  19       11PX         0.00000   0.00000   0.00000   0.00000   0.00000
  20       11PY        -0.87670   0.00000   0.00000   0.00000   0.00000
  21       11PZ         0.00000   0.00000   0.00000   0.00000   0.00000
  22       12D 0        0.00000  -0.13212   0.00000   0.00000   0.00000
  23       12D+1        0.00000   0.00000   0.00000   0.26245   0.00000
  24       12D-1        0.00000   0.00000   0.00000   0.00000   0.25941
  25       12D+2        0.00000   0.22884   0.00000   0.00000   0.00000
  26       12D-2        0.00000   0.00000   0.26245   0.00000   0.00000
  27       13D 0        0.00000  -0.54756   0.00000   0.00000   0.00000
  28       13D+1        0.00000   0.00000   0.00000   1.10415   0.00000
  29       13D-1        0.00000   0.00000   0.00000   0.00000   1.11485
  30       13D+2        0.00000   0.94841   0.00000   0.00000   0.00000
  31       13D-2        0.00000   0.00000   1.10415   0.00000   0.00000
  32       14D 0        0.00000   0.50118   0.00000   0.00000   0.00000
  33       14D+1        0.00000   0.00000   0.00000  -0.99912   0.00000
  34       14D-1        0.00000   0.00000   0.00000   0.00000  -0.97484
  35       14D+2        0.00000  -0.86807   0.00000   0.00000   0.00000
  36       14D-2        0.00000   0.00000  -0.99912   0.00000   0.00000
  37       15F 0        0.00000   0.00000   0.00000   0.00000   0.00000
  38       15F+1        0.00000   0.00000   0.00000   0.00000   0.00000
  39       15F-1        0.00266   0.00000   0.00000   0.00000   0.00000
  40       15F+2        0.00000   0.00000   0.00000   0.00000   0.00000
  41       15F-2        0.00000   0.00000   0.00000   0.00000   0.00000
  42       15F+3        0.00000   0.00000   0.00000   0.00000   0.00000
  43       15F-3       -0.01031   0.00000   0.00000   0.00000   0.00000
  44       16F 0        0.00000   0.00000   0.00000   0.00000   0.00000
  45       16F+1        0.00000   0.00000   0.00000   0.00000   0.00000
  46       16F-1       -0.00387   0.00000   0.00000   0.00000   0.00000
  47       16F+2        0.00000   0.00000   0.00000   0.00000   0.00000
  48       16F-2        0.00000   0.00000   0.00000   0.00000   0.00000
  49       16F+3        0.00000   0.00000   0.00000   0.00000   0.00000
  50       16F-3        0.01497   0.00000   0.00000   0.00000   0.00000
                          26        27        28        29        30
                           V         V         V         V         V
     Eigenvalues --     0.69559   0.70187   0.94934   0.95280   0.95280
   1 1   Cl 1S         -0.00000  -0.11024   0.00000   0.00000   0.00000
   2        2S         -0.00000  -0.20709   0.00000   0.00000   0.00000
   3        3S         -0.00000  -2.11559   0.00000   0.00000   0.00000
   4        4S         -0.00000  -0.20378   0.00000   0.00000   0.00000
   5        5S          0.00000   3.51989   0.00000   0.00000   0.00000
   6        6S         -0.00000  -1.52108   0.00000   0.00000   0.00000
   7        7PX         0.00000   0.00000   0.00771   0.00000   0.00000
   8        7PY         0.00000   0.00000   0.00000   0.00625   0.00000
   9        7PZ         0.00000   0.00000   0.00000   0.00000   0.00625
  10        8PX         0.00000   0.00000   0.02190   0.00000   0.00000
  11        8PY         0.00000   0.00000   0.00000   0.01779   0.00000
  12        8PZ         0.00000   0.00000   0.00000   0.00000   0.01779
  13        9PX         0.00000   0.00000  -0.01932   0.00000   0.00000
  14        9PY         0.00000   0.00000   0.00000  -0.01554   0.00000
  15        9PZ         0.00000   0.00000   0.00000   0.00000  -0.01554
  16       10PX         0.00000   0.00000  -0.03501   0.00000   0.00000
  17       10PY         0.00000   0.00000   0.00000  -0.02946   0.00000
  18       10PZ         0.00000   0.00000   0.00000   0.00000  -0.02946
  19       11PX         0.00000   0.00000   0.01304   0.00000   0.00000
  20       11PY         0.00000   0.00000   0.00000   0.01084   0.00000
  21       11PZ         0.00000   0.00000   0.00000   0.00000   0.01084
  22       12D 0        0.22465   0.00317   0.00000   0.00000   0.00000
  23       12D+1        0.00000   0.00000   0.00000   0.00000   0.00000
  24       12D-1        0.00000   0.00000   0.00000   0.00000   0.00000
  25       12D+2        0.12970  -0.00549   0.00000   0.00000   0.00000
  26       12D-2        0.00000   0.00000   0.00000   0.00000   0.00000
  27       13D 0        0.96549  -0.05429   0.00000   0.00000   0.00000
  28       13D+1        0.00000   0.00000   0.00000   0.00000   0.00000
  29       13D-1        0.00000   0.00000   0.00000   0.00000   0.00000
  30       13D+2        0.55742   0.09404   0.00000   0.00000   0.00000
  31       13D-2        0.00000   0.00000   0.00000   0.00000   0.00000
  32       14D 0       -0.84424   0.04926   0.00000   0.00000   0.00000
  33       14D+1        0.00000   0.00000   0.00000   0.00000   0.00000
  34       14D-1        0.00000   0.00000   0.00000   0.00000   0.00000
  35       14D+2       -0.48742  -0.08532   0.00000   0.00000   0.00000
  36       14D-2        0.00000   0.00000   0.00000   0.00000   0.00000
  37       15F 0        0.00000   0.00000   0.00000   0.00000   0.08814
  38       15F+1        0.00000   0.00000   0.08741   0.00000   0.00000
  39       15F-1        0.00000   0.00000   0.00000   0.03598   0.00000
  40       15F+2        0.00000   0.00000   0.00000   0.00000  -0.11379
  41       15F-2        0.00000   0.00000   0.00000   0.00000   0.00000
  42       15F+3        0.00000   0.00000  -0.11284   0.00000   0.00000
  43       15F-3        0.00000   0.00000   0.00000  -0.13936   0.00000
  44       16F 0        0.00000   0.00000   0.00000   0.00000  -0.67017
  45       16F+1        0.00000   0.00000  -0.66968   0.00000   0.00000
  46       16F-1        0.00000   0.00000   0.00000  -0.27359   0.00000
  47       16F+2        0.00000   0.00000   0.00000   0.00000   0.86518
  48       16F-2        0.00000   0.00000   0.00000   0.00000   0.00000
  49       16F+3        0.00000   0.00000   0.86455   0.00000   0.00000
  50       16F-3        0.00000   0.00000   0.00000   1.05963   0.00000
                          31        32        33        34        35
                           V     (A2U)--V      V         V         V
     Eigenvalues --     0.96266   0.96266   0.98015   0.98015   2.10329
   1 1   Cl 1S          0.00000   0.00000   0.00000   0.00000   0.00255
   2        2S          0.00000   0.00000   0.00000   0.00000   0.01289
   3        3S          0.00000   0.00000   0.00000   0.00000   0.05880
   4        4S          0.00000   0.00000   0.00000   0.00000  -0.00974
   5        5S          0.00000   0.00000   0.00000   0.00000  -0.06906
   6        6S          0.00000   0.00000   0.00000   0.00000   0.02410
   7        7PX         0.00000   0.00000   0.00000   0.00000   0.00000
   8        7PY         0.00000   0.00000   0.00000   0.00000   0.00000
   9        7PZ         0.00000   0.00000   0.00000  -0.00000   0.00000
  10        8PX        -0.00000   0.00000   0.00000   0.00000   0.00000
  11        8PY         0.00000   0.00000   0.00000   0.00000   0.00000
  12        8PZ         0.00000   0.00000   0.00000  -0.00000   0.00000
  13        9PX        -0.00000   0.00000   0.00000   0.00000   0.00000
  14        9PY         0.00000   0.00000  -0.00000   0.00000   0.00000
  15        9PZ         0.00000   0.00000   0.00000   0.00000   0.00000
  16       10PX         0.00000   0.00000   0.00000   0.00000   0.00000
  17       10PY         0.00000   0.00000  -0.00000   0.00000   0.00000
  18       10PZ         0.00000   0.00000   0.00000   0.00000   0.00000
  19       11PX        -0.00000   0.00000   0.00000   0.00000   0.00000
  20       11PY         0.00000   0.00000   0.00000   0.00000   0.00000
  21       11PZ         0.00000   0.00000   0.00000  -0.00000   0.00000
  22       12D 0        0.00000   0.00000   0.00000   0.00000   0.64820
  23       12D+1        0.00000   0.00000   0.00000   0.00000   0.00000
  24       12D-1        0.00000   0.00000   0.00000   0.00000   0.00000
  25       12D+2        0.00000   0.00000   0.00000   0.00000  -1.12272
  26       12D-2        0.00000   0.00000   0.00000   0.00000   0.00000
  27       13D 0        0.00000   0.00000   0.00000   0.00000  -0.71579
  28       13D+1        0.00000   0.00000   0.00000   0.00000   0.00000
  29       13D-1        0.00000   0.00000   0.00000   0.00000   0.00000
  30       13D+2        0.00000   0.00000   0.00000   0.00000   1.23979
  31       13D-2        0.00000   0.00000   0.00000   0.00000   0.00000
  32       14D 0        0.00000   0.00000   0.00000   0.00000   0.31391
  33       14D+1        0.00000   0.00000   0.00000   0.00000   0.00000
  34       14D-1        0.00000   0.00000   0.00000   0.00000   0.00000
  35       14D+2        0.00000   0.00000   0.00000   0.00000  -0.54371
  36       14D-2        0.00000   0.00000   0.00000   0.00000   0.00000
  37       15F 0        0.00000   0.00000   0.00000  -0.12122   0.00000
  38       15F+1       -0.11658   0.00000   0.00000   0.00000   0.00000
  39       15F-1        0.00000   0.00000  -0.14847   0.00000   0.00000
  40       15F+2        0.00000   0.00000   0.00000  -0.09390   0.00000
  41       15F-2        0.00000  -0.14747   0.00000   0.00000   0.00000
  42       15F+3       -0.09031   0.00000   0.00000   0.00000   0.00000
  43       15F-3        0.00000   0.00000  -0.03833   0.00000   0.00000
  44       16F 0        0.00000   0.00000   0.00000   0.86988   0.00000
  45       16F+1        0.86702   0.00000   0.00000   0.00000   0.00000
  46       16F-1        0.00000   0.00000   1.06538   0.00000   0.00000
  47       16F+2        0.00000   0.00000   0.00000   0.67381   0.00000
  48       16F-2        0.00000   1.09671   0.00000   0.00000   0.00000
  49       16F+3        0.67159   0.00000   0.00000   0.00000   0.00000
  50       16F-3        0.00000   0.00000   0.27508   0.00000   0.00000
                          36        37        38        39        40
                       (T2G)--V  (T2G)--V  (T2G)--V      V         V
     Eigenvalues --     2.11356   2.11356   2.14679   2.14679   2.23056
   1 1   Cl 1S          0.00000   0.00000   0.00000  -0.00000   0.00000
   2        2S          0.00000   0.00000   0.00000   0.00000   0.00000
   3        3S          0.00000   0.00000   0.00000   0.00000   0.00000
   4        4S          0.00000   0.00000   0.00000  -0.00000   0.00000
   5        5S          0.00000   0.00000   0.00000   0.00000   0.00000
   6        6S          0.00000   0.00000   0.00000  -0.00000   0.00000
   7        7PX         0.00000   0.00000   0.00000   0.00000   0.63983
   8        7PY         0.00000   0.00000   0.00000   0.00000   0.00000
   9        7PZ         0.00000   0.00000   0.00000   0.00000   0.00000
  10        8PX         0.00000   0.00000   0.00000   0.00000   2.25633
  11        8PY         0.00000   0.00000   0.00000   0.00000   0.00000
  12        8PZ         0.00000   0.00000   0.00000   0.00000   0.00000
  13        9PX         0.00000   0.00000   0.00000   0.00000  -1.97893
  14        9PY         0.00000   0.00000   0.00000   0.00000   0.00000
  15        9PZ         0.00000   0.00000   0.00000   0.00000   0.00000
  16       10PX         0.00000   0.00000   0.00000   0.00000  -1.18478
  17       10PY         0.00000   0.00000   0.00000   0.00000   0.00000
  18       10PZ         0.00000   0.00000   0.00000   0.00000   0.00000
  19       11PX         0.00000   0.00000   0.00000   0.00000   0.36647
  20       11PY         0.00000   0.00000   0.00000   0.00000   0.00000
  21       11PZ         0.00000   0.00000   0.00000   0.00000   0.00000
  22       12D 0        0.00000   0.00000   0.00000  -1.12486   0.00000
  23       12D+1        0.00000  -1.29721   0.00000   0.00000   0.00000
  24       12D-1        0.00000   0.00000  -1.29887   0.00000   0.00000
  25       12D+2        0.00000   0.00000   0.00000  -0.64944   0.00000
  26       12D-2       -1.29721   0.00000   0.00000   0.00000   0.00000
  27       13D 0        0.00000   0.00000   0.00000   1.23184   0.00000
  28       13D+1        0.00000   1.42955   0.00000   0.00000   0.00000
  29       13D-1        0.00000   0.00000   1.42241   0.00000   0.00000
  30       13D+2        0.00000   0.00000   0.00000   0.71120   0.00000
  31       13D-2        1.42955   0.00000   0.00000   0.00000   0.00000
  32       14D 0        0.00000   0.00000   0.00000  -0.53633   0.00000
  33       14D+1        0.00000  -0.62574   0.00000   0.00000   0.00000
  34       14D-1        0.00000   0.00000  -0.61930   0.00000   0.00000
  35       14D+2        0.00000   0.00000   0.00000  -0.30965   0.00000
  36       14D-2       -0.62574   0.00000   0.00000   0.00000   0.00000
  37       15F 0        0.00000   0.00000   0.00000   0.00000   0.00000
  38       15F+1        0.00000   0.00000   0.00000   0.00000  -0.00532
  39       15F-1        0.00000   0.00000   0.00000   0.00000   0.00000
  40       15F+2        0.00000   0.00000   0.00000   0.00000   0.00000
  41       15F-2        0.00000   0.00000   0.00000   0.00000   0.00000
  42       15F+3        0.00000   0.00000   0.00000   0.00000   0.00687
  43       15F-3        0.00000   0.00000   0.00000   0.00000   0.00000
  44       16F 0        0.00000   0.00000   0.00000   0.00000   0.00000
  45       16F+1        0.00000   0.00000   0.00000   0.00000   0.00833
  46       16F-1        0.00000   0.00000   0.00000   0.00000   0.00000
  47       16F+2        0.00000   0.00000   0.00000   0.00000   0.00000
  48       16F-2        0.00000   0.00000   0.00000   0.00000   0.00000
  49       16F+3        0.00000   0.00000   0.00000   0.00000  -0.01075
  50       16F-3        0.00000   0.00000   0.00000   0.00000   0.00000
                          41        42        43        44        45
                           V         V         V         V         V
     Eigenvalues --     2.27292   2.27292   2.64523   2.65123   2.65123
   1 1   Cl 1S          0.00000   0.00000   0.00000   0.00000   0.00000
   2        2S          0.00000   0.00000   0.00000   0.00000   0.00000
   3        3S          0.00000   0.00000   0.00000   0.00000   0.00000
   4        4S          0.00000   0.00000   0.00000   0.00000   0.00000
   5        5S          0.00000   0.00000   0.00000   0.00000   0.00000
   6        6S          0.00000   0.00000   0.00000   0.00000   0.00000
   7        7PX         0.00000   0.00000   0.00030   0.00000   0.00000
   8        7PY         0.00000   0.64000   0.00000   0.00000  -0.00017
   9        7PZ         0.64000   0.00000   0.00000  -0.00017   0.00000
  10        8PX         0.00000   0.00000  -0.02743   0.00000   0.00000
  11        8PY         0.00000   2.25005   0.00000   0.00000  -0.02446
  12        8PZ         2.25005   0.00000   0.00000  -0.02446   0.00000
  13        9PX         0.00000   0.00000   0.00670   0.00000   0.00000
  14        9PY         0.00000  -1.97944   0.00000   0.00000   0.00690
  15        9PZ        -1.97944   0.00000   0.00000   0.00690   0.00000
  16       10PX         0.00000   0.00000   0.01745   0.00000   0.00000
  17       10PY         0.00000  -1.17352   0.00000   0.00000   0.01543
  18       10PZ        -1.17352   0.00000   0.00000   0.01543   0.00000
  19       11PX         0.00000   0.00000  -0.00544   0.00000   0.00000
  20       11PY         0.00000   0.36210   0.00000   0.00000  -0.00477
  21       11PZ         0.36210   0.00000   0.00000  -0.00477   0.00000
  22       12D 0        0.00000   0.00000   0.00000   0.00000   0.00000
  23       12D+1        0.00000   0.00000   0.00000   0.00000   0.00000
  24       12D-1        0.00000   0.00000   0.00000   0.00000   0.00000
  25       12D+2        0.00000   0.00000   0.00000   0.00000   0.00000
  26       12D-2        0.00000   0.00000   0.00000   0.00000   0.00000
  27       13D 0        0.00000   0.00000   0.00000   0.00000   0.00000
  28       13D+1        0.00000   0.00000   0.00000   0.00000   0.00000
  29       13D-1        0.00000   0.00000   0.00000   0.00000   0.00000
  30       13D+2        0.00000   0.00000   0.00000   0.00000   0.00000
  31       13D-2        0.00000   0.00000   0.00000   0.00000   0.00000
  32       14D 0        0.00000   0.00000   0.00000   0.00000   0.00000
  33       14D+1        0.00000   0.00000   0.00000   0.00000   0.00000
  34       14D-1        0.00000   0.00000   0.00000   0.00000   0.00000
  35       14D+2        0.00000   0.00000   0.00000   0.00000   0.00000
  36       14D-2        0.00000   0.00000   0.00000   0.00000   0.00000
  37       15F 0       -0.00495   0.00000   0.00000  -0.84603   0.00000
  38       15F+1        0.00000   0.00000  -0.84609   0.00000   0.00000
  39       15F-1        0.00000  -0.00202   0.00000   0.00000  -0.34539
  40       15F+2        0.00639   0.00000   0.00000   1.09222   0.00000
  41       15F-2        0.00000   0.00000   0.00000   0.00000   0.00000
  42       15F+3        0.00000   0.00000   1.09229   0.00000   0.00000
  43       15F-3        0.00000   0.00783   0.00000   0.00000   1.33769
  44       16F 0        0.00703   0.00000   0.00000   0.52379   0.00000
  45       16F+1        0.00000   0.00000   0.52437   0.00000   0.00000
  46       16F-1        0.00000   0.00287   0.00000   0.00000   0.21384
  47       16F+2       -0.00908   0.00000   0.00000  -0.67621   0.00000
  48       16F-2        0.00000   0.00000   0.00000   0.00000   0.00000
  49       16F+3        0.00000   0.00000  -0.67695   0.00000   0.00000
  50       16F-3        0.00000  -0.01112   0.00000   0.00000  -0.82819
                          46        47        48        49        50
                           V     (A2U)--V      V         V     (A1G)--V
     Eigenvalues --     2.66893   2.66893   2.69956   2.69956   4.57097
   1 1   Cl 1S          0.00000   0.00000   0.00000   0.00000   0.03785
   2        2S          0.00000   0.00000   0.00000   0.00000   2.93974
   3        3S          0.00000   0.00000   0.00000   0.00000   4.25442
   4        4S          0.00000   0.00000   0.00000   0.00000  -3.96342
   5        5S          0.00000   0.00000   0.00000   0.00000  -2.80532
   6        6S          0.00000   0.00000   0.00000   0.00000   0.86232
   7        7PX         0.00000   0.00000   0.00000   0.00000   0.00000
   8        7PY         0.00000   0.00000   0.00000  -0.00000   0.00000
   9        7PZ         0.00000   0.00000   0.00000   0.00000   0.00000
  10        8PX         0.00000   0.00000   0.00000   0.00000   0.00000
  11        8PY         0.00000   0.00000   0.00000  -0.00000   0.00000
  12        8PZ         0.00000   0.00000   0.00000   0.00000   0.00000
  13        9PX        -0.00000   0.00000   0.00000   0.00000   0.00000
  14        9PY         0.00000   0.00000   0.00000   0.00000   0.00000
  15        9PZ         0.00000   0.00000  -0.00000   0.00000   0.00000
  16       10PX        -0.00000   0.00000   0.00000   0.00000   0.00000
  17       10PY         0.00000   0.00000   0.00000   0.00000   0.00000
  18       10PZ         0.00000   0.00000  -0.00000   0.00000   0.00000
  19       11PX         0.00000   0.00000   0.00000   0.00000   0.00000
  20       11PY         0.00000   0.00000   0.00000  -0.00000   0.00000
  21       11PZ         0.00000   0.00000   0.00000   0.00000   0.00000
  22       12D 0        0.00000   0.00000   0.00000   0.00000  -0.00191
  23       12D+1        0.00000   0.00000   0.00000   0.00000   0.00000
  24       12D-1        0.00000   0.00000   0.00000   0.00000   0.00000
  25       12D+2        0.00000   0.00000   0.00000   0.00000   0.00330
  26       12D-2        0.00000   0.00000   0.00000   0.00000   0.00000
  27       13D 0        0.00000   0.00000   0.00000   0.00000   0.00421
  28       13D+1        0.00000   0.00000   0.00000   0.00000   0.00000
  29       13D-1        0.00000   0.00000   0.00000   0.00000   0.00000
  30       13D+2        0.00000   0.00000   0.00000   0.00000  -0.00728
  31       13D-2        0.00000   0.00000   0.00000   0.00000   0.00000
  32       14D 0        0.00000   0.00000   0.00000   0.00000  -0.00224
  33       14D+1        0.00000   0.00000   0.00000   0.00000   0.00000
  34       14D-1        0.00000   0.00000   0.00000   0.00000   0.00000
  35       14D+2        0.00000   0.00000   0.00000   0.00000   0.00387
  36       14D-2        0.00000   0.00000   0.00000   0.00000   0.00000
  37       15F 0        0.00000   0.00000   1.09150   0.00000   0.00000
  38       15F+1        1.09201   0.00000   0.00000   0.00000   0.00000
  39       15F-1        0.00000   0.00000   0.00000   1.33681   0.00000
  40       15F+2        0.00000   0.00000   0.84547   0.00000   0.00000
  41       15F-2        0.00000   1.38129   0.00000   0.00000   0.00000
  42       15F+3        0.84587   0.00000   0.00000   0.00000   0.00000
  43       15F-3        0.00000   0.00000   0.00000   0.34516   0.00000
  44       16F 0        0.00000   0.00000  -0.67036   0.00000   0.00000
  45       16F+1       -0.67405   0.00000   0.00000   0.00000   0.00000
  46       16F-1        0.00000   0.00000   0.00000  -0.82102   0.00000
  47       16F+2        0.00000   0.00000  -0.51926   0.00000   0.00000
  48       16F-2        0.00000  -0.85261   0.00000   0.00000   0.00000
  49       16F+3       -0.52212   0.00000   0.00000   0.00000   0.00000
  50       16F-3        0.00000   0.00000   0.00000  -0.21199   0.00000
     Beta Molecular Orbital Coefficients:
                           1         2         3         4         5
                       (A1G)--O  (A1G)--O  (T1U)--O  (T1U)--O  (T1U)--O
     Eigenvalues --  -101.60763  -9.50952  -7.26820  -7.26364  -7.26364
   1 1   Cl 1S          0.99953  -0.28023   0.00000   0.00000   0.00000
   2        2S          0.00393   0.95842   0.00000   0.00000   0.00000
   3        3S          0.00252  -0.01948   0.00000   0.00000   0.00000
   4        4S         -0.00307   0.10639   0.00000   0.00000   0.00000
   5        5S         -0.00156   0.00868   0.00000   0.00000   0.00000
   6        6S          0.00049  -0.00240   0.00000   0.00000   0.00000
   7        7PX         0.00000   0.00000   0.96893   0.00000   0.00000
   8        7PY         0.00000   0.00000   0.00000   0.00000   0.96967
   9        7PZ         0.00000   0.00000   0.00000   0.96967   0.00000
  10        8PX         0.00000   0.00000  -0.00786   0.00000   0.00000
  11        8PY         0.00000   0.00000   0.00000   0.00000  -0.00663
  12        8PZ         0.00000   0.00000   0.00000  -0.00663   0.00000
  13        9PX         0.00000   0.00000   0.06718   0.00000   0.00000
  14        9PY         0.00000   0.00000   0.00000   0.00000   0.06532
  15        9PZ         0.00000   0.00000   0.00000   0.06532   0.00000
  16       10PX         0.00000   0.00000   0.00288   0.00000   0.00000
  17       10PY         0.00000   0.00000   0.00000   0.00000   0.00230
  18       10PZ         0.00000   0.00000   0.00000   0.00230   0.00000
  19       11PX         0.00000   0.00000  -0.00084   0.00000   0.00000
  20       11PY         0.00000   0.00000   0.00000   0.00000  -0.00065
  21       11PZ         0.00000   0.00000   0.00000  -0.00065   0.00000
  22       12D 0       -0.00000  -0.00018   0.00000   0.00000   0.00000
  23       12D+1        0.00000   0.00000   0.00000   0.00000   0.00000
  24       12D-1        0.00000   0.00000   0.00000   0.00000   0.00000
  25       12D+2        0.00000   0.00031   0.00000   0.00000   0.00000
  26       12D-2        0.00000   0.00000   0.00000   0.00000   0.00000
  27       13D 0        0.00000   0.00020   0.00000   0.00000   0.00000
  28       13D+1        0.00000   0.00000   0.00000   0.00000   0.00000
  29       13D-1        0.00000   0.00000   0.00000   0.00000   0.00000
  30       13D+2       -0.00000  -0.00034   0.00000   0.00000   0.00000
  31       13D-2        0.00000   0.00000   0.00000   0.00000   0.00000
  32       14D 0       -0.00000  -0.00007   0.00000   0.00000   0.00000
  33       14D+1        0.00000   0.00000   0.00000   0.00000   0.00000
  34       14D-1        0.00000   0.00000   0.00000   0.00000   0.00000
  35       14D+2        0.00000   0.00012   0.00000   0.00000   0.00000
  36       14D-2        0.00000   0.00000   0.00000   0.00000   0.00000
  37       15F 0        0.00000   0.00000   0.00000  -0.00002   0.00000
  38       15F+1        0.00000   0.00000   0.00001   0.00000   0.00000
  39       15F-1        0.00000   0.00000   0.00000   0.00000  -0.00001
  40       15F+2        0.00000   0.00000   0.00000   0.00002   0.00000
  41       15F-2        0.00000   0.00000   0.00000   0.00000   0.00000
  42       15F+3        0.00000   0.00000  -0.00001   0.00000   0.00000
  43       15F-3        0.00000   0.00000   0.00000   0.00000   0.00003
  44       16F 0        0.00000   0.00000   0.00000   0.00003   0.00000
  45       16F+1        0.00000   0.00000   0.00002   0.00000   0.00000
  46       16F-1        0.00000   0.00000   0.00000   0.00000   0.00001
  47       16F+2        0.00000   0.00000   0.00000  -0.00004   0.00000
  48       16F-2        0.00000   0.00000   0.00000   0.00000   0.00000
  49       16F+3        0.00000   0.00000  -0.00003   0.00000   0.00000
  50       16F-3        0.00000   0.00000   0.00000   0.00000  -0.00004
                           6         7         8         9        10
                           O         O         O         V         V
     Eigenvalues --    -0.79758  -0.34367  -0.34367  -0.24894   0.03917
   1 1   Cl 1S          0.08787   0.00000   0.00000   0.00000  -0.02444
   2        2S         -0.33471   0.00000   0.00000   0.00000   0.15225
   3        3S          0.61567   0.00000   0.00000   0.00000  -0.09712
   4        4S          0.09647   0.00000   0.00000   0.00000  -0.06511
   5        5S          0.38171   0.00000   0.00000   0.00000  -1.09883
   6        6S          0.00942   0.00000   0.00000   0.00000   1.69389
   7        7PX         0.00000   0.00000   0.00000  -0.26071   0.00000
   8        7PY         0.00000  -0.27011   0.00000   0.00000   0.00000
   9        7PZ         0.00000   0.00000  -0.27011   0.00000   0.00000
  10        8PX         0.00000   0.00000   0.00000   0.50714   0.00000
  11        8PY         0.00000   0.53501   0.00000   0.00000   0.00000
  12        8PZ         0.00000   0.00000   0.53501   0.00000   0.00000
  13        9PX         0.00000   0.00000   0.00000   0.26472   0.00000
  14        9PY         0.00000   0.27894   0.00000   0.00000   0.00000
  15        9PZ         0.00000   0.00000   0.27894   0.00000   0.00000
  16       10PX         0.00000   0.00000   0.00000   0.37761   0.00000
  17       10PY         0.00000   0.34689   0.00000   0.00000   0.00000
  18       10PZ         0.00000   0.00000   0.34689   0.00000   0.00000
  19       11PX         0.00000   0.00000   0.00000   0.04917   0.00000
  20       11PY         0.00000   0.02557   0.00000   0.00000   0.00000
  21       11PZ         0.00000   0.00000   0.02557   0.00000   0.00000
  22       12D 0        0.00362   0.00000   0.00000   0.00000  -0.00103
  23       12D+1        0.00000   0.00000   0.00000   0.00000   0.00000
  24       12D-1        0.00000   0.00000   0.00000   0.00000   0.00000
  25       12D+2       -0.00627   0.00000   0.00000   0.00000   0.00178
  26       12D-2        0.00000   0.00000   0.00000   0.00000   0.00000
  27       13D 0        0.00388   0.00000   0.00000   0.00000  -0.00005
  28       13D+1        0.00000   0.00000   0.00000   0.00000   0.00000
  29       13D-1        0.00000   0.00000   0.00000   0.00000   0.00000
  30       13D+2       -0.00672   0.00000   0.00000   0.00000   0.00008
  31       13D-2        0.00000   0.00000   0.00000   0.00000   0.00000
  32       14D 0        0.00080   0.00000   0.00000   0.00000  -0.00343
  33       14D+1        0.00000   0.00000   0.00000   0.00000   0.00000
  34       14D-1        0.00000   0.00000   0.00000   0.00000   0.00000
  35       14D+2       -0.00139   0.00000   0.00000   0.00000   0.00595
  36       14D-2        0.00000   0.00000   0.00000   0.00000   0.00000
  37       15F 0        0.00000   0.00000   0.00087   0.00000   0.00000
  38       15F+1        0.00000   0.00000   0.00000   0.00206   0.00000
  39       15F-1        0.00000   0.00035   0.00000   0.00000   0.00000
  40       15F+2        0.00000   0.00000  -0.00112   0.00000   0.00000
  41       15F-2        0.00000   0.00000   0.00000   0.00000   0.00000
  42       15F+3        0.00000   0.00000   0.00000  -0.00266   0.00000
  43       15F-3        0.00000  -0.00137   0.00000   0.00000   0.00000
  44       16F 0        0.00000   0.00000  -0.00056   0.00000   0.00000
  45       16F+1        0.00000   0.00000   0.00000   0.00033   0.00000
  46       16F-1        0.00000  -0.00023   0.00000   0.00000   0.00000
  47       16F+2        0.00000   0.00000   0.00072   0.00000   0.00000
  48       16F-2        0.00000   0.00000   0.00000   0.00000   0.00000
  49       16F+3        0.00000   0.00000   0.00000  -0.00043   0.00000
  50       16F-3        0.00000   0.00088   0.00000   0.00000   0.00000
                          11        12        13        14        15
                           V         V         V         V         V
     Eigenvalues --     0.06234   0.06234   0.06495   0.21639   0.21639
   1 1   Cl 1S          0.00000   0.00000   0.00000   0.00000  -0.00000
   2        2S          0.00000   0.00000   0.00000   0.00000  -0.00000
   3        3S          0.00000   0.00000   0.00000   0.00000  -0.00000
   4        4S          0.00000   0.00000   0.00000   0.00000   0.00000
   5        5S          0.00000   0.00000   0.00000   0.00000   0.00000
   6        6S          0.00000   0.00000   0.00000   0.00000   0.00000
   7        7PX         0.00000   0.00000   0.09294   0.00000   0.00000
   8        7PY         0.08523   0.00000   0.00000   0.00000   0.00000
   9        7PZ         0.00000   0.08523   0.00000   0.00000   0.00000
  10        8PX         0.00000   0.00000  -0.12572   0.00000   0.00000
  11        8PY        -0.11311   0.00000   0.00000   0.00000   0.00000
  12        8PZ         0.00000  -0.11311   0.00000   0.00000   0.00000
  13        9PX         0.00000   0.00000  -0.11821   0.00000   0.00000
  14        9PY        -0.11187   0.00000   0.00000   0.00000   0.00000
  15        9PZ         0.00000  -0.11187   0.00000   0.00000   0.00000
  16       10PX         0.00000   0.00000  -0.44654   0.00000   0.00000
  17       10PY        -0.41903   0.00000   0.00000   0.00000   0.00000
  18       10PZ         0.00000  -0.41903   0.00000   0.00000   0.00000
  19       11PX         0.00000   0.00000   1.22550   0.00000   0.00000
  20       11PY         1.22031   0.00000   0.00000   0.00000   0.00000
  21       11PZ         0.00000   1.22031   0.00000   0.00000   0.00000
  22       12D 0        0.00000   0.00000   0.00000   0.00000   0.14348
  23       12D+1        0.00000   0.00000   0.00000   0.00000   0.00000
  24       12D-1        0.00000   0.00000   0.00000   0.16568   0.00000
  25       12D+2        0.00000   0.00000   0.00000   0.00000   0.08284
  26       12D-2        0.00000   0.00000   0.00000   0.00000   0.00000
  27       13D 0        0.00000   0.00000   0.00000   0.00000   0.02220
  28       13D+1        0.00000   0.00000   0.00000   0.00000   0.00000
  29       13D-1        0.00000   0.00000   0.00000   0.02564   0.00000
  30       13D+2        0.00000   0.00000   0.00000   0.00000   0.01282
  31       13D-2        0.00000   0.00000   0.00000   0.00000   0.00000
  32       14D 0        0.00000   0.00000   0.00000   0.00000   0.80788
  33       14D+1        0.00000   0.00000   0.00000   0.00000   0.00000
  34       14D-1        0.00000   0.00000   0.00000   0.93286   0.00000
  35       14D+2        0.00000   0.00000   0.00000   0.00000   0.46643
  36       14D-2        0.00000   0.00000   0.00000   0.00000   0.00000
  37       15F 0        0.00000   0.00007   0.00000   0.00000   0.00000
  38       15F+1        0.00000   0.00000  -0.00053   0.00000   0.00000
  39       15F-1        0.00003   0.00000   0.00000   0.00000   0.00000
  40       15F+2        0.00000  -0.00009   0.00000   0.00000   0.00000
  41       15F-2        0.00000   0.00000   0.00000   0.00000   0.00000
  42       15F+3        0.00000   0.00000   0.00068   0.00000   0.00000
  43       15F-3       -0.00011   0.00000   0.00000   0.00000   0.00000
  44       16F 0        0.00000  -0.00055   0.00000   0.00000   0.00000
  45       16F+1        0.00000   0.00000  -0.00022   0.00000   0.00000
  46       16F-1       -0.00022   0.00000   0.00000   0.00000   0.00000
  47       16F+2        0.00000   0.00071   0.00000   0.00000   0.00000
  48       16F-2        0.00000   0.00000   0.00000   0.00000   0.00000
  49       16F+3        0.00000   0.00000   0.00028   0.00000   0.00000
  50       16F-3        0.00086   0.00000   0.00000   0.00000   0.00000
                          16        17        18        19        20
                           V         V         V         V         V
     Eigenvalues --     0.21718   0.21718   0.22151   0.47273   0.47273
   1 1   Cl 1S          0.00000   0.00000   0.00075   0.00000   0.00000
   2        2S          0.00000   0.00000  -0.00712   0.00000   0.00000
   3        3S          0.00000   0.00000  -0.00155   0.00000   0.00000
   4        4S          0.00000   0.00000   0.00375   0.00000   0.00000
   5        5S          0.00000   0.00000   0.02325   0.00000   0.00000
   6        6S          0.00000   0.00000  -0.01727   0.00000   0.00000
   7        7PX         0.00000   0.00000   0.00000   0.00000   0.00000
   8        7PY         0.00000   0.00000   0.00000   0.00000   0.15946
   9        7PZ         0.00000   0.00000   0.00000   0.15946   0.00000
  10        8PX         0.00000   0.00000   0.00000   0.00000   0.00000
  11        8PY         0.00000   0.00000   0.00000   0.00000  -1.19032
  12        8PZ         0.00000   0.00000   0.00000  -1.19032   0.00000
  13        9PX         0.00000   0.00000   0.00000   0.00000   0.00000
  14        9PY         0.00000   0.00000   0.00000   0.00000  -0.10662
  15        9PZ         0.00000   0.00000   0.00000  -0.10662   0.00000
  16       10PX         0.00000   0.00000   0.00000   0.00000   0.00000
  17       10PY         0.00000   0.00000   0.00000   0.00000   1.94343
  18       10PZ         0.00000   0.00000   0.00000   1.94343   0.00000
  19       11PX         0.00000   0.00000   0.00000   0.00000   0.00000
  20       11PY         0.00000   0.00000   0.00000   0.00000  -0.87264
  21       11PZ         0.00000   0.00000   0.00000  -0.87264   0.00000
  22       12D 0        0.00000   0.00000  -0.07949   0.00000   0.00000
  23       12D+1        0.00000   0.16126   0.00000   0.00000   0.00000
  24       12D-1        0.00000   0.00000   0.00000   0.00000   0.00000
  25       12D+2        0.00000   0.00000   0.13768   0.00000   0.00000
  26       12D-2        0.16126   0.00000   0.00000   0.00000   0.00000
  27       13D 0        0.00000   0.00000  -0.00446   0.00000   0.00000
  28       13D+1        0.00000   0.01495   0.00000   0.00000   0.00000
  29       13D-1        0.00000   0.00000   0.00000   0.00000   0.00000
  30       13D+2        0.00000   0.00000   0.00772   0.00000   0.00000
  31       13D-2        0.01495   0.00000   0.00000   0.00000   0.00000
  32       14D 0        0.00000   0.00000  -0.47411   0.00000   0.00000
  33       14D+1        0.00000   0.94282   0.00000   0.00000   0.00000
  34       14D-1        0.00000   0.00000   0.00000   0.00000   0.00000
  35       14D+2        0.00000   0.00000   0.82118   0.00000   0.00000
  36       14D-2        0.94282   0.00000   0.00000   0.00000   0.00000
  37       15F 0        0.00000   0.00000   0.00000   0.00068   0.00000
  38       15F+1        0.00000   0.00000   0.00000   0.00000   0.00000
  39       15F-1        0.00000   0.00000   0.00000   0.00000   0.00028
  40       15F+2        0.00000   0.00000   0.00000  -0.00088   0.00000
  41       15F-2        0.00000   0.00000   0.00000   0.00000   0.00000
  42       15F+3        0.00000   0.00000   0.00000   0.00000   0.00000
  43       15F-3        0.00000   0.00000   0.00000   0.00000  -0.00108
  44       16F 0        0.00000   0.00000   0.00000  -0.00366   0.00000
  45       16F+1        0.00000   0.00000   0.00000   0.00000   0.00000
  46       16F-1        0.00000   0.00000   0.00000   0.00000  -0.00149
  47       16F+2        0.00000   0.00000   0.00000   0.00472   0.00000
  48       16F-2        0.00000   0.00000   0.00000   0.00000   0.00000
  49       16F+3        0.00000   0.00000   0.00000   0.00000   0.00000
  50       16F-3        0.00000   0.00000   0.00000   0.00000   0.00579
                          21        22        23        24        25
                           V         V         V         V         V
     Eigenvalues --     0.47776   0.69960   0.69960   0.70386   0.70386
   1 1   Cl 1S          0.00000   0.00000  -0.00000   0.00000   0.00000
   2        2S          0.00000   0.00000  -0.00000   0.00000   0.00000
   3        3S          0.00000   0.00000  -0.00000   0.00000   0.00000
   4        4S          0.00000   0.00000  -0.00000   0.00000   0.00000
   5        5S          0.00000   0.00000   0.00000   0.00000   0.00000
   6        6S          0.00000   0.00000  -0.00000   0.00000   0.00000
   7        7PX         0.16536   0.00000   0.00000   0.00000   0.00000
   8        7PY         0.00000   0.00000   0.00000   0.00000   0.00000
   9        7PZ         0.00000   0.00000   0.00000   0.00000   0.00000
  10        8PX        -1.21237   0.00000   0.00000   0.00000   0.00000
  11        8PY         0.00000   0.00000   0.00000   0.00000   0.00000
  12        8PZ         0.00000   0.00000   0.00000   0.00000   0.00000
  13        9PX        -0.10815   0.00000   0.00000   0.00000   0.00000
  14        9PY         0.00000   0.00000   0.00000   0.00000   0.00000
  15        9PZ         0.00000   0.00000   0.00000   0.00000   0.00000
  16       10PX         1.93426   0.00000   0.00000   0.00000   0.00000
  17       10PY         0.00000   0.00000   0.00000   0.00000   0.00000
  18       10PZ         0.00000   0.00000   0.00000   0.00000   0.00000
  19       11PX        -0.86484   0.00000   0.00000   0.00000   0.00000
  20       11PY         0.00000   0.00000   0.00000   0.00000   0.00000
  21       11PZ         0.00000   0.00000   0.00000   0.00000   0.00000
  22       12D 0        0.00000   0.00000   0.22403   0.00000   0.00000
  23       12D+1        0.00000   0.00000   0.00000   0.00000   0.25701
  24       12D-1        0.00000   0.25869   0.00000   0.00000   0.00000
  25       12D+2        0.00000   0.00000   0.12935   0.00000   0.00000
  26       12D-2        0.00000   0.00000   0.00000   0.25701   0.00000
  27       13D 0        0.00000   0.00000   0.96719   0.00000   0.00000
  28       13D+1        0.00000   0.00000   0.00000   0.00000   1.12085
  29       13D-1        0.00000   1.11681   0.00000   0.00000   0.00000
  30       13D+2        0.00000   0.00000   0.55841   0.00000   0.00000
  31       13D-2        0.00000   0.00000   0.00000   1.12085   0.00000
  32       14D 0        0.00000   0.00000  -0.84041   0.00000   0.00000
  33       14D+1        0.00000   0.00000   0.00000   0.00000  -0.96169
  34       14D-1        0.00000  -0.97042   0.00000   0.00000   0.00000
  35       14D+2        0.00000   0.00000  -0.48521   0.00000   0.00000
  36       14D-2        0.00000   0.00000   0.00000  -0.96169   0.00000
  37       15F 0        0.00000   0.00000   0.00000   0.00000   0.00000
  38       15F+1       -0.00069   0.00000   0.00000   0.00000   0.00000
  39       15F-1        0.00000   0.00000   0.00000   0.00000   0.00000
  40       15F+2        0.00000   0.00000   0.00000   0.00000   0.00000
  41       15F-2        0.00000   0.00000   0.00000   0.00000   0.00000
  42       15F+3        0.00089   0.00000   0.00000   0.00000   0.00000
  43       15F-3        0.00000   0.00000   0.00000   0.00000   0.00000
  44       16F 0        0.00000   0.00000   0.00000   0.00000   0.00000
  45       16F+1       -0.00206   0.00000   0.00000   0.00000   0.00000
  46       16F-1        0.00000   0.00000   0.00000   0.00000   0.00000
  47       16F+2        0.00000   0.00000   0.00000   0.00000   0.00000
  48       16F-2        0.00000   0.00000   0.00000   0.00000   0.00000
  49       16F+3        0.00266   0.00000   0.00000   0.00000   0.00000
  50       16F-3        0.00000   0.00000   0.00000   0.00000   0.00000
                          26        27        28        29        30
                           V         V         V         V     (A2U)--V
     Eigenvalues --     0.71087   0.71933   0.97603   0.97603   0.97611
   1 1   Cl 1S         -0.02163  -0.10894   0.00000   0.00000   0.00000
   2        2S         -0.04765  -0.20438   0.00000   0.00000   0.00000
   3        3S         -0.42777  -2.08755   0.00000   0.00000   0.00000
   4        4S         -0.03687  -0.19620   0.00000   0.00000   0.00000
   5        5S          0.71904   3.44975   0.00000   0.00000   0.00000
   6        6S         -0.30736  -1.47999   0.00000   0.00000   0.00000
   7        7PX         0.00000   0.00000   0.00000   0.00000   0.00000
   8        7PY         0.00000   0.00000  -0.00053   0.00000   0.00000
   9        7PZ         0.00000   0.00000   0.00000  -0.00053   0.00000
  10        8PX         0.00000   0.00000   0.00000   0.00000   0.00000
  11        8PY         0.00000   0.00000   0.00753   0.00000   0.00000
  12        8PZ         0.00000   0.00000   0.00000   0.00753   0.00000
  13        9PX         0.00000   0.00000   0.00000   0.00000   0.00000
  14        9PY         0.00000   0.00000  -0.00041   0.00000   0.00000
  15        9PZ         0.00000   0.00000   0.00000  -0.00041   0.00000
  16       10PX         0.00000   0.00000   0.00000   0.00000   0.00000
  17       10PY         0.00000   0.00000  -0.01052   0.00000   0.00000
  18       10PZ         0.00000   0.00000   0.00000  -0.01052   0.00000
  19       11PX         0.00000   0.00000   0.00000   0.00000   0.00000
  20       11PY         0.00000   0.00000   0.00378   0.00000   0.00000
  21       11PZ         0.00000   0.00000   0.00000   0.00378   0.00000
  22       12D 0       -0.12555   0.02586   0.00000   0.00000   0.00000
  23       12D+1        0.00000   0.00000   0.00000   0.00000   0.00000
  24       12D-1        0.00000   0.00000   0.00000   0.00000   0.00000
  25       12D+2        0.21745  -0.04480   0.00000   0.00000   0.00000
  26       12D-2        0.00000   0.00000   0.00000   0.00000   0.00000
  27       13D 0       -0.54963   0.11384   0.00000   0.00000   0.00000
  28       13D+1        0.00000   0.00000   0.00000   0.00000   0.00000
  29       13D-1        0.00000   0.00000   0.00000   0.00000   0.00000
  30       13D+2        0.95199  -0.19718   0.00000   0.00000   0.00000
  31       13D-2        0.00000   0.00000   0.00000   0.00000   0.00000
  32       14D 0        0.46871  -0.09570   0.00000   0.00000   0.00000
  33       14D+1        0.00000   0.00000   0.00000   0.00000   0.00000
  34       14D-1        0.00000   0.00000   0.00000   0.00000   0.00000
  35       14D+2       -0.81183   0.16576   0.00000   0.00000   0.00000
  36       14D-2        0.00000   0.00000   0.00000   0.00000   0.00000
  37       15F 0        0.00000   0.00000   0.00000   0.09597   0.00000
  38       15F+1        0.00000   0.00000   0.00000   0.00000   0.00000
  39       15F-1        0.00000   0.00000   0.03918   0.00000   0.00000
  40       15F+2        0.00000   0.00000   0.00000  -0.12389   0.00000
  41       15F-2        0.00000   0.00000   0.00000   0.00000  -0.15527
  42       15F+3        0.00000   0.00000   0.00000   0.00000   0.00000
  43       15F-3        0.00000   0.00000  -0.15174   0.00000   0.00000
  44       16F 0        0.00000   0.00000   0.00000  -0.67507   0.00000
  45       16F+1        0.00000   0.00000   0.00000   0.00000   0.00000
  46       16F-1        0.00000   0.00000  -0.27559   0.00000   0.00000
  47       16F+2        0.00000   0.00000   0.00000   0.87151   0.00000
  48       16F-2        0.00000   0.00000   0.00000   0.00000   1.10151
  49       16F+3        0.00000   0.00000   0.00000   0.00000   0.00000
  50       16F-3        0.00000   0.00000   1.06737   0.00000   0.00000
                          31        32        33        34        35
                           V         V         V         V     (T2G)--V
     Eigenvalues --     0.97611   0.97817   0.97964   0.97964   2.14864
   1 1   Cl 1S          0.00000   0.00000   0.00000   0.00000   0.00000
   2        2S          0.00000   0.00000   0.00000   0.00000   0.00000
   3        3S          0.00000   0.00000   0.00000   0.00000   0.00000
   4        4S          0.00000   0.00000   0.00000   0.00000   0.00000
   5        5S          0.00000   0.00000   0.00000   0.00000   0.00000
   6        6S          0.00000   0.00000   0.00000   0.00000   0.00000
   7        7PX         0.00000  -0.00166   0.00000   0.00000   0.00000
   8        7PY         0.00000   0.00000   0.00000  -0.00000   0.00000
   9        7PZ         0.00000   0.00000   0.00000   0.00000   0.00000
  10        8PX        -0.00000   0.00532   0.00000   0.00000   0.00000
  11        8PY         0.00000   0.00000   0.00000  -0.00000   0.00000
  12        8PZ         0.00000   0.00000   0.00000   0.00000   0.00000
  13        9PX        -0.00000   0.00209   0.00000   0.00000   0.00000
  14        9PY         0.00000   0.00000   0.00000   0.00000   0.00000
  15        9PZ         0.00000   0.00000  -0.00000   0.00000   0.00000
  16       10PX         0.00000  -0.00591   0.00000   0.00000   0.00000
  17       10PY         0.00000   0.00000   0.00000   0.00000   0.00000
  18       10PZ         0.00000   0.00000  -0.00000   0.00000   0.00000
  19       11PX        -0.00000   0.00238   0.00000   0.00000   0.00000
  20       11PY         0.00000   0.00000   0.00000  -0.00000   0.00000
  21       11PZ         0.00000   0.00000   0.00000   0.00000   0.00000
  22       12D 0        0.00000   0.00000   0.00000   0.00000   0.00000
  23       12D+1        0.00000   0.00000   0.00000   0.00000   0.00000
  24       12D-1        0.00000   0.00000   0.00000   0.00000   0.00000
  25       12D+2        0.00000   0.00000   0.00000   0.00000   0.00000
  26       12D-2        0.00000   0.00000   0.00000   0.00000  -1.30012
  27       13D 0        0.00000   0.00000   0.00000   0.00000   0.00000
  28       13D+1        0.00000   0.00000   0.00000   0.00000   0.00000
  29       13D-1        0.00000   0.00000   0.00000   0.00000   0.00000
  30       13D+2        0.00000   0.00000   0.00000   0.00000   0.00000
  31       13D-2        0.00000   0.00000   0.00000   0.00000   1.41796
  32       14D 0        0.00000   0.00000   0.00000   0.00000   0.00000
  33       14D+1        0.00000   0.00000   0.00000   0.00000   0.00000
  34       14D-1        0.00000   0.00000   0.00000   0.00000   0.00000
  35       14D+2        0.00000   0.00000   0.00000   0.00000   0.00000
  36       14D-2        0.00000   0.00000   0.00000   0.00000  -0.61677
  37       15F 0        0.00000   0.00000  -0.12181   0.00000   0.00000
  38       15F+1       -0.12275   0.09644   0.00000   0.00000   0.00000
  39       15F-1        0.00000   0.00000   0.00000  -0.14919   0.00000
  40       15F+2        0.00000   0.00000  -0.09436   0.00000   0.00000
  41       15F-2        0.00000   0.00000   0.00000   0.00000   0.00000
  42       15F+3       -0.09508  -0.12450   0.00000   0.00000   0.00000
  43       15F-3        0.00000   0.00000   0.00000  -0.03852   0.00000
  44       16F 0        0.00000   0.00000   0.87024   0.00000   0.00000
  45       16F+1        0.87082  -0.67536   0.00000   0.00000   0.00000
  46       16F-1        0.00000   0.00000   0.00000   1.06583   0.00000
  47       16F+2        0.00000   0.00000   0.67409   0.00000   0.00000
  48       16F-2        0.00000   0.00000   0.00000   0.00000   0.00000
  49       16F+3        0.67453   0.87188   0.00000   0.00000   0.00000
  50       16F-3        0.00000   0.00000   0.00000   0.27519   0.00000
                          36        37        38        39        40
                       (T2G)--V  (T2G)--V   (EG)--V   (EG)--V  (T1U)--V
     Eigenvalues --     2.14864   2.15032   2.15032   2.15212   2.28124
   1 1   Cl 1S          0.00000   0.00000  -0.00000  -0.00029   0.00000
   2        2S          0.00000   0.00000   0.00000   0.00544   0.00000
   3        3S          0.00000   0.00000   0.00000   0.00391   0.00000
   4        4S          0.00000   0.00000  -0.00000  -0.00622   0.00000
   5        5S          0.00000   0.00000  -0.00000  -0.00418   0.00000
   6        6S          0.00000   0.00000   0.00000   0.00150   0.00000
   7        7PX         0.00000   0.00000   0.00000   0.00000   0.00000
   8        7PY         0.00000   0.00000   0.00000   0.00000   0.00000
   9        7PZ         0.00000   0.00000   0.00000   0.00000   0.64027
  10        8PX         0.00000   0.00000   0.00000   0.00000   0.00000
  11        8PY         0.00000   0.00000   0.00000   0.00000   0.00000
  12        8PZ         0.00000   0.00000   0.00000   0.00000   2.24843
  13        9PX         0.00000   0.00000   0.00000   0.00000   0.00000
  14        9PY         0.00000   0.00000   0.00000   0.00000   0.00000
  15        9PZ         0.00000   0.00000   0.00000   0.00000  -1.97962
  16       10PX         0.00000   0.00000   0.00000   0.00000   0.00000
  17       10PY         0.00000   0.00000   0.00000   0.00000   0.00000
  18       10PZ         0.00000   0.00000   0.00000   0.00000  -1.17068
  19       11PX         0.00000   0.00000   0.00000   0.00000   0.00000
  20       11PY         0.00000   0.00000   0.00000   0.00000   0.00000
  21       11PZ         0.00000   0.00000   0.00000   0.00000   0.36112
  22       12D 0        0.00000   0.00000  -1.12517   0.65025   0.00000
[...]
  46       16F-1       -0.00000   0.00000   0.00000   0.00000   0.00000
  47       16F+2        0.00000   0.00000   0.00000   0.00000   0.00000
  48       16F-2        0.00000   0.00000   0.00000   0.00000   0.00000
  49       16F+3        0.00000   0.00000   0.00000   0.00000   0.00000
  50       16F-3        0.00000   0.00000   0.00000   0.00000   0.00000
                          26        27        28        29        30
  26       12D-2        0.00000
  27       13D 0       -0.00000   0.00012
  28       13D+1        0.00000  -0.00000   0.00000
  29       13D-1        0.00000  -0.00000   0.00000   0.00000
  30       13D+2       -0.00000   0.00000   0.00000   0.00000   0.00037
  31       13D-2        0.00000  -0.00000   0.00000   0.00000  -0.00000
  32       14D 0       -0.00000   0.00000  -0.00000  -0.00000  -0.00000
  33       14D+1        0.00000   0.00000   0.00000   0.00000   0.00000
  34       14D-1        0.00000  -0.00000   0.00000   0.00000   0.00000
  35       14D+2        0.00000  -0.00000  -0.00000  -0.00000   0.00001
  36       14D-2        0.00000  -0.00000   0.00000   0.00000  -0.00000
  37       15F 0        0.00000   0.00000   0.00000   0.00000   0.00000
  38       15F+1        0.00000   0.00000   0.00000   0.00000   0.00000
  39       15F-1        0.00000   0.00000   0.00000   0.00000   0.00000
  40       15F+2        0.00000   0.00000   0.00000   0.00000   0.00000
  41       15F-2        0.00000   0.00000   0.00000   0.00000   0.00000
  42       15F+3        0.00000   0.00000   0.00000   0.00000   0.00000
  43       15F-3        0.00000   0.00000   0.00000   0.00000   0.00000
  44       16F 0        0.00000   0.00000   0.00000   0.00000   0.00000
  45       16F+1        0.00000   0.00000   0.00000   0.00000   0.00000
  46       16F-1        0.00000   0.00000   0.00000   0.00000   0.00000
  47       16F+2        0.00000   0.00000   0.00000   0.00000   0.00000
  48       16F-2        0.00000   0.00000   0.00000   0.00000   0.00000
  49       16F+3        0.00000   0.00000   0.00000   0.00000   0.00000
  50       16F-3        0.00000   0.00000   0.00000   0.00000   0.00000
                          31        32        33        34        35
  31       13D-2        0.00000
  32       14D 0       -0.00000   0.00000
  33       14D+1        0.00000  -0.00000   0.00000
  34       14D-1        0.00000  -0.00000   0.00000  -0.00000
  35       14D+2        0.00000   0.00000  -0.00000  -0.00000   0.00000
  36       14D-2        0.00000  -0.00000   0.00000   0.00000  -0.00000
  37       15F 0        0.00000   0.00000   0.00000   0.00000   0.00000
  38       15F+1        0.00000   0.00000   0.00000   0.00000   0.00000
  39       15F-1        0.00000   0.00000   0.00000   0.00000   0.00000
  40       15F+2        0.00000   0.00000   0.00000   0.00000   0.00000
  41       15F-2        0.00000   0.00000   0.00000   0.00000   0.00000
  42       15F+3        0.00000   0.00000   0.00000   0.00000   0.00000
  43       15F-3        0.00000   0.00000   0.00000   0.00000   0.00000
  44       16F 0        0.00000   0.00000   0.00000   0.00000   0.00000
  45       16F+1        0.00000   0.00000   0.00000   0.00000   0.00000
  46       16F-1        0.00000   0.00000   0.00000   0.00000   0.00000
  47       16F+2        0.00000   0.00000   0.00000   0.00000   0.00000
  48       16F-2        0.00000   0.00000   0.00000   0.00000   0.00000
  49       16F+3        0.00000   0.00000   0.00000   0.00000   0.00000
  50       16F-3        0.00000   0.00000   0.00000   0.00000   0.00000
                          36        37        38        39        40
  36       14D-2        0.00000
  37       15F 0        0.00000   0.00003
  38       15F+1        0.00000  -0.00000   0.00005
  39       15F-1        0.00000  -0.00000   0.00000   0.00001
  40       15F+2        0.00000   0.00000   0.00000  -0.00000   0.00006
  41       15F-2        0.00000   0.00000   0.00000   0.00000   0.00000
  42       15F+3        0.00000   0.00000  -0.00000  -0.00000   0.00000
  43       15F-3        0.00000  -0.00000  -0.00000   0.00000  -0.00000
  44       16F 0        0.00000   0.00002  -0.00000  -0.00000   0.00000
  45       16F+1        0.00000  -0.00000   0.00002  -0.00000  -0.00000
  46       16F-1        0.00000   0.00000  -0.00000   0.00000  -0.00000
  47       16F+2        0.00000   0.00000  -0.00000   0.00000   0.00003
  48       16F-2        0.00000   0.00000  -0.00000  -0.00000  -0.00000
  49       16F+3        0.00000  -0.00000  -0.00000   0.00000   0.00000
  50       16F-3        0.00000   0.00000  -0.00000   0.00000  -0.00000
                          41        42        43        44        45
  41       15F-2        0.00000
  42       15F+3       -0.00000   0.00009
  43       15F-3        0.00000   0.00000   0.00009
  44       16F 0        0.00000  -0.00000   0.00000   0.00002
  45       16F+1       -0.00000  -0.00000  -0.00000  -0.00000   0.00002
  46       16F-1        0.00000   0.00000   0.00000   0.00000  -0.00000
  47       16F+2       -0.00000  -0.00000  -0.00000   0.00000  -0.00000
  48       16F-2        0.00000   0.00000  -0.00000   0.00000  -0.00000
  49       16F+3       -0.00000   0.00004   0.00000   0.00000  -0.00000
  50       16F-3       -0.00000  -0.00000   0.00004  -0.00000  -0.00000
                          46        47        48        49        50
  46       16F-1        0.00000
  47       16F+2       -0.00000   0.00003
  48       16F-2        0.00000  -0.00000   0.00000
  49       16F+3        0.00000   0.00000  -0.00000   0.00004
  50       16F-3        0.00000   0.00000  -0.00000  -0.00000   0.00005
     Gross orbital populations:
                         Total     Alpha     Beta      Spin
   1 1   Cl 1S          2.00000   1.00000   1.00000  -0.00000
   2        2S          1.87142   0.93585   0.93557   0.00029
   3        3S          1.19024   0.60375   0.58649   0.01725
   4        4S          0.25801   0.12732   0.13069  -0.00337
   5        5S          0.67061   0.32938   0.34123  -0.01184
   6        6S          0.00831   0.00249   0.00582  -0.00334
   7        7PX         1.94653   0.97906   0.96747   0.01158
   8        7PY         1.95821   0.97918   0.97903   0.00015
   9        7PZ         1.95821   0.97918   0.97903   0.00015
  10        8PX         0.54392   0.54544  -0.00153   0.54697
  11        8PY         1.02655   0.51841   0.50814   0.01027
  12        8PZ         1.02655   0.51841   0.50814   0.01027
  13        9PX         0.25909   0.22523   0.03386   0.19138
  14        9PY         0.43815   0.21998   0.21816   0.00182
  15        9PZ         0.43815   0.21998   0.21816   0.00182
  16       10PX         0.24644   0.24623   0.00021   0.24601
  17       10PY         0.55682   0.27320   0.28362  -0.01042
  18       10PZ         0.55682   0.27320   0.28362  -0.01042
  19       11PX         0.00370   0.00371  -0.00002   0.00373
  20       11PY         0.02004   0.00899   0.01105  -0.00206
  21       11PZ         0.02004   0.00899   0.01105  -0.00206
  22       12D 0        0.00016   0.00014   0.00002   0.00011
  23       12D+1        0.00000   0.00000   0.00000   0.00000
  24       12D-1       -0.00000  -0.00000  -0.00000  -0.00000
  25       12D+2        0.00047   0.00041   0.00007   0.00034
  26       12D-2        0.00000   0.00000   0.00000   0.00000
  27       13D 0        0.00019   0.00017   0.00003   0.00014
  28       13D+1        0.00000   0.00000   0.00000   0.00000
  29       13D-1        0.00000   0.00000   0.00000   0.00000
  30       13D+2        0.00057   0.00050   0.00008   0.00042
  31       13D-2        0.00000   0.00000   0.00000   0.00000
  32       14D 0        0.00000   0.00000   0.00000  -0.00000
  33       14D+1        0.00000   0.00000   0.00000  -0.00000
  34       14D-1       -0.00000   0.00000  -0.00000   0.00000
  35       14D+2        0.00001   0.00000   0.00001  -0.00001
  36       14D-2        0.00000   0.00000   0.00000  -0.00000
  37       15F 0        0.00005   0.00005   0.00000   0.00005
  38       15F+1        0.00008   0.00008   0.00000   0.00008
  39       15F-1        0.00001   0.00001   0.00000   0.00001
  40       15F+2        0.00009   0.00009   0.00000   0.00009
  41       15F-2        0.00000   0.00000   0.00000   0.00000
  42       15F+3        0.00013   0.00013   0.00000   0.00013
  43       15F-3        0.00013   0.00013   0.00000   0.00013
  44       16F 0        0.00004   0.00004  -0.00000   0.00004
  45       16F+1        0.00005   0.00005   0.00000   0.00005
  46       16F-1        0.00001   0.00001  -0.00000   0.00001
  47       16F+2        0.00006   0.00006  -0.00000   0.00006
  48       16F-2        0.00000   0.00000  -0.00000   0.00000
  49       16F+3        0.00008   0.00008   0.00000   0.00008
  50       16F-3        0.00009   0.00009  -0.00000   0.00009
          Condensed to atoms (all electrons):
               1
     1  Cl  17.000000
          Atomic-Atomic Spin Densities.
               1
     1  Cl   1.000000
 Mulliken charges and spin densities:
               1          2
     1  Cl  -0.000000   1.000000
 Sum of Mulliken charges =  -0.00000   1.00000
 Mulliken charges and spin densities with hydrogens summed into heavy atoms:
               1          2
     1  Cl  -0.000000   1.000000
 Electronic spatial extent (au):  <R**2>=             27.7824
 Charge=             -0.0000 electrons
 Dipole moment (field-independent basis, Debye):
    X=              0.0000    Y=              0.0000    Z=              0.0000  Tot=              0.0000
 Quadrupole moment (field-independent basis, Debye-Ang):
   XX=            -11.0434   YY=            -13.1624   ZZ=            -13.1624
   XY=              0.0000   XZ=             -0.0000   YZ=             -0.0000
 Traceless Quadrupole moment (field-independent basis, Debye-Ang):
   XX=              1.4127   YY=             -0.7063   ZZ=             -0.7063
   XY=              0.0000   XZ=             -0.0000   YZ=             -0.0000
 Octapole moment (field-independent basis, Debye-Ang**2):
  XXX=              0.0000  YYY=              0.0000  ZZZ=              0.0000  XYY=              0.0000
  XXY=              0.0000  XXZ=              0.0000  XZZ=              0.0000  YZZ=              0.0000
  YYZ=              0.0000  XYZ=              0.0000
 Hexadecapole moment (field-independent basis, Debye-Ang**3):
 XXXX=            -11.3114 YYYY=            -16.0284 ZZZZ=            -16.0284 XXXY=              0.0000
 XXXZ=             -0.0000 YYYX=              0.0000 YYYZ=              0.0000 ZZZX=             -0.0000
 ZZZY=             -0.0000 XXYY=             -4.5590 XXZZ=             -4.5590 YYZZ=             -5.3428
 XXYZ=              0.0000 YYXZ=             -0.0000 ZZXY=              0.0000
 N-N= 0.000000000000D+00 E-N=-1.093809186177D+03  KE= 4.589243978270D+02
 Symmetry AG   KE= 3.237412089466D+02
 Symmetry B1G  KE= 1.638156477286D-35
 Symmetry B2G  KE= 1.638156477286D-35
 Symmetry B3G  KE=-3.905550231418D-52
 Symmetry AU   KE= 5.124254083115D-36
 Symmetry B1U  KE= 4.583451890358D+01
 Symmetry B2U  KE= 4.583451890358D+01
 Symmetry B3U  KE= 4.351415107326D+01
 Symmetry AG   SP= 1.372264474328D-14
 Symmetry B1G  SP= 5.666649657463D-36
 Symmetry B2G  SP= 5.666649657462D-36
 Symmetry B3G  SP=-5.682512422737D-53
 Symmetry AU   SP= 2.200362264287D-36
 Symmetry B1U  SP=-2.377585653058D-15
 Symmetry B2U  SP= 4.860974024496D-15
 Symmetry B3U  SP= 1.000000000000D+00
 Orbital energies and kinetic energies (alpha):
                                 1                 2
   1         (A1G)--O       -101.614382        137.092786
   2         (A1G)--O         -9.516112         21.461049
   3         (T1U)--O         -7.290378         20.510277
   4         (T1U)--O         -7.267532         20.532038
   5         (T1U)--O         -7.267532         20.532038
   6         O                -0.851073          3.327602
   7         O                -0.413300          2.493680
   8         O                -0.358640          2.401682
   9         O                -0.358640          2.401682
  10         V                 0.035245          0.497128
  11         V                 0.057435          0.308213
  12         V                 0.061810          0.320310
  13         V                 0.061810          0.320310
  14         V                 0.193689          0.645014
  15         V                 0.198322          0.632766
  16         V                 0.198322          0.632766
  17         V                 0.215592          0.602626
  18         V                 0.215592          0.602626
  19         V                 0.445691          1.622388
  20         V                 0.468411          1.668589
  21         V                 0.468411          1.668589
  22         V                 0.656997          1.688111
  23         V                 0.665576          1.694053
  24         V                 0.665576          1.694053
  25         V                 0.695587          1.711480
  26         V                 0.695587          1.711480
  27         V                 0.701870          3.041304
  28         V                 0.949338          1.323029
  29         V                 0.952798          1.322309
  30         V                 0.952798          1.322309
  31         V                 0.962664          1.320556
  32         (A2U)--V          0.962664          1.320556
  33         V                 0.980154          1.318413
  34         V                 0.980154          1.318413
  35         V                 2.103295          4.227232
  36         (T2G)--V          2.113562          4.231948
  37         (T2G)--V          2.113562          4.231948
  38         (T2G)--V          2.146790          4.244660
  39         V                 2.146790          4.244660
  40         V                 2.230562          8.505079
  41         V                 2.272920          8.517154
  42         V                 2.272920          8.517154
  43         V                 2.645231          3.896144
  44         V                 2.651231          3.896727
  45         V                 2.651231          3.896727
  46         V                 2.668925          3.898424
  47         (A2U)--V          2.668925          3.898424
  48         V                 2.699560          3.900567
  49         V                 2.699560          3.900567
  50         (A1G)--V          4.570973         14.616241
 Orbital energies and kinetic energies (beta):
                                 1                 2
   1         (A1G)--O       -101.607633        137.096562
   2         (A1G)--O         -9.509525         21.464916
   3         (T1U)--O         -7.268202         20.510194
   4         (T1U)--O         -7.263636         20.532977
   5         (T1U)--O         -7.263636         20.532977
   6         O                -0.797576          3.298293
   7         O                -0.343674          2.367822
   8         O                -0.343674          2.367822
   9         V                -0.248942          2.213117
  10         V                 0.039166          0.495709
  11         V                 0.062344          0.328169
  12         V                 0.062344          0.328169
  13         V                 0.064952          0.372006
  14         V                 0.216394          0.597277
  15         V                 0.216394          0.597277
  16         V                 0.217181          0.586234
  17         V                 0.217181          0.586234
  18         V                 0.221505          0.580791
  19         V                 0.472732          1.686310
  20         V                 0.472732          1.686310
  21         V                 0.477760          1.763837
  22         V                 0.699604          1.714172
  23         V                 0.699604          1.714172
  24         V                 0.703863          1.718933
  25         V                 0.703863          1.718933
  26         V                 0.710868          1.765359
  27         V                 0.719327          3.027236
  28         V                 0.976029          1.317221
  29         V                 0.976029          1.317221
  30         (A2U)--V          0.976112          1.317728
  31         V                 0.976112          1.317728
  32         V                 0.978169          1.317020
  33         V                 0.979645          1.318147
  34         V                 0.979645          1.318147
  35         (T2G)--V          2.148636          4.253600
  36         (T2G)--V          2.148636          4.253600
  37         (T2G)--V          2.150325          4.247317
  38         (EG)--V           2.150325          4.247317
  39         (EG)--V           2.152123          4.256458
  40         (T1U)--V          2.281240          8.524477
  41         (T1U)--V          2.281240          8.524477
  42         (T1U)--V          2.283423          8.580592
  43         (A2U)--V          2.699617          3.901252
  44         V                 2.699617          3.901252
  45         V                 2.700881          3.900833
  46         V                 2.700881          3.900833
  47         V                 2.702869          3.901834
  48         V                 2.702869          3.901834
  49         V                 2.706924          3.902044
  50         (A1G)--V          4.588030         14.611144
 Total kinetic energy from orbitals= 4.589243978270D+02
                          Isotropic Fermi Contact Couplings
        Atom                 a.u.       MegaHertz       Gauss      10(-4) cm-1
     1  Cl(35)             0.09330      40.90883      14.59729      13.64572
 --------------------------------------------------------
       Center         ----  Spin Dipole Couplings  ----
                      3XX-RR        3YY-RR        3ZZ-RR
 --------------------------------------------------------
     1   Atom        5.881708     -2.940854     -2.940854
 --------------------------------------------------------
                        XY            XZ            YZ
 --------------------------------------------------------
     1   Atom        0.000000      0.000000      0.000000
 --------------------------------------------------------


 ---------------------------------------------------------------------------------
              Anisotropic Spin Dipole Couplings in Principal Axis System
 ---------------------------------------------------------------------------------

       Atom             a.u.   MegaHertz   Gauss  10(-4) cm-1        Axes

              Baa    -2.9409  -153.917   -54.922   -51.341  0.0000  0.0000  1.0000
     1 Cl(35) Bbb    -2.9409  -153.917   -54.922   -51.341 -0.0000  1.0000  0.0000
              Bcc     5.8817   307.835   109.843   102.683  1.0000  0.0000  0.0000
 

 ---------------------------------------------------------------------------------

 1\1\GINC-LOGIN\SP\UB3LYP\Aug-CC-pVTZ\Cl1(2)\C7441090\20-Nov-2023\0\\# 
 B3LYP/aug-cc-pVTZ EmpiricalDispersion=GD3 Pop=Full\\Chlorine\\0,2\Cl,0
 ,0.,0.,0.\\Version=ES64L-G16RevA.03\HF=-460.1753308\S2=0.753237\S2-1=0
 .\S2A=0.750004\RMSD=2.885e-09\Dipole=0.,0.,0.\Quadrupole=-0.5251473,-0
 .5251473,1.0502946,0.,0.,0.\PG=OH [O(Cl1)]\\@


 SATCHEL PAIGE'S GUIDE TO LONGEVITY

    1.  AVOID FRIED MEATS, WHICH ANGRY UP THE BLOOD.

    2.  IF YOUR STOMACH DISPUTES YOU, LIE DOWN AND PACIFY IT WITH COOL
        THOUGHTS.

    3.  KEEP THE JUICES FLOWING BY JANGLING AROUND GENTLY AS YOU MOVE.

    4.  GO VERY LIGHT ON THE VICES, SUCH AS CARRYING ON IN SOCIETY.
        THE SOCIAL RUMBLE AIN'T RESTFUL.

    5.  AVOID RUNNING AT ALL TIMES.

    6.  DON'T LOOK BACK.  SOMETHING MAY BE GAINING ON YOU.
 Job cpu time:       0 days  0 hours  0 minutes 10.0 seconds.
 Elapsed time:       0 days  0 hours  0 minutes  3.8 seconds.
 File lengths (MBytes):  RWF=      5 Int=      0 D2E=      0 Chk=      1 Scr=      1
 Normal termination of Gaussian 16 at Mon Nov 20 23:51:19 2023.
