Fluorine                                                                
SP        UB3LYP                                                      Aug-CC-pVTZ         
Number of atoms                            I                1
Info1-9                                    I   N=           9
          12          11           0           0           0         110
           1          18        -502
Full Title                                 C   N=           1
Fluorine    
Route                                      C   N=           5
# B3LYP/aug-cc-pVTZ EmpiricalDispersion=GD3 Pop=Full        
Charge                                     I                0
Multiplicity                               I                2
Number of electrons                        I                9
Number of alpha electrons                  I                5
Number of beta electrons                   I                4
Number of basis functions                  I               46
Number of independent functions            I               46
Number of point charges in /Mol/           I                0
Number of translation vectors              I                0
Atomic numbers                             I   N=           1
           9
Nuclear charges                            R   N=           1
  9.00000000E+00
Current cartesian coordinates              R   N=           3
  0.00000000E+00  0.00000000E+00  0.00000000E+00
Number of symbols in /Mol/                 I                0
Force Field                                I                0
Atom Types                                 C   N=           1
            
Int Atom Types                             I   N=           1
           0
MM charges                                 R   N=           1
  0.00000000E+00
Integer atomic weights                     I   N=           1
          19
Real atomic weights                        R   N=           1
  1.89984032E+01
Atom fragment info                         I   N=           1
           0
Atom residue num                           I   N=           1
           0
Nuclear spins                              I   N=           1
           1
Nuclear ZEff                               R   N=           1
 -6.75000000E+00
Nuclear ZNuc                               R   N=           1
  9.00000000E+00
Nuclear QMom                               R   N=           1
  0.00000000E+00
Nuclear GFac                               R   N=           1
  2.62886700E+00
MicOpt                                     I   N=           1
          -1
Number of residues                         I                0
Number of secondary structures             I                0
SymInf integers                            I   N=          26
           1           8           1           1           1           1
          -1          -1          -1           1          -1          -1
          -1           1          -1          -1          -1          -1
           1           1           1          -1           1           1
           1          -1
RotTr to input orientation                 R   N=          12
  0.00000000E+00  0.00000000E+00 -1.00000000E+00  0.00000000E+00  1.00000000E+00
  0.00000000E+00  1.00000000E+00  0.00000000E+00  0.00000000E+00  0.00000000E+00
  0.00000000E+00  0.00000000E+00
Number of contracted shells                I               14
Number of primitive shells                 I               27
Pure/Cartesian d shells                    I                0
Pure/Cartesian f shells                    I                0
Highest angular momentum                   I                3
Largest degree of contraction              I                7
Shell types                                I   N=          14
           0           0           0           0           0           1
           1           1           1          -2          -2          -2
          -3          -3
Number of primitives per shell             I   N=          14
           7           6           1           1           1           3
           1           1           1           1           1           1
           1           1
Shell to atom map                          I   N=          14
           1           1           1           1           1           1
           1           1           1           1           1           1
           1           1
Primitive exponents                        R   N=          27
  1.95000000E+04  2.92300000E+03  6.64500000E+02  1.87500000E+02  6.06200000E+01
  2.14200000E+01  7.95000000E+00  6.64500000E+02  1.87500000E+02  6.06200000E+01
  2.14200000E+01  7.95000000E+00  8.81500000E-01  2.25700000E+00  3.04100000E-01
  9.15800000E-02  4.38800000E+01  9.92600000E+00  2.93000000E+00  9.13200000E-01
  2.67200000E-01  7.36100000E-02  3.10700000E+00  8.55000000E-01  2.92000000E-01
  1.91700000E+00  7.24000000E-01
Contraction coefficients                   R   N=          27
  5.19002444E-04  4.01578135E-03  2.06774611E-02  8.08690170E-02  2.35807546E-01
  4.42582306E-01  3.56962867E-01 -3.73598087E-05 -1.27747230E-03 -1.08220140E-02
 -7.00482089E-02 -1.69746608E-01  1.07302661E+00  1.00000000E+00  1.00000000E+00
  1.00000000E+00  4.19046207E-02  2.62697842E-01  7.97759373E-01  1.00000000E+00
  1.00000000E+00  1.00000000E+00  1.00000000E+00  1.00000000E+00  1.00000000E+00
  1.00000000E+00  1.00000000E+00
Coordinates of each shell                  R   N=          42
  0.00000000E+00  0.00000000E+00  0.00000000E+00  0.00000000E+00  0.00000000E+00
  0.00000000E+00  0.00000000E+00  0.00000000E+00  0.00000000E+00  0.00000000E+00
  0.00000000E+00  0.00000000E+00  0.00000000E+00  0.00000000E+00  0.00000000E+00
  0.00000000E+00  0.00000000E+00  0.00000000E+00  0.00000000E+00  0.00000000E+00
  0.00000000E+00  0.00000000E+00  0.00000000E+00  0.00000000E+00  0.00000000E+00
  0.00000000E+00  0.00000000E+00  0.00000000E+00  0.00000000E+00  0.00000000E+00
  0.00000000E+00  0.00000000E+00  0.00000000E+00  0.00000000E+00  0.00000000E+00
  0.00000000E+00  0.00000000E+00  0.00000000E+00  0.00000000E+00  0.00000000E+00
  0.00000000E+00  0.00000000E+00
Num ILSW                                   I              100
ILSW                                       I   N=         100
           1           0           0           0           2           0
           0           0           0           0         402          -1
           5           0           0           0           0           0
           0           0           1           0           0           0
           1           0           0           0           0           0
           0           0      100000           0          -1           0
           0           0           0           0           0           0
           0           0           0           1           0           0
           0 -2000000000           1           0           0           0
           0           1         131          52           0           0
           0           0           5           0           0           0
           0           0           0           0           0           1
           0           0           0           0           0           0
           0           0           0           0           0           0
           0           0           0           0           0           0
           0           0           0           0           0           0
           0           0           0           0
Num RLSW                                   I               52
RLSW                                       R   N=          52
  8.00000000E-01  7.20000000E-01  1.00000000E+00  8.10000000E-01  2.00000000E-01
  0.00000000E+00  0.00000000E+00  1.00000000E+00  0.00000000E+00  0.00000000E+00
  0.00000000E+00  0.00000000E+00  1.00000000E+00  0.00000000E+00  0.00000000E+00
  0.00000000E+00  0.00000000E+00  1.00000000E+00  0.00000000E+00  0.00000000E+00
  0.00000000E+00  0.00000000E+00  1.00000000E+00  0.00000000E+00  0.00000000E+00
  0.00000000E+00  0.00000000E+00  1.00000000E+00  0.00000000E+00  0.00000000E+00
  0.00000000E+00  0.00000000E+00  1.00000000E+00  0.00000000E+00  0.00000000E+00
  0.00000000E+00  0.00000000E+00  0.00000000E+00  1.00000000E+00  1.00000000E+00
  0.00000000E+00  1.00000000E+00  0.00000000E+00  0.00000000E+00  0.00000000E+00
  0.00000000E+00  0.00000000E+00  0.00000000E+00  0.00000000E+00  0.00000000E+00
  0.00000000E+00  0.00000000E+00
MxBond                                     I                1
NBond                                      I   N=           1
           0
IBond                                      I   N=           1
           0
RBond                                      R   N=           1
  0.00000000E+00
Virial Ratio                               R      2.004863118274894E+00
SCF Energy                                 R     -9.976614055697476E+01
Total Energy                               R     -9.976614055697476E+01
S**2                                       R      7.517193693310245E-01
S**2 after annihilation                    R      7.500019089481684E-01
RMS Density                                R      4.590790319312502E-09
Job Status                                 I                1
Nuclear derivative order                   I                0
External E-field                           R   N=          35
  0.00000000E+00  0.00000000E+00  0.00000000E+00  0.00000000E+00  0.00000000E+00
  0.00000000E+00  0.00000000E+00  0.00000000E+00  0.00000000E+00  0.00000000E+00
  0.00000000E+00  0.00000000E+00  0.00000000E+00  0.00000000E+00  0.00000000E+00
  0.00000000E+00  0.00000000E+00  0.00000000E+00  0.00000000E+00  0.00000000E+00
  0.00000000E+00  0.00000000E+00  0.00000000E+00  0.00000000E+00  0.00000000E+00
  0.00000000E+00  0.00000000E+00  0.00000000E+00  0.00000000E+00  0.00000000E+00
  0.00000000E+00  0.00000000E+00  0.00000000E+00  0.00000000E+00  0.00000000E+00
IOpCl                                      I                1
IROHF                                      I                0
Alpha Orbital Energies                     R   N=          46
 -2.47965071E+01 -1.24055952E+00 -5.71030984E-01 -4.83041024E-01 -4.83041024E-01
  8.61757530E-02  1.17639239E-01  1.22771047E-01  1.22771047E-01  6.80391439E-01
  6.85083076E-01  6.85083076E-01  7.01151831E-01  7.01151831E-01  8.52549624E-01
  8.89908026E-01  8.89908026E-01  1.33378881E+00  2.43484640E+00  2.44948731E+00
  2.44948731E+00  2.49667802E+00  2.49667802E+00  2.56864087E+00  2.57369640E+00
  2.57369640E+00  2.58762919E+00  2.58762919E+00  2.61147814E+00  2.61147814E+00
  4.50908523E+00  4.58323982E+00  4.58323982E+00  8.14305226E+00  8.15296750E+00
  8.15296750E+00  8.18184298E+00  8.18184298E+00  8.23100294E+00  8.23100294E+00
  8.50429501E+00  8.52817502E+00  8.52817502E+00  8.59882330E+00  8.59882330E+00
  9.70938569E+00
Beta Orbital Energies                      R   N=          46
 -2.47649310E+01 -1.14910588E+00 -4.51929544E-01 -4.51929544E-01 -2.78080021E-01
  9.22643659E-02  1.24325297E-01  1.24325297E-01  1.33728625E-01  6.99816369E-01
  6.99816369E-01  7.00558207E-01  7.00558216E-01  7.03068640E-01  9.00466933E-01
  9.00466933E-01  9.24170534E-01  1.36990950E+00  2.50435694E+00  2.50435695E+00
  2.50915636E+00  2.50915636E+00  2.52022833E+00  2.60670286E+00  2.60670287E+00
  2.60711301E+00  2.60711301E+00  2.60916982E+00  2.61057866E+00  2.61057866E+00
  4.60808597E+00  4.60808597E+00  4.64655732E+00  8.23326796E+00  8.23326797E+00
  8.23650225E+00  8.23650225E+00  8.23891670E+00  8.23891670E+00  8.24743874E+00
  8.61604980E+00  8.61604981E+00  8.63626417E+00  8.63626417E+00  8.66470530E+00
  9.76308843E+00
Alpha MO coefficients                      R   N=        2116
  9.72759408E-01 -1.18389028E-02  5.12693531E-02  4.01660154E-03 -9.07287465E-04
  0.00000000E+00  0.00000000E+00  0.00000000E+00  0.00000000E+00  0.00000000E+00
  0.00000000E+00  0.00000000E+00  0.00000000E+00  0.00000000E+00  0.00000000E+00
  0.00000000E+00  0.00000000E+00  5.81145531E-04  0.00000000E+00  0.00000000E+00
 -4.01595920E-16  0.00000000E+00 -2.18401209E-04  0.00000000E+00  0.00000000E+00
  2.00778646E-16  0.00000000E+00  8.86340345E-05  0.00000000E+00  0.00000000E+00
 -1.45044128E-17  0.00000000E+00  0.00000000E+00  0.00000000E+00  0.00000000E+00
  0.00000000E+00  0.00000000E+00  0.00000000E+00  0.00000000E+00  0.00000000E+00
  0.00000000E+00  0.00000000E+00  0.00000000E+00  0.00000000E+00  0.00000000E+00
  0.00000000E+00 -2.33652991E-01  5.58719828E-01  1.82270714E-01  3.60430611E-01
  9.89896703E-03  0.00000000E+00  0.00000000E+00  0.00000000E+00  0.00000000E+00
  0.00000000E+00  0.00000000E+00  0.00000000E+00  0.00000000E+00  0.00000000E+00
  0.00000000E+00  0.00000000E+00  0.00000000E+00  6.50494000E-03  0.00000000E+00
  0.00000000E+00 -1.20407677E-16  0.00000000E+00  1.31508894E-02  0.00000000E+00
  0.00000000E+00 -1.73610760E-16  0.00000000E+00  1.48382812E-03  0.00000000E+00
  0.00000000E+00  1.49488356E-16  0.00000000E+00  0.00000000E+00  0.00000000E+00
  0.00000000E+00  0.00000000E+00  0.00000000E+00  0.00000000E+00  0.00000000E+00
  0.00000000E+00  0.00000000E+00  0.00000000E+00  0.00000000E+00  0.00000000E+00
  0.00000000E+00  0.00000000E+00  0.00000000E+00  0.00000000E+00  0.00000000E+00
  0.00000000E+00  0.00000000E+00  0.00000000E+00  0.00000000E+00  4.17732496E-01
  0.00000000E+00  0.00000000E+00  4.86711029E-01  0.00000000E+00  0.00000000E+00
  3.04383221E-01  0.00000000E+00  0.00000000E+00  2.16853812E-02  0.00000000E+00
  0.00000000E+00  0.00000000E+00  0.00000000E+00  0.00000000E+00  0.00000000E+00
  0.00000000E+00  0.00000000E+00  0.00000000E+00  0.00000000E+00  0.00000000E+00
  0.00000000E+00  0.00000000E+00  0.00000000E+00  0.00000000E+00  5.66788839E-03
  0.00000000E+00  0.00000000E+00  1.16402839E-16  0.00000000E+00  0.00000000E+00
  0.00000000E+00  4.72833733E-03  0.00000000E+00  0.00000000E+00 -7.23050397E-17
  0.00000000E+00  0.00000000E+00  0.00000000E+00  0.00000000E+00  0.00000000E+00
  0.00000000E+00  0.00000000E+00  0.00000000E+00  0.00000000E+00  4.08364828E-01
  0.00000000E+00  0.00000000E+00  4.70378636E-01  0.00000000E+00  0.00000000E+00
  3.27547419E-01  0.00000000E+00  0.00000000E+00  3.83573105E-02  0.00000000E+00
  0.00000000E+00  0.00000000E+00  0.00000000E+00  0.00000000E+00  0.00000000E+00
  0.00000000E+00  0.00000000E+00  0.00000000E+00  0.00000000E+00  0.00000000E+00
  0.00000000E+00  0.00000000E+00  0.00000000E+00  0.00000000E+00  0.00000000E+00
  0.00000000E+00  0.00000000E+00  4.54847169E-03  0.00000000E+00  0.00000000E+00
  0.00000000E+00  6.57920753E-12  0.00000000E+00  0.00000000E+00  4.15097063E-03
  0.00000000E+00  0.00000000E+00  0.00000000E+00  9.06847428E-12  0.00000000E+00
  0.00000000E+00  0.00000000E+00  0.00000000E+00  0.00000000E+00  4.08364828E-01
  0.00000000E+00  0.00000000E+00  4.70378636E-01  0.00000000E+00  0.00000000E+00
  3.27547419E-01  0.00000000E+00  0.00000000E+00  3.83573105E-02  0.00000000E+00
  0.00000000E+00  0.00000000E+00  0.00000000E+00  0.00000000E+00  0.00000000E+00
  0.00000000E+00  0.00000000E+00  0.00000000E+00  0.00000000E+00  0.00000000E+00
  0.00000000E+00  0.00000000E+00  0.00000000E+00  0.00000000E+00  0.00000000E+00
  0.00000000E+00  0.00000000E+00  4.54847169E-03  0.00000000E+00  0.00000000E+00
  0.00000000E+00 -6.57924074E-12  0.00000000E+00  0.00000000E+00  4.15097063E-03
  0.00000000E+00  0.00000000E+00  0.00000000E+00 -9.06835883E-12  0.00000000E+00
  7.67555830E-02 -1.11675633E-01 -6.76370259E-02 -7.63204940E-01  1.45441976E+00
  0.00000000E+00  0.00000000E+00  0.00000000E+00  0.00000000E+00  0.00000000E+00
  0.00000000E+00  0.00000000E+00  0.00000000E+00  0.00000000E+00  0.00000000E+00
  0.00000000E+00  0.00000000E+00 -1.81759148E-03  0.00000000E+00  0.00000000E+00
  1.75964976E-16  0.00000000E+00 -3.81101482E-03  0.00000000E+00  0.00000000E+00
 -2.88129345E-16  0.00000000E+00  1.13398715E-02  0.00000000E+00  0.00000000E+00
  8.21364279E-16  0.00000000E+00  0.00000000E+00  0.00000000E+00  0.00000000E+00
  0.00000000E+00  0.00000000E+00  0.00000000E+00  0.00000000E+00  0.00000000E+00
  0.00000000E+00  0.00000000E+00  0.00000000E+00  0.00000000E+00  0.00000000E+00
  0.00000000E+00  0.00000000E+00  0.00000000E+00  0.00000000E+00  0.00000000E+00
  0.00000000E+00  0.00000000E+00  0.00000000E+00 -1.16672967E-01  0.00000000E+00
  0.00000000E+00 -1.04226423E-01  0.00000000E+00  0.00000000E+00 -2.49068946E-01
  0.00000000E+00  0.00000000E+00  1.12072046E+00  0.00000000E+00  0.00000000E+00
  0.00000000E+00  0.00000000E+00  0.00000000E+00  0.00000000E+00  0.00000000E+00
  0.00000000E+00  0.00000000E+00  0.00000000E+00  0.00000000E+00  0.00000000E+00
  0.00000000E+00  0.00000000E+00  0.00000000E+00 -1.66905144E-03  0.00000000E+00
  0.00000000E+00 -2.19334466E-17  0.00000000E+00  0.00000000E+00  0.00000000E+00
  8.86470565E-04  0.00000000E+00  0.00000000E+00  2.03011485E-17  0.00000000E+00
  0.00000000E+00  0.00000000E+00  0.00000000E+00  0.00000000E+00  0.00000000E+00
  0.00000000E+00  0.00000000E+00  0.00000000E+00 -1.22326842E-01  0.00000000E+00
  0.00000000E+00 -1.05708325E-01  0.00000000E+00  0.00000000E+00 -2.83870659E-01
  0.00000000E+00  0.00000000E+00  1.13186792E+00  0.00000000E+00  0.00000000E+00
  0.00000000E+00  0.00000000E+00  0.00000000E+00  0.00000000E+00  0.00000000E+00
  0.00000000E+00  0.00000000E+00  0.00000000E+00  0.00000000E+00  0.00000000E+00
  0.00000000E+00  0.00000000E+00  0.00000000E+00  0.00000000E+00  0.00000000E+00
  0.00000000E+00 -1.43959180E-03  0.00000000E+00  0.00000000E+00  0.00000000E+00
 -1.91277112E-12  0.00000000E+00  0.00000000E+00  5.08378437E-04  0.00000000E+00
  0.00000000E+00  0.00000000E+00  4.22318252E-13  0.00000000E+00  0.00000000E+00
  0.00000000E+00  0.00000000E+00  0.00000000E+00 -1.22326842E-01  0.00000000E+00
  0.00000000E+00 -1.05708325E-01  0.00000000E+00  0.00000000E+00 -2.83870659E-01
  0.00000000E+00  0.00000000E+00  1.13186792E+00  0.00000000E+00  0.00000000E+00
  0.00000000E+00  0.00000000E+00  0.00000000E+00  0.00000000E+00  0.00000000E+00
  0.00000000E+00  0.00000000E+00  0.00000000E+00  0.00000000E+00  0.00000000E+00
  0.00000000E+00  0.00000000E+00  0.00000000E+00  0.00000000E+00  0.00000000E+00
  0.00000000E+00 -1.43959180E-03  0.00000000E+00  0.00000000E+00  0.00000000E+00
  1.91272170E-12  0.00000000E+00  0.00000000E+00  5.08378437E-04  0.00000000E+00
  0.00000000E+00  0.00000000E+00 -4.22121612E-13  0.00000000E+00  2.52824583E-03
 -2.93128000E-02 -7.73365252E-03  4.70828179E-02 -3.15369049E-02  0.00000000E+00
  0.00000000E+00  0.00000000E+00  0.00000000E+00  0.00000000E+00  0.00000000E+00
  0.00000000E+00  0.00000000E+00  0.00000000E+00  0.00000000E+00  0.00000000E+00
  0.00000000E+00  3.91291911E-02  0.00000000E+00  0.00000000E+00  6.39621957E-16
  0.00000000E+00 -8.40262375E-02  0.00000000E+00  0.00000000E+00 -1.04809084E-15
  0.00000000E+00  1.04493291E+00  0.00000000E+00  0.00000000E+00  1.24131789E-14
  0.00000000E+00  0.00000000E+00  0.00000000E+00  0.00000000E+00  0.00000000E+00
  0.00000000E+00  0.00000000E+00  0.00000000E+00  0.00000000E+00  0.00000000E+00
  0.00000000E+00  0.00000000E+00  0.00000000E+00  0.00000000E+00  0.00000000E+00
  0.00000000E+00  0.00000000E+00  0.00000000E+00  0.00000000E+00  0.00000000E+00
  0.00000000E+00  0.00000000E+00  0.00000000E+00  0.00000000E+00  0.00000000E+00
  0.00000000E+00  0.00000000E+00  0.00000000E+00  0.00000000E+00  0.00000000E+00
  0.00000000E+00  0.00000000E+00  0.00000000E+00  0.00000000E+00  3.92867289E-02
  0.00000000E+00  0.00000000E+00  0.00000000E+00  0.00000000E+00 -8.73075008E-02
  0.00000000E+00  0.00000000E+00  0.00000000E+00  0.00000000E+00  1.04705190E+00
  0.00000000E+00  0.00000000E+00  0.00000000E+00  0.00000000E+00  0.00000000E+00
  0.00000000E+00  0.00000000E+00  0.00000000E+00  0.00000000E+00  0.00000000E+00
  0.00000000E+00  0.00000000E+00  0.00000000E+00  0.00000000E+00  0.00000000E+00
  0.00000000E+00  0.00000000E+00  0.00000000E+00  0.00000000E+00  0.00000000E+00
  0.00000000E+00  0.00000000E+00  0.00000000E+00  0.00000000E+00  0.00000000E+00
  0.00000000E+00  0.00000000E+00  0.00000000E+00  0.00000000E+00  0.00000000E+00
  0.00000000E+00  0.00000000E+00  0.00000000E+00  0.00000000E+00  3.92867289E-02
  0.00000000E+00  0.00000000E+00  0.00000000E+00  0.00000000E+00 -8.73075008E-02
  0.00000000E+00  0.00000000E+00  0.00000000E+00  0.00000000E+00  1.04705190E+00
  0.00000000E+00  0.00000000E+00  0.00000000E+00  0.00000000E+00  0.00000000E+00
  0.00000000E+00  0.00000000E+00  0.00000000E+00  0.00000000E+00  0.00000000E+00
  0.00000000E+00  0.00000000E+00  0.00000000E+00  0.00000000E+00  0.00000000E+00
  0.00000000E+00  0.00000000E+00  0.00000000E+00  0.00000000E+00  0.00000000E+00
  0.00000000E+00  0.00000000E+00  0.00000000E+00  0.00000000E+00  0.00000000E+00
  0.00000000E+00  0.00000000E+00  0.00000000E+00  0.00000000E+00  0.00000000E+00
  0.00000000E+00  0.00000000E+00  0.00000000E+00  0.00000000E+00  0.00000000E+00
  0.00000000E+00  0.00000000E+00  0.00000000E+00  3.91750037E-02  0.00000000E+00
  0.00000000E+00  0.00000000E+00  0.00000000E+00 -9.65715337E-02  0.00000000E+00
  0.00000000E+00  0.00000000E+00  0.00000000E+00  1.05241140E+00  0.00000000E+00
  0.00000000E+00  0.00000000E+00  0.00000000E+00  0.00000000E+00  0.00000000E+00
  0.00000000E+00  0.00000000E+00  0.00000000E+00  0.00000000E+00  0.00000000E+00
  0.00000000E+00  0.00000000E+00  0.00000000E+00 -1.60406431E-16 -8.91901358E-16
  1.03237698E-16  2.03304728E-15 -1.64405395E-15  0.00000000E+00  0.00000000E+00
  0.00000000E+00  0.00000000E+00  0.00000000E+00  0.00000000E+00  0.00000000E+00
  0.00000000E+00  0.00000000E+00  0.00000000E+00  0.00000000E+00  0.00000000E+00
 -4.82197474E-16  0.00000000E+00  0.00000000E+00  3.91750037E-02  0.00000000E+00
  1.60436974E-15  0.00000000E+00  0.00000000E+00 -9.65715337E-02  0.00000000E+00
 -1.33019297E-14  0.00000000E+00  0.00000000E+00  1.05241140E+00  0.00000000E+00
  0.00000000E+00  0.00000000E+00  0.00000000E+00  0.00000000E+00  0.00000000E+00
  0.00000000E+00  0.00000000E+00  0.00000000E+00  0.00000000E+00  0.00000000E+00
  0.00000000E+00  0.00000000E+00  0.00000000E+00  0.00000000E+00  0.00000000E+00
  0.00000000E+00  0.00000000E+00  0.00000000E+00  0.00000000E+00  0.00000000E+00
  0.00000000E+00 -2.79804086E-01  0.00000000E+00  0.00000000E+00 -6.97751701E-01
  0.00000000E+00  0.00000000E+00  1.54034558E+00  0.00000000E+00  0.00000000E+00
 -7.05571370E-01  0.00000000E+00  0.00000000E+00  0.00000000E+00  0.00000000E+00
  0.00000000E+00  0.00000000E+00  0.00000000E+00  0.00000000E+00  0.00000000E+00
  0.00000000E+00  0.00000000E+00  0.00000000E+00  0.00000000E+00  0.00000000E+00
  0.00000000E+00 -4.88190248E-03  0.00000000E+00  0.00000000E+00  3.05593475E-16
  0.00000000E+00  0.00000000E+00  0.00000000E+00  9.20426471E-03  0.00000000E+00
  0.00000000E+00 -5.16988910E-16  0.00000000E+00  0.00000000E+00  0.00000000E+00
  0.00000000E+00  0.00000000E+00  0.00000000E+00  0.00000000E+00  0.00000000E+00
  0.00000000E+00 -2.83998783E-01  0.00000000E+00  0.00000000E+00 -7.16945411E-01
  0.00000000E+00  0.00000000E+00  1.53365343E+00  0.00000000E+00  0.00000000E+00
 -6.87947903E-01  0.00000000E+00  0.00000000E+00  0.00000000E+00  0.00000000E+00
  0.00000000E+00  0.00000000E+00  0.00000000E+00  0.00000000E+00  0.00000000E+00
  0.00000000E+00  0.00000000E+00  0.00000000E+00  0.00000000E+00  0.00000000E+00
  0.00000000E+00  0.00000000E+00  0.00000000E+00  0.00000000E+00 -4.15119933E-03
  0.00000000E+00  0.00000000E+00  0.00000000E+00 -5.59813687E-12  0.00000000E+00
  0.00000000E+00  7.47559077E-03  0.00000000E+00  0.00000000E+00  0.00000000E+00
  1.12456706E-11  0.00000000E+00  0.00000000E+00  0.00000000E+00  0.00000000E+00
  0.00000000E+00 -2.83998783E-01  0.00000000E+00  0.00000000E+00 -7.16945411E-01
  0.00000000E+00  0.00000000E+00  1.53365343E+00  0.00000000E+00  0.00000000E+00
 -6.87947903E-01  0.00000000E+00  0.00000000E+00  0.00000000E+00  0.00000000E+00
  0.00000000E+00  0.00000000E+00  0.00000000E+00  0.00000000E+00  0.00000000E+00
  0.00000000E+00  0.00000000E+00  0.00000000E+00  0.00000000E+00  0.00000000E+00
  0.00000000E+00  0.00000000E+00  0.00000000E+00  0.00000000E+00 -4.15119933E-03
  0.00000000E+00  0.00000000E+00  0.00000000E+00  5.59811703E-12  0.00000000E+00
  0.00000000E+00  7.47559077E-03  0.00000000E+00  0.00000000E+00  0.00000000E+00
 -1.12458103E-11  0.00000000E+00  4.63379344E-02 -1.47141677E+00 -3.68548960E-01
  2.59367704E+00 -1.09366201E+00  0.00000000E+00  0.00000000E+00  0.00000000E+00
  0.00000000E+00  0.00000000E+00  0.00000000E+00  0.00000000E+00  0.00000000E+00
  0.00000000E+00  0.00000000E+00  0.00000000E+00  0.00000000E+00 -8.18962656E-03
  0.00000000E+00  0.00000000E+00  2.77043235E-16  0.00000000E+00  6.62836410E-03
  0.00000000E+00  0.00000000E+00 -6.53508129E-16  0.00000000E+00 -1.97854123E-02
  0.00000000E+00  0.00000000E+00 -4.60131456E-16  0.00000000E+00  0.00000000E+00
  0.00000000E+00  0.00000000E+00  0.00000000E+00  0.00000000E+00  0.00000000E+00
  0.00000000E+00  0.00000000E+00  0.00000000E+00  0.00000000E+00  0.00000000E+00
  0.00000000E+00  0.00000000E+00  0.00000000E+00  7.04098758E-03  5.03970609E-04
 -9.81447899E-03 -1.34956045E-02  6.76383675E-03  0.00000000E+00  0.00000000E+00
  0.00000000E+00  0.00000000E+00  0.00000000E+00  0.00000000E+00  0.00000000E+00
  0.00000000E+00  0.00000000E+00  0.00000000E+00  0.00000000E+00  0.00000000E+00
  2.04498979E-02  0.00000000E+00  0.00000000E+00 -6.10542249E-16  0.00000000E+00
  1.25549819E+00  0.00000000E+00  0.00000000E+00  1.35130293E-15  0.00000000E+00
 -7.33327194E-01  0.00000000E+00  0.00000000E+00 -1.93666376E-15  0.00000000E+00
  0.00000000E+00  0.00000000E+00  0.00000000E+00  0.00000000E+00  0.00000000E+00
  0.00000000E+00  0.00000000E+00  0.00000000E+00  0.00000000E+00  0.00000000E+00
  0.00000000E+00  0.00000000E+00  0.00000000E+00  0.00000000E+00  0.00000000E+00
  0.00000000E+00  0.00000000E+00  0.00000000E+00  0.00000000E+00  0.00000000E+00
  0.00000000E+00  0.00000000E+00  0.00000000E+00  0.00000000E+00  0.00000000E+00
  0.00000000E+00  0.00000000E+00  0.00000000E+00  0.00000000E+00  0.00000000E+00
  0.00000000E+00  0.00000000E+00  0.00000000E+00  1.96355770E-02  0.00000000E+00
  0.00000000E+00  0.00000000E+00  0.00000000E+00  1.25606252E+00  0.00000000E+00
  0.00000000E+00  0.00000000E+00  0.00000000E+00 -7.30942094E-01  0.00000000E+00
  0.00000000E+00  0.00000000E+00  0.00000000E+00  0.00000000E+00  0.00000000E+00
  0.00000000E+00  0.00000000E+00  0.00000000E+00  0.00000000E+00  0.00000000E+00
  0.00000000E+00  0.00000000E+00  0.00000000E+00  0.00000000E+00  0.00000000E+00
  0.00000000E+00  0.00000000E+00  0.00000000E+00  0.00000000E+00  0.00000000E+00
  0.00000000E+00  0.00000000E+00  0.00000000E+00  0.00000000E+00  0.00000000E+00
  0.00000000E+00  0.00000000E+00  0.00000000E+00  0.00000000E+00  0.00000000E+00
  0.00000000E+00  0.00000000E+00  0.00000000E+00  1.96355770E-02  0.00000000E+00
  0.00000000E+00  0.00000000E+00  0.00000000E+00  1.25606252E+00  0.00000000E+00
  0.00000000E+00  0.00000000E+00  0.00000000E+00 -7.30942094E-01  0.00000000E+00
  0.00000000E+00  0.00000000E+00  0.00000000E+00  0.00000000E+00  0.00000000E+00
  0.00000000E+00  0.00000000E+00  0.00000000E+00  0.00000000E+00  0.00000000E+00
  0.00000000E+00  0.00000000E+00  0.00000000E+00  0.00000000E+00  0.00000000E+00
  0.00000000E+00  0.00000000E+00  0.00000000E+00  0.00000000E+00  0.00000000E+00
  0.00000000E+00  0.00000000E+00  0.00000000E+00  0.00000000E+00  0.00000000E+00
  0.00000000E+00  0.00000000E+00  0.00000000E+00  0.00000000E+00  0.00000000E+00
  0.00000000E+00  0.00000000E+00  0.00000000E+00  0.00000000E+00  0.00000000E+00
  0.00000000E+00  0.00000000E+00  1.68240761E-02  0.00000000E+00  0.00000000E+00
  0.00000000E+00  0.00000000E+00  1.25755306E+00  0.00000000E+00  0.00000000E+00
  0.00000000E+00  0.00000000E+00 -7.24060534E-01  0.00000000E+00  0.00000000E+00
  0.00000000E+00  0.00000000E+00  0.00000000E+00  0.00000000E+00  0.00000000E+00
  0.00000000E+00  0.00000000E+00  0.00000000E+00  0.00000000E+00  0.00000000E+00
  0.00000000E+00  0.00000000E+00  5.19497574E-16  4.84267257E-16 -7.25652498E-16
 -8.63431466E-16  2.88832559E-16  0.00000000E+00  0.00000000E+00  0.00000000E+00
  0.00000000E+00  0.00000000E+00  0.00000000E+00  0.00000000E+00  0.00000000E+00
  0.00000000E+00  0.00000000E+00  0.00000000E+00  0.00000000E+00  8.72692510E-17
  0.00000000E+00  0.00000000E+00  1.68240761E-02  0.00000000E+00 -1.49090331E-15
  0.00000000E+00  0.00000000E+00  1.25755306E+00  0.00000000E+00  6.43676093E-16
  0.00000000E+00  0.00000000E+00 -7.24060534E-01  0.00000000E+00  0.00000000E+00
  0.00000000E+00  0.00000000E+00  0.00000000E+00  0.00000000E+00  0.00000000E+00
  0.00000000E+00  0.00000000E+00  0.00000000E+00  0.00000000E+00  0.00000000E+00
  0.00000000E+00  0.00000000E+00  0.00000000E+00  0.00000000E+00  0.00000000E+00
  0.00000000E+00  0.00000000E+00  0.00000000E+00  0.00000000E+00  0.00000000E+00
 -1.07235970E-02  0.00000000E+00  0.00000000E+00  1.30273385E-02  0.00000000E+00
  0.00000000E+00 -1.91355002E-02  0.00000000E+00  0.00000000E+00  6.56285296E-03
  0.00000000E+00  0.00000000E+00  0.00000000E+00  0.00000000E+00  0.00000000E+00
  0.00000000E+00  0.00000000E+00  0.00000000E+00  0.00000000E+00  0.00000000E+00
  0.00000000E+00  0.00000000E+00  0.00000000E+00  0.00000000E+00  0.00000000E+00
 -1.40830578E-01  0.00000000E+00  0.00000000E+00 -8.11867768E-17  0.00000000E+00
  0.00000000E+00  0.00000000E+00  1.07780459E+00  0.00000000E+00  0.00000000E+00
 -1.61936192E-15  0.00000000E+00  0.00000000E+00  0.00000000E+00  0.00000000E+00
  0.00000000E+00  0.00000000E+00  0.00000000E+00  0.00000000E+00 -8.59797219E-03
  0.00000000E+00  0.00000000E+00  1.02653034E-02  0.00000000E+00  0.00000000E+00
 -1.54729921E-02  0.00000000E+00  0.00000000E+00  5.27823366E-03  0.00000000E+00
  0.00000000E+00  0.00000000E+00  0.00000000E+00  0.00000000E+00  0.00000000E+00