 Entering Gaussian System, Link 0=g16
 Input=F.com
 Output=F.log
 Initial command:
 /usr/site/hpc/x86_64/glibc-2.17/broadwell/gaussian/g16_a.03/pgi-16.5/g16/l1.exe "/home/c744/c7441090/data/Gau-3858359.inp" -scrdir="/home/c744/c7441090/data/"
 Entering Link 1 = /usr/site/hpc/x86_64/glibc-2.17/broadwell/gaussian/g16_a.03/pgi-16.5/g16/l1.exe PID=   3858360.
  
 Copyright (c) 1988,1990,1992,1993,1995,1998,2003,2009,2016,
            Gaussian, Inc.  All Rights Reserved.
  
 This is part of the Gaussian(R) 16 program.  It is based on
 the Gaussian(R) 09 system (copyright 2009, Gaussian, Inc.),
 the Gaussian(R) 03 system (copyright 2003, Gaussian, Inc.),
 the Gaussian(R) 98 system (copyright 1998, Gaussian, Inc.),
 the Gaussian(R) 94 system (copyright 1995, Gaussian, Inc.),
 the Gaussian 92(TM) system (copyright 1992, Gaussian, Inc.),
 the Gaussian 90(TM) system (copyright 1990, Gaussian, Inc.),
 the Gaussian 88(TM) system (copyright 1988, Gaussian, Inc.),
 the Gaussian 86(TM) system (copyright 1986, Carnegie Mellon
 University), and the Gaussian 82(TM) system (copyright 1983,
 Carnegie Mellon University). Gaussian is a federally registered
 trademark of Gaussian, Inc.
  
 This software contains proprietary and confidential information,
 including trade secrets, belonging to Gaussian, Inc.
  
 This software is provided under written license and may be
 used, copied, transmitted, or stored only in accord with that
 written license.
  
 The following legend is applicable only to US Government
 contracts under FAR:
  
                    RESTRICTED RIGHTS LEGEND
  
 Use, reproduction and disclosure by the US Government is
 subject to restrictions as set forth in subparagraphs (a)
 and (c) of the Commercial Computer Software - Restricted
 Rights clause in FAR 52.227-19.
  
 Gaussian, Inc.
 340 Quinnipiac St., Bldg. 40, Wallingford CT 06492
  
  
 ---------------------------------------------------------------
 Warning -- This program may not be used in any manner that
 competes with the business of Gaussian, Inc. or will provide
 assistance to any competitor of Gaussian, Inc.  The licensee
 of this program is prohibited from giving any competitor of
 Gaussian, Inc. access to this program.  By using this program,
 the user acknowledges that Gaussian, Inc. is engaged in the
 business of creating and licensing software in the field of
 computational chemistry and represents and warrants to the
 licensee that it is not a competitor of Gaussian, Inc. and that
 it will not use this program in any manner prohibited above.
 ---------------------------------------------------------------
  

 Cite this work as:
 Gaussian 16, Revision A.03,
 M. J. Frisch, G. W. Trucks, H. B. Schlegel, G. E. Scuseria, 
 M. A. Robb, J. R. Cheeseman, G. Scalmani, V. Barone, 
 G. A. Petersson, H. Nakatsuji, X. Li, M. Caricato, A. V. Marenich, 
 J. Bloino, B. G. Janesko, R. Gomperts, B. Mennucci, H. P. Hratchian, 
 J. V. Ortiz, A. F. Izmaylov, J. L. Sonnenberg, D. Williams-Young, 
 F. Ding, F. Lipparini, F. Egidi, J. Goings, B. Peng, A. Petrone, 
 T. Henderson, D. Ranasinghe, V. G. Zakrzewski, J. Gao, N. Rega, 
 G. Zheng, W. Liang, M. Hada, M. Ehara, K. Toyota, R. Fukuda, 
 J. Hasegawa, M. Ishida, T. Nakajima, Y. Honda, O. Kitao, H. Nakai, 
 T. Vreven, K. Throssell, J. A. Montgomery, Jr., J. E. Peralta, 
 F. Ogliaro, M. J. Bearpark, J. J. Heyd, E. N. Brothers, K. N. Kudin, 
 V. N. Staroverov, T. A. Keith, R. Kobayashi, J. Normand, 
 K. Raghavachari, A. P. Rendell, J. C. Burant, S. S. Iyengar, 
 J. Tomasi, M. Cossi, J. M. Millam, M. Klene, C. Adamo, R. Cammi, 
 J. W. Ochterski, R. L. Martin, K. Morokuma, O. Farkas, 
 J. B. Foresman, and D. J. Fox, Gaussian, Inc., Wallingford CT, 2016.
 
 ******************************************
 Gaussian 16:  ES64L-G16RevA.03 25-Dec-2016
                20-Nov-2023 
 ******************************************
 %NProcShared=4
 Will use up to    4 processors via shared memory.
 %Mem=1GB
 %Chk=F.chk
 ----------------------------------------------------
 # B3LYP/aug-cc-pVTZ EmpiricalDispersion=GD3 Pop=Full
 ----------------------------------------------------
 1/38=1,172=1/1;
 2/12=2,17=6,18=5,40=1/2;
 3/5=16,6=1,7=10,11=2,25=1,30=1,74=-5,124=31/1,2,3;
 4//1;
 5/5=2,38=5/2;
 6/7=3,28=1/1;
 99/5=1,9=1/99;
 --------
 Fluorine
 --------
 Symbolic Z-matrix:
 Charge =  0 Multiplicity = 2
 F                     0.        0.        0. 
 
                          Input orientation:                          
 ---------------------------------------------------------------------
 Center     Atomic      Atomic             Coordinates (Angstroms)
 Number     Number       Type             X           Y           Z
 ---------------------------------------------------------------------
      1          9           0        0.000000    0.000000    0.000000
 ---------------------------------------------------------------------
 Stoichiometry    F(2)
 Framework group  OH[O(F)]
 Deg. of freedom     0
 Full point group                 OH      NOp  48
 Largest Abelian subgroup         D2H     NOp   8
 Largest concise Abelian subgroup C1      NOp   1
                         Standard orientation:                         
 ---------------------------------------------------------------------
 Center     Atomic      Atomic             Coordinates (Angstroms)
 Number     Number       Type             X           Y           Z
 ---------------------------------------------------------------------
      1          9           0        0.000000    0.000000    0.000000
 ---------------------------------------------------------------------
 Standard basis: Aug-CC-pVTZ (5D, 7F)
 There are    14 symmetry adapted cartesian basis functions of AG  symmetry.
 There are     3 symmetry adapted cartesian basis functions of B1G symmetry.
 There are     3 symmetry adapted cartesian basis functions of B2G symmetry.
 There are     3 symmetry adapted cartesian basis functions of B3G symmetry.
 There are     2 symmetry adapted cartesian basis functions of AU  symmetry.
 There are    10 symmetry adapted cartesian basis functions of B1U symmetry.
 There are    10 symmetry adapted cartesian basis functions of B2U symmetry.
 There are    10 symmetry adapted cartesian basis functions of B3U symmetry.
 There are    11 symmetry adapted basis functions of AG  symmetry.
 There are     3 symmetry adapted basis functions of B1G symmetry.
 There are     3 symmetry adapted basis functions of B2G symmetry.
 There are     3 symmetry adapted basis functions of B3G symmetry.
 There are     2 symmetry adapted basis functions of AU  symmetry.
 There are     8 symmetry adapted basis functions of B1U symmetry.
 There are     8 symmetry adapted basis functions of B2U symmetry.
 There are     8 symmetry adapted basis functions of B3U symmetry.
    46 basis functions,    72 primitive gaussians,    55 cartesian basis functions
     5 alpha electrons        4 beta electrons
       nuclear repulsion energy         0.0000000000 Hartrees.
 NAtoms=    1 NActive=    1 NUniq=    1 SFac= 1.00D+00 NAtFMM=   60 NAOKFM=F Big=F
 Integral buffers will be    131072 words long.
 Raffenetti 2 integral format.
 Two-electron integral symmetry is turned on.
 Nuclear repulsion after empirical dispersion term =        0.0000000000 Hartrees.
 One-electron integrals computed using PRISM.
 NBasis=    46 RedAO= T EigKep=  3.48D-02  NBF=    11     3     3     3     2     8     8     8
 NBsUse=    46 1.00D-06 EigRej= -1.00D+00 NBFU=    11     3     3     3     2     8     8     8
 ExpMin= 7.36D-02 ExpMax= 1.95D+04 ExpMxC= 6.65D+02 IAcc=3 IRadAn=         5 AccDes= 0.00D+00
 Harris functional with IExCor=  402 and IRadAn=       5 diagonalized for initial guess.
 HarFok:  IExCor=  402 AccDes= 0.00D+00 IRadAn=         5 IDoV= 1 UseB2=F ITyADJ=14
 ICtDFT=  3500011 ScaDFX=  1.000000  1.000000  1.000000  1.000000
 FoFCou: FMM=F IPFlag=           0 FMFlag=      100000 FMFlg1=           0
         NFxFlg=           0 DoJE=T BraDBF=F KetDBF=T FulRan=T
         wScrn=  0.000000 ICntrl=       500 IOpCl=  0 I1Cent=   200000004 NGrid=           0
         NMat0=    1 NMatS0=      1 NMatT0=    0 NMatD0=    1 NMtDS0=    0 NMtDT0=    0
 Petite list used in FoFCou.
 Initial guess orbital symmetries:
 Alpha Orbitals:
       Occupied  (A1G) (A1G) (T1U) (T1U) (T1U)
       Virtual   (A1G) (T1U) (T1U) (T1U) (T2G) (T2G) (T2G) (EG)
                 (EG) (T1U) (T1U) (T1U) (A1G) (T2G) (T2G) (T2G)
                 (EG) (EG) (T2U) (T2U) (T2U) (A2U) (T1U) (T1U)
                 (T1U) (T1U) (T1U) (T1U) (T2U) (T2U) (T2U) (A2U)
                 (T1U) (T1U) (T1U) (T2G) (T2G) (T2G) (EG) (EG)
                 (A1G)
 Beta  Orbitals:
       Occupied  (A1G) (A1G) (T1U) (T1U)
       Virtual   (T1U) (A1G) (T1U) (T1U) (T1U) (T2G) (T2G) (T2G)
                 (EG) (EG) (T1U) (T1U) (T1U) (A1G) (T2G) (T2G)
                 (T2G) (EG) (EG) (T2U) (T2U) (T2U) (A2U) (T1U)
                 (T1U) (T1U) (T1U) (T1U) (T1U) (T2U) (T2U) (T2U)
                 (A2U) (T1U) (T1U) (T1U) (T2G) (T2G) (T2G) (EG)
                 (EG) (A1G)
 Initial guess <Sx>= 0.0000 <Sy>= 0.0000 <Sz>= 0.5000 <S**2>= 0.7500 S= 0.5000
 Keep R1 and R2 ints in memory in symmetry-blocked form, NReq=4095399.
 Requested convergence on RMS density matrix=1.00D-08 within 128 cycles.
 Requested convergence on MAX density matrix=1.00D-06.
 Requested convergence on             energy=1.00D-06.
 No special actions if energy rises.
 Integral accuracy reduced to 1.0D-05 until final iterations.
 Density matrix breaks symmetry, PCut= 1.00D-04
 Density has only Abelian symmetry.
 Density matrix breaks symmetry, PCut= 1.00D-04
 Density has only Abelian symmetry.
 Density matrix breaks symmetry, PCut= 1.00D-04
 Density has only Abelian symmetry.
 Density matrix breaks symmetry, PCut= 1.00D-04
 Density has only Abelian symmetry.
 Density matrix breaks symmetry, PCut= 1.00D-04
 Density has only Abelian symmetry.
 Initial convergence to 1.0D-05 achieved.  Increase integral accuracy.
 Density matrix breaks symmetry, PCut= 1.00D-04
 Density has only Abelian symmetry.
 Density matrix breaks symmetry, PCut= 1.00D-04
 Density has only Abelian symmetry.
 Density matrix breaks symmetry, PCut= 1.00D-04
 Density has only Abelian symmetry.
 Density matrix breaks symmetry, PCut= 1.00D-04
 Density has only Abelian symmetry.
 Density matrix breaks symmetry, PCut= 1.00D-04
 Density has only Abelian symmetry.
 SCF Done:  E(UB3LYP) =  -99.7661405570     A.U. after    9 cycles
            NFock=  9  Conv=0.46D-08     -V/T= 2.0049
 <Sx>= 0.0000 <Sy>= 0.0000 <Sz>= 0.5000 <S**2>= 0.7517 S= 0.5009
 <L.S>= 0.000000000000E+00
 Annihilation of the first spin contaminant:
 S**2 before annihilation     0.7517,   after     0.7500
 SCF density gives NOpUse=  8 NOpAll= 48.

 **********************************************************************

            Population analysis using the SCF density.

 **********************************************************************

 Orbital symmetries:
 Alpha Orbitals:
       Occupied  (A1G) (?A) (?B) (?B) (?B)
       Virtual   (?A) (?B) (?B) (?B) (?A) (T2G) (T2G) (T2G) (?A)
                 (?B) (?B) (?B) (?A) (?A) (T2G) (T2G) (T2G) (?A)
                 (?B) (?B) (?B) (A2U) (?B) (?B) (?B) (?B) (?B)
                 (?B) (?C) (?C) (?C) (?C) (A2U) (?C) (?C) (T2G)
                 (T2G) (T2G) (T2G) (T2G) (T2G)
 Beta  Orbitals:
       Occupied  (A1G) (A1G) (?A) (?A)
       Virtual   (?A) (A1G) (?A) (?A) (?A) (T2G) (T2G) (T2G) (EG)
                 (EG) (?A) (?A) (?A) (A1G) (T2G) (EG) (T2G) (T2G)
                 (EG) (A2U) (?B) (?B) (?B) (?B) (?B) (?B) (T1U)
                 (T1U) (T1U) (A2U) (?B) (?B) (?B) (?B) (?B) (?B)
                 (T2G) (T2G) (T2G) (T2G) (T2G) (T2G)
 Unable to determine electronic state:  an orbital has unidentified symmetry.
 Alpha  occ. eigenvalues --  -24.79651  -1.24056  -0.57103  -0.48304  -0.48304
 Alpha virt. eigenvalues --    0.08618   0.11764   0.12277   0.12277   0.68039
 Alpha virt. eigenvalues --    0.68508   0.68508   0.70115   0.70115   0.85255
 Alpha virt. eigenvalues --    0.88991   0.88991   1.33379   2.43485   2.44949
 Alpha virt. eigenvalues --    2.44949   2.49668   2.49668   2.56864   2.57370
 Alpha virt. eigenvalues --    2.57370   2.58763   2.58763   2.61148   2.61148
 Alpha virt. eigenvalues --    4.50909   4.58324   4.58324   8.14305   8.15297
 Alpha virt. eigenvalues --    8.15297   8.18184   8.18184   8.23100   8.23100
 Alpha virt. eigenvalues --    8.50430   8.52818   8.52818   8.59882   8.59882
 Alpha virt. eigenvalues --    9.70939
  Beta  occ. eigenvalues --  -24.76493  -1.14911  -0.45193  -0.45193
  Beta virt. eigenvalues --   -0.27808   0.09226   0.12433   0.12433   0.13373
  Beta virt. eigenvalues --    0.69982   0.69982   0.70056   0.70056   0.70307
  Beta virt. eigenvalues --    0.90047   0.90047   0.92417   1.36991   2.50436
  Beta virt. eigenvalues --    2.50436   2.50916   2.50916   2.52023   2.60670
  Beta virt. eigenvalues --    2.60670   2.60711   2.60711   2.60917   2.61058
  Beta virt. eigenvalues --    2.61058   4.60809   4.60809   4.64656   8.23327
  Beta virt. eigenvalues --    8.23327   8.23650   8.23650   8.23892   8.23892
  Beta virt. eigenvalues --    8.24744   8.61605   8.61605   8.63626   8.63626
  Beta virt. eigenvalues --    8.66471   9.76309
     Alpha Molecular Orbital Coefficients:
                           1         2         3         4         5
                       (A1G)--O      O         O         O         O
     Eigenvalues --   -24.79651  -1.24056  -0.57103  -0.48304  -0.48304
   1 1   F  1S          0.97276  -0.23365   0.00000   0.00000   0.00000
   2        2S         -0.01184   0.55872   0.00000   0.00000   0.00000
   3        3S          0.05127   0.18227   0.00000   0.00000   0.00000
   4        4S          0.00402   0.36043   0.00000   0.00000   0.00000
   5        5S         -0.00091   0.00990   0.00000   0.00000   0.00000
   6        6PX         0.00000   0.00000   0.00000   0.00000   0.40836
   7        6PY         0.00000   0.00000   0.00000   0.40836   0.00000
   8        6PZ         0.00000   0.00000   0.41773   0.00000   0.00000
   9        7PX         0.00000   0.00000   0.00000   0.00000   0.47038
  10        7PY         0.00000   0.00000   0.00000   0.47038   0.00000
  11        7PZ         0.00000   0.00000   0.48671   0.00000   0.00000
  12        8PX         0.00000   0.00000   0.00000   0.00000   0.32755
  13        8PY         0.00000   0.00000   0.00000   0.32755   0.00000
  14        8PZ         0.00000   0.00000   0.30438   0.00000   0.00000
  15        9PX         0.00000   0.00000   0.00000   0.00000   0.03836
  16        9PY         0.00000   0.00000   0.00000   0.03836   0.00000
  17        9PZ         0.00000   0.00000   0.02169   0.00000   0.00000
  18       10D 0        0.00058   0.00650   0.00000   0.00000   0.00000
  19       10D+1        0.00000   0.00000   0.00000   0.00000   0.00000
  20       10D-1        0.00000   0.00000   0.00000   0.00000   0.00000
  21       10D+2       -0.00000  -0.00000   0.00000   0.00000   0.00000
  22       10D-2        0.00000   0.00000   0.00000   0.00000   0.00000
  23       11D 0       -0.00022   0.01315   0.00000   0.00000   0.00000
  24       11D+1        0.00000   0.00000   0.00000   0.00000   0.00000
  25       11D-1        0.00000   0.00000   0.00000   0.00000   0.00000
  26       11D+2        0.00000  -0.00000   0.00000   0.00000   0.00000
  27       11D-2        0.00000   0.00000   0.00000   0.00000   0.00000
  28       12D 0        0.00009   0.00148   0.00000   0.00000   0.00000
  29       12D+1        0.00000   0.00000   0.00000   0.00000   0.00000
  30       12D-1        0.00000   0.00000   0.00000   0.00000   0.00000
  31       12D+2       -0.00000   0.00000   0.00000   0.00000   0.00000
  32       12D-2        0.00000   0.00000   0.00000   0.00000   0.00000
  33       13F 0        0.00000   0.00000   0.00567   0.00000   0.00000
  34       13F+1        0.00000   0.00000   0.00000   0.00000   0.00455
  35       13F-1        0.00000   0.00000   0.00000   0.00455   0.00000
  36       13F+2        0.00000   0.00000   0.00000   0.00000   0.00000
  37       13F-2        0.00000   0.00000   0.00000   0.00000   0.00000
  38       13F+3        0.00000   0.00000   0.00000   0.00000  -0.00000
  39       13F-3        0.00000   0.00000   0.00000   0.00000   0.00000
  40       14F 0        0.00000   0.00000   0.00473   0.00000   0.00000
  41       14F+1        0.00000   0.00000   0.00000   0.00000   0.00415
  42       14F-1        0.00000   0.00000   0.00000   0.00415   0.00000
  43       14F+2        0.00000   0.00000  -0.00000   0.00000   0.00000
  44       14F-2        0.00000   0.00000   0.00000   0.00000   0.00000
  45       14F+3        0.00000   0.00000   0.00000   0.00000  -0.00000
  46       14F-3        0.00000   0.00000   0.00000   0.00000   0.00000
                           6         7         8         9        10
                           V         V         V         V         V
     Eigenvalues --     0.08618   0.11764   0.12277   0.12277   0.68039
   1 1   F  1S          0.07676   0.00000   0.00000   0.00000   0.00253
   2        2S         -0.11168   0.00000   0.00000   0.00000  -0.02931
   3        3S         -0.06764   0.00000   0.00000   0.00000  -0.00773
   4        4S         -0.76320   0.00000   0.00000   0.00000   0.04708
   5        5S          1.45442   0.00000   0.00000   0.00000  -0.03154
   6        6PX         0.00000   0.00000   0.00000  -0.12233   0.00000
   7        6PY         0.00000   0.00000  -0.12233   0.00000   0.00000
   8        6PZ         0.00000  -0.11667   0.00000   0.00000   0.00000
   9        7PX         0.00000   0.00000   0.00000  -0.10571   0.00000
  10        7PY         0.00000   0.00000  -0.10571   0.00000   0.00000
  11        7PZ         0.00000  -0.10423   0.00000   0.00000   0.00000
  12        8PX         0.00000   0.00000   0.00000  -0.28387   0.00000
  13        8PY         0.00000   0.00000  -0.28387   0.00000   0.00000
  14        8PZ         0.00000  -0.24907   0.00000   0.00000   0.00000
  15        9PX         0.00000   0.00000   0.00000   1.13187   0.00000
  16        9PY         0.00000   0.00000   1.13187   0.00000   0.00000
  17        9PZ         0.00000   1.12072   0.00000   0.00000   0.00000
  18       10D 0       -0.00182   0.00000   0.00000   0.00000   0.03913
  19       10D+1        0.00000   0.00000   0.00000   0.00000   0.00000
  20       10D-1        0.00000   0.00000   0.00000   0.00000   0.00000
  21       10D+2        0.00000   0.00000   0.00000   0.00000   0.00000
  22       10D-2        0.00000   0.00000   0.00000   0.00000   0.00000
  23       11D 0       -0.00381   0.00000   0.00000   0.00000  -0.08403
  24       11D+1        0.00000   0.00000   0.00000   0.00000   0.00000
  25       11D-1        0.00000   0.00000   0.00000   0.00000   0.00000
  26       11D+2       -0.00000   0.00000   0.00000   0.00000  -0.00000
  27       11D-2        0.00000   0.00000   0.00000   0.00000   0.00000
  28       12D 0        0.01134   0.00000   0.00000   0.00000   1.04493
  29       12D+1        0.00000   0.00000   0.00000   0.00000   0.00000
  30       12D-1        0.00000   0.00000   0.00000   0.00000   0.00000
  31       12D+2        0.00000   0.00000   0.00000   0.00000   0.00000
  32       12D-2        0.00000   0.00000   0.00000   0.00000   0.00000
  33       13F 0        0.00000  -0.00167   0.00000   0.00000   0.00000
  34       13F+1        0.00000   0.00000   0.00000  -0.00144   0.00000
  35       13F-1        0.00000   0.00000  -0.00144   0.00000   0.00000
  36       13F+2        0.00000  -0.00000   0.00000   0.00000   0.00000
  37       13F-2        0.00000   0.00000   0.00000   0.00000   0.00000
  38       13F+3        0.00000   0.00000   0.00000   0.00000   0.00000
  39       13F-3        0.00000   0.00000  -0.00000   0.00000   0.00000
  40       14F 0        0.00000   0.00089   0.00000   0.00000   0.00000
  41       14F+1        0.00000   0.00000   0.00000   0.00051   0.00000
  42       14F-1        0.00000   0.00000   0.00051   0.00000   0.00000
  43       14F+2        0.00000   0.00000   0.00000   0.00000   0.00000
  44       14F-2        0.00000   0.00000   0.00000   0.00000   0.00000
  45       14F+3        0.00000   0.00000   0.00000  -0.00000   0.00000
  46       14F-3        0.00000   0.00000   0.00000   0.00000   0.00000
                          11        12        13        14        15
                       (T2G)--V  (T2G)--V  (T2G)--V      V         V
     Eigenvalues --     0.68508   0.68508   0.70115   0.70115   0.85255
   1 1   F  1S          0.00000   0.00000   0.00000  -0.00000   0.00000
   2        2S          0.00000   0.00000   0.00000  -0.00000   0.00000
   3        3S          0.00000   0.00000   0.00000   0.00000   0.00000
   4        4S          0.00000   0.00000   0.00000   0.00000   0.00000
   5        5S          0.00000   0.00000   0.00000  -0.00000   0.00000
   6        6PX         0.00000   0.00000   0.00000   0.00000   0.00000
   7        6PY         0.00000   0.00000   0.00000   0.00000   0.00000
   8        6PZ         0.00000   0.00000   0.00000   0.00000  -0.27980
   9        7PX         0.00000   0.00000   0.00000   0.00000   0.00000
  10        7PY         0.00000   0.00000   0.00000   0.00000   0.00000
  11        7PZ         0.00000   0.00000   0.00000   0.00000  -0.69775
  12        8PX         0.00000   0.00000   0.00000   0.00000   0.00000
  13        8PY         0.00000   0.00000   0.00000   0.00000   0.00000
  14        8PZ         0.00000   0.00000   0.00000   0.00000   1.54035
  15        9PX         0.00000   0.00000   0.00000   0.00000   0.00000
  16        9PY         0.00000   0.00000   0.00000   0.00000   0.00000
  17        9PZ         0.00000   0.00000   0.00000   0.00000  -0.70557
  18       10D 0        0.00000   0.00000   0.00000  -0.00000   0.00000
  19       10D+1        0.00000   0.03929   0.00000   0.00000   0.00000
  20       10D-1        0.03929   0.00000   0.00000   0.00000   0.00000
  21       10D+2        0.00000   0.00000   0.00000   0.03918   0.00000
  22       10D-2        0.00000   0.00000   0.03918   0.00000   0.00000
  23       11D 0        0.00000   0.00000   0.00000   0.00000   0.00000
  24       11D+1        0.00000  -0.08731   0.00000   0.00000   0.00000
  25       11D-1       -0.08731   0.00000   0.00000   0.00000   0.00000
  26       11D+2        0.00000   0.00000   0.00000  -0.09657   0.00000
  27       11D-2        0.00000   0.00000  -0.09657   0.00000   0.00000
  28       12D 0        0.00000   0.00000   0.00000  -0.00000   0.00000
  29       12D+1        0.00000   1.04705   0.00000   0.00000   0.00000
  30       12D-1        1.04705   0.00000   0.00000   0.00000   0.00000
  31       12D+2        0.00000   0.00000   0.00000   1.05241   0.00000
  32       12D-2        0.00000   0.00000   1.05241   0.00000   0.00000
  33       13F 0        0.00000   0.00000   0.00000   0.00000  -0.00488
  34       13F+1        0.00000   0.00000   0.00000   0.00000   0.00000
  35       13F-1        0.00000   0.00000   0.00000   0.00000   0.00000
  36       13F+2        0.00000   0.00000   0.00000   0.00000   0.00000
  37       13F-2        0.00000   0.00000   0.00000   0.00000   0.00000
  38       13F+3        0.00000   0.00000   0.00000   0.00000   0.00000
  39       13F-3        0.00000   0.00000   0.00000   0.00000   0.00000
  40       14F 0        0.00000   0.00000   0.00000   0.00000   0.00920
  41       14F+1        0.00000   0.00000   0.00000   0.00000   0.00000
  42       14F-1        0.00000   0.00000   0.00000   0.00000   0.00000
  43       14F+2        0.00000   0.00000   0.00000   0.00000  -0.00000
  44       14F-2        0.00000   0.00000   0.00000   0.00000   0.00000
  45       14F+3        0.00000   0.00000   0.00000   0.00000   0.00000
  46       14F-3        0.00000   0.00000   0.00000   0.00000   0.00000
                          16        17        18        19        20
                           V         V         V         V     (T2G)--V
     Eigenvalues --     0.88991   0.88991   1.33379   2.43485   2.44949
   1 1   F  1S          0.00000   0.00000   0.04634   0.00704   0.00000
   2        2S          0.00000   0.00000  -1.47142   0.00050   0.00000
   3        3S          0.00000   0.00000  -0.36855  -0.00981   0.00000
   4        4S          0.00000   0.00000   2.59368  -0.01350   0.00000
   5        5S          0.00000   0.00000  -1.09366   0.00676   0.00000
   6        6PX         0.00000  -0.28400   0.00000   0.00000   0.00000
   7        6PY        -0.28400   0.00000   0.00000   0.00000   0.00000
   8        6PZ         0.00000   0.00000   0.00000   0.00000   0.00000
   9        7PX         0.00000  -0.71695   0.00000   0.00000   0.00000
  10        7PY        -0.71695   0.00000   0.00000   0.00000   0.00000
  11        7PZ         0.00000   0.00000   0.00000   0.00000   0.00000
  12        8PX         0.00000   1.53365   0.00000   0.00000   0.00000
  13        8PY         1.53365   0.00000   0.00000   0.00000   0.00000
  14        8PZ         0.00000   0.00000   0.00000   0.00000   0.00000
  15        9PX         0.00000  -0.68795   0.00000   0.00000   0.00000
  16        9PY        -0.68795   0.00000   0.00000   0.00000   0.00000
  17        9PZ         0.00000   0.00000   0.00000   0.00000   0.00000
  18       10D 0        0.00000   0.00000  -0.00819   0.02045   0.00000
  19       10D+1        0.00000   0.00000   0.00000   0.00000   0.00000
  20       10D-1        0.00000   0.00000   0.00000   0.00000   0.01964
  21       10D+2        0.00000   0.00000   0.00000  -0.00000   0.00000
  22       10D-2        0.00000   0.00000   0.00000   0.00000   0.00000
  23       11D 0        0.00000   0.00000   0.00663   1.25550   0.00000
  24       11D+1        0.00000   0.00000   0.00000   0.00000   0.00000
  25       11D-1        0.00000   0.00000   0.00000   0.00000   1.25606
  26       11D+2        0.00000   0.00000  -0.00000   0.00000   0.00000
  27       11D-2        0.00000   0.00000   0.00000   0.00000   0.00000
  28       12D 0        0.00000   0.00000  -0.01979  -0.73333   0.00000
  29       12D+1        0.00000   0.00000   0.00000   0.00000   0.00000
  30       12D-1        0.00000   0.00000   0.00000   0.00000  -0.73094
  31       12D+2        0.00000   0.00000  -0.00000  -0.00000   0.00000
  32       12D-2        0.00000   0.00000   0.00000   0.00000   0.00000
  33       13F 0        0.00000   0.00000   0.00000   0.00000   0.00000
  34       13F+1        0.00000  -0.00415   0.00000   0.00000   0.00000
  35       13F-1       -0.00415   0.00000   0.00000   0.00000   0.00000
  36       13F+2        0.00000   0.00000   0.00000   0.00000   0.00000
  37       13F-2        0.00000   0.00000   0.00000   0.00000   0.00000
  38       13F+3        0.00000   0.00000   0.00000   0.00000   0.00000
  39       13F-3       -0.00000   0.00000   0.00000   0.00000   0.00000
  40       14F 0        0.00000   0.00000   0.00000   0.00000   0.00000
  41       14F+1        0.00000   0.00748   0.00000   0.00000   0.00000
  42       14F-1        0.00748   0.00000   0.00000   0.00000   0.00000
  43       14F+2        0.00000   0.00000   0.00000   0.00000   0.00000
  44       14F-2        0.00000   0.00000   0.00000   0.00000   0.00000
  45       14F+3        0.00000  -0.00000   0.00000   0.00000   0.00000
  46       14F-3        0.00000   0.00000   0.00000   0.00000   0.00000
                          21        22        23        24        25
                       (T2G)--V  (T2G)--V      V         V         V
     Eigenvalues --     2.44949   2.49668   2.49668   2.56864   2.57370
   1 1   F  1S          0.00000   0.00000   0.00000   0.00000   0.00000
   2        2S          0.00000   0.00000   0.00000   0.00000   0.00000
   3        3S          0.00000   0.00000  -0.00000   0.00000   0.00000
   4        4S          0.00000   0.00000  -0.00000   0.00000   0.00000
   5        5S          0.00000   0.00000   0.00000   0.00000   0.00000
   6        6PX         0.00000   0.00000   0.00000   0.00000  -0.00860
   7        6PY         0.00000   0.00000   0.00000   0.00000   0.00000
   8        6PZ         0.00000   0.00000   0.00000  -0.01072   0.00000
   9        7PX         0.00000   0.00000   0.00000   0.00000   0.01027
  10        7PY         0.00000   0.00000   0.00000   0.00000   0.00000
  11        7PZ         0.00000   0.00000   0.00000   0.01303   0.00000
  12        8PX         0.00000   0.00000   0.00000   0.00000  -0.01547
  13        8PY         0.00000   0.00000   0.00000   0.00000   0.00000
  14        8PZ         0.00000   0.00000   0.00000  -0.01914   0.00000
  15        9PX         0.00000   0.00000   0.00000   0.00000   0.00528
  16        9PY         0.00000   0.00000   0.00000   0.00000   0.00000
  17        9PZ         0.00000   0.00000   0.00000   0.00656   0.00000
  18       10D 0        0.00000   0.00000   0.00000   0.00000   0.00000
  19       10D+1        0.01964   0.00000   0.00000   0.00000   0.00000
  20       10D-1        0.00000   0.00000   0.00000   0.00000   0.00000
  21       10D+2        0.00000   0.00000   0.01682   0.00000   0.00000
  22       10D-2        0.00000   0.01682   0.00000   0.00000   0.00000
  23       11D 0        0.00000   0.00000  -0.00000   0.00000   0.00000
  24       11D+1        1.25606   0.00000   0.00000   0.00000   0.00000
  25       11D-1        0.00000   0.00000   0.00000   0.00000   0.00000
  26       11D+2        0.00000   0.00000   1.25755   0.00000   0.00000
  27       11D-2        0.00000   1.25755   0.00000   0.00000   0.00000
  28       12D 0        0.00000   0.00000   0.00000   0.00000   0.00000
  29       12D+1       -0.73094   0.00000   0.00000   0.00000   0.00000
  30       12D-1        0.00000   0.00000   0.00000   0.00000   0.00000
  31       12D+2        0.00000   0.00000  -0.72406   0.00000   0.00000
  32       12D-2        0.00000  -0.72406   0.00000   0.00000   0.00000
  33       13F 0        0.00000   0.00000   0.00000  -0.14083   0.00000
  34       13F+1        0.00000   0.00000   0.00000   0.00000  -0.14121
  35       13F-1        0.00000   0.00000   0.00000   0.00000   0.00000
  36       13F+2        0.00000   0.00000   0.00000  -0.00000   0.00000
  37       13F-2        0.00000   0.00000   0.00000   0.00000   0.00000
  38       13F+3        0.00000   0.00000   0.00000   0.00000  -0.00000
  39       13F-3        0.00000   0.00000   0.00000   0.00000   0.00000
  40       14F 0        0.00000   0.00000   0.00000   1.07780   0.00000
  41       14F+1        0.00000   0.00000   0.00000   0.00000   1.07803
  42       14F-1        0.00000   0.00000   0.00000   0.00000   0.00000
  43       14F+2        0.00000   0.00000   0.00000  -0.00000   0.00000
  44       14F-2        0.00000   0.00000   0.00000   0.00000   0.00000
  45       14F+3        0.00000   0.00000   0.00000   0.00000   0.00000
  46       14F-3        0.00000   0.00000   0.00000   0.00000   0.00000
                          26        27        28        29        30
                           V     (A2U)--V      V         V         V
     Eigenvalues --     2.57370   2.58763   2.58763   2.61148   2.61148
   1 1   F  1S          0.00000   0.00000   0.00000   0.00000   0.00000
   2        2S          0.00000   0.00000   0.00000   0.00000   0.00000
   3        3S          0.00000   0.00000   0.00000   0.00000   0.00000
   4        4S          0.00000   0.00000   0.00000   0.00000   0.00000
   5        5S          0.00000   0.00000   0.00000   0.00000   0.00000
   6        6PX         0.00000   0.00000   0.00000   0.00000   0.00000
   7        6PY        -0.00860   0.00000   0.00000   0.00000  -0.00000
   8        6PZ         0.00000   0.00000  -0.00000   0.00000   0.00000
   9        7PX         0.00000   0.00000   0.00000  -0.00000   0.00000
  10        7PY         0.01027   0.00000   0.00000   0.00000   0.00000
  11        7PZ         0.00000   0.00000   0.00000   0.00000   0.00000
  12        8PX         0.00000   0.00000   0.00000   0.00000   0.00000
  13        8PY        -0.01547   0.00000   0.00000   0.00000  -0.00000
  14        8PZ         0.00000   0.00000   0.00000   0.00000   0.00000
  15        9PX         0.00000   0.00000   0.00000  -0.00000   0.00000
  16        9PY         0.00528   0.00000   0.00000   0.00000   0.00000
  17        9PZ         0.00000   0.00000  -0.00000   0.00000   0.00000
  18       10D 0        0.00000   0.00000   0.00000   0.00000   0.00000
  19       10D+1        0.00000   0.00000   0.00000   0.00000   0.00000
  20       10D-1        0.00000   0.00000   0.00000   0.00000   0.00000
  21       10D+2        0.00000   0.00000   0.00000   0.00000   0.00000
  22       10D-2        0.00000   0.00000   0.00000   0.00000   0.00000
  23       11D 0        0.00000   0.00000   0.00000   0.00000   0.00000
  24       11D+1        0.00000   0.00000   0.00000   0.00000   0.00000
  25       11D-1        0.00000   0.00000   0.00000   0.00000   0.00000
  26       11D+2        0.00000   0.00000   0.00000   0.00000   0.00000
  27       11D-2        0.00000   0.00000   0.00000   0.00000   0.00000
  28       12D 0        0.00000   0.00000   0.00000   0.00000   0.00000
  29       12D+1        0.00000   0.00000   0.00000   0.00000   0.00000
  30       12D-1        0.00000   0.00000   0.00000   0.00000   0.00000
  31       12D+2        0.00000   0.00000   0.00000   0.00000   0.00000
  32       12D-2        0.00000   0.00000   0.00000   0.00000   0.00000
  33       13F 0        0.00000   0.00000  -0.00000   0.00000   0.00000
  34       13F+1        0.00000   0.00000   0.00000   0.00000   0.00000
  35       13F-1       -0.14121   0.00000   0.00000   0.00000  -0.00000
  36       13F+2        0.00000   0.00000  -0.14239   0.00000   0.00000
  37       13F-2        0.00000  -0.14239   0.00000   0.00000   0.00000
  38       13F+3        0.00000   0.00000   0.00000  -0.14434   0.00000
  39       13F-3        0.00000   0.00000   0.00000   0.00000  -0.14434
  40       14F 0        0.00000   0.00000   0.00000   0.00000   0.00000
  41       14F+1        0.00000   0.00000   0.00000  -0.00000   0.00000
  42       14F-1        1.07803   0.00000   0.00000   0.00000   0.00000
  43       14F+2        0.00000   0.00000   1.07868   0.00000   0.00000
  44       14F-2        0.00000   1.07868   0.00000   0.00000   0.00000
  45       14F+3        0.00000   0.00000   0.00000   1.07966   0.00000
  46       14F-3       -0.00000   0.00000   0.00000   0.00000   1.07966
                          31        32        33        34        35
                           V         V         V         V         V
     Eigenvalues --     4.50909   4.58324   4.58324   8.14305   8.15297
   1 1   F  1S          0.00000   0.00000   0.00000   0.00000   0.00000
   2        2S          0.00000   0.00000   0.00000   0.00000   0.00000
   3        3S          0.00000   0.00000   0.00000   0.00000   0.00000
   4        4S          0.00000   0.00000   0.00000   0.00000   0.00000
   5        5S          0.00000   0.00000   0.00000   0.00000   0.00000
   6        6PX         0.00000  -1.21310   0.00000   0.00000   0.00170
   7        6PY         0.00000   0.00000  -1.21310   0.00000   0.00000
   8        6PZ        -1.21143   0.00000   0.00000   0.00196   0.00000
   9        7PX         0.00000   1.54050   0.00000   0.00000  -0.00977
  10        7PY         0.00000   0.00000   1.54050   0.00000   0.00000
  11        7PZ         1.54430   0.00000   0.00000  -0.01172   0.00000
  12        8PX         0.00000  -0.83271   0.00000   0.00000   0.00546
  13        8PY         0.00000   0.00000  -0.83271   0.00000   0.00000
  14        8PZ        -0.84017   0.00000   0.00000   0.00656   0.00000
  15        9PX         0.00000   0.26063   0.00000   0.00000  -0.00166
  16        9PY         0.00000   0.00000   0.26063   0.00000   0.00000
  17        9PZ         0.26356   0.00000   0.00000  -0.00200   0.00000
  18       10D 0        0.00000   0.00000   0.00000   0.00000   0.00000
  19       10D+1        0.00000   0.00000   0.00000   0.00000   0.00000
  20       10D-1        0.00000   0.00000   0.00000   0.00000   0.00000
  21       10D+2        0.00000   0.00000   0.00000   0.00000   0.00000
  22       10D-2        0.00000   0.00000   0.00000   0.00000   0.00000
  23       11D 0        0.00000   0.00000   0.00000   0.00000   0.00000
  24       11D+1        0.00000   0.00000   0.00000   0.00000   0.00000
  25       11D-1        0.00000   0.00000   0.00000   0.00000   0.00000
  26       11D+2        0.00000   0.00000   0.00000   0.00000   0.00000
  27       11D-2        0.00000   0.00000   0.00000   0.00000   0.00000
  28       12D 0        0.00000   0.00000   0.00000   0.00000   0.00000
  29       12D+1        0.00000   0.00000   0.00000   0.00000   0.00000
  30       12D-1        0.00000   0.00000   0.00000   0.00000   0.00000
  31       12D+2        0.00000   0.00000   0.00000   0.00000   0.00000
  32       12D-2        0.00000   0.00000   0.00000   0.00000   0.00000
  33       13F 0        0.00649   0.00000   0.00000   1.24012   0.00000
  34       13F+1        0.00000   0.00539   0.00000   0.00000   1.24009
  35       13F-1        0.00000   0.00000   0.00539   0.00000   0.00000
  36       13F+2       -0.00000   0.00000   0.00000   0.00000   0.00000
  37       13F-2        0.00000   0.00000   0.00000   0.00000   0.00000
  38       13F+3        0.00000  -0.00000   0.00000   0.00000   0.00000
  39       13F-3        0.00000   0.00000   0.00000   0.00000   0.00000
  40       14F 0       -0.01114   0.00000   0.00000  -0.62923   0.00000
  41       14F+1        0.00000  -0.00893   0.00000   0.00000  -0.62891
  42       14F-1        0.00000   0.00000  -0.00893   0.00000   0.00000
  43       14F+2        0.00000   0.00000   0.00000  -0.00000   0.00000
  44       14F-2        0.00000   0.00000   0.00000   0.00000   0.00000
  45       14F+3        0.00000   0.00000   0.00000   0.00000  -0.00000
  46       14F-3        0.00000   0.00000  -0.00000   0.00000   0.00000
                          36        37        38        39        40
                           V         V     (A2U)--V      V         V
     Eigenvalues --     8.15297   8.18184   8.18184   8.23100   8.23100
   1 1   F  1S          0.00000   0.00000   0.00000   0.00000   0.00000
   2        2S          0.00000   0.00000   0.00000   0.00000   0.00000
   3        3S          0.00000   0.00000   0.00000   0.00000   0.00000
   4        4S          0.00000   0.00000   0.00000   0.00000   0.00000
   5        5S          0.00000   0.00000   0.00000   0.00000   0.00000
   6        6PX         0.00000   0.00000   0.00000  -0.00000   0.00000
   7        6PY         0.00170   0.00000   0.00000   0.00000   0.00000
   8        6PZ         0.00000  -0.00000   0.00000   0.00000   0.00000
   9        7PX         0.00000   0.00000   0.00000   0.00000   0.00000
  10        7PY        -0.00977   0.00000   0.00000   0.00000  -0.00000
  11        7PZ         0.00000   0.00000   0.00000   0.00000   0.00000
  12        8PX         0.00000   0.00000   0.00000  -0.00000   0.00000
  13        8PY         0.00546   0.00000   0.00000   0.00000   0.00000
  14        8PZ         0.00000  -0.00000   0.00000   0.00000   0.00000
  15        9PX         0.00000   0.00000   0.00000   0.00000   0.00000
  16        9PY        -0.00166   0.00000   0.00000   0.00000  -0.00000
  17        9PZ         0.00000   0.00000   0.00000   0.00000   0.00000
  18       10D 0        0.00000   0.00000   0.00000   0.00000   0.00000
  19       10D+1        0.00000   0.00000   0.00000   0.00000   0.00000
  20       10D-1        0.00000   0.00000   0.00000   0.00000   0.00000
  21       10D+2        0.00000   0.00000   0.00000   0.00000   0.00000
  22       10D-2        0.00000   0.00000   0.00000   0.00000   0.00000
  23       11D 0        0.00000   0.00000   0.00000   0.00000   0.00000
  24       11D+1        0.00000   0.00000   0.00000   0.00000   0.00000
  25       11D-1        0.00000   0.00000   0.00000   0.00000   0.00000
  26       11D+2        0.00000   0.00000   0.00000   0.00000   0.00000
  27       11D-2        0.00000   0.00000   0.00000   0.00000   0.00000
  28       12D 0        0.00000   0.00000   0.00000   0.00000   0.00000
  29       12D+1        0.00000   0.00000   0.00000   0.00000   0.00000
  30       12D-1        0.00000   0.00000   0.00000   0.00000   0.00000
  31       12D+2        0.00000   0.00000   0.00000   0.00000   0.00000
  32       12D-2        0.00000   0.00000   0.00000   0.00000   0.00000
  33       13F 0        0.00000  -0.00000   0.00000   0.00000   0.00000
  34       13F+1        0.00000   0.00000   0.00000  -0.00000   0.00000
  35       13F-1        1.24009   0.00000   0.00000   0.00000   0.00000
  36       13F+2        0.00000   1.23998   0.00000   0.00000   0.00000
  37       13F-2        0.00000   0.00000   1.23998   0.00000   0.00000
  38       13F+3        0.00000   0.00000   0.00000   1.23975   0.00000
  39       13F-3       -0.00000   0.00000   0.00000   0.00000   1.23975
  40       14F 0        0.00000   0.00000   0.00000   0.00000   0.00000
  41       14F+1        0.00000   0.00000   0.00000   0.00000   0.00000
  42       14F-1       -0.62891   0.00000   0.00000   0.00000  -0.00000
  43       14F+2        0.00000  -0.62792   0.00000   0.00000   0.00000
  44       14F-2        0.00000   0.00000  -0.62792   0.00000   0.00000
  45       14F+3        0.00000   0.00000   0.00000  -0.62622   0.00000
  46       14F-3        0.00000   0.00000   0.00000   0.00000  -0.62622
                          41        42        43        44        45
                       (T2G)--V  (T2G)--V  (T2G)--V  (T2G)--V  (T2G)--V
     Eigenvalues --     8.50430   8.52818   8.52818   8.59882   8.59882
   1 1   F  1S         -0.02436   0.00000   0.00000   0.00000   0.00000
   2        2S         -0.07700   0.00000   0.00000   0.00000   0.00000
   3        3S          0.04633   0.00000   0.00000   0.00000  -0.00000
   4        4S          0.05416   0.00000   0.00000   0.00000  -0.00000
   5        5S         -0.01673   0.00000   0.00000   0.00000   0.00000
   6        6PX         0.00000   0.00000   0.00000   0.00000   0.00000
   7        6PY         0.00000   0.00000   0.00000   0.00000   0.00000
   8        6PZ         0.00000   0.00000   0.00000   0.00000   0.00000
   9        7PX         0.00000   0.00000   0.00000   0.00000   0.00000
  10        7PY         0.00000   0.00000   0.00000   0.00000   0.00000
  11        7PZ         0.00000   0.00000   0.00000   0.00000   0.00000
  12        8PX         0.00000   0.00000   0.00000   0.00000   0.00000
  13        8PY         0.00000   0.00000   0.00000   0.00000   0.00000
  14        8PZ         0.00000   0.00000   0.00000   0.00000   0.00000
  15        9PX         0.00000   0.00000   0.00000   0.00000   0.00000
  16        9PY         0.00000   0.00000   0.00000   0.00000   0.00000
  17        9PZ         0.00000   0.00000   0.00000   0.00000   0.00000
  18       10D 0        1.20065   0.00000   0.00000   0.00000  -0.00000
  19       10D+1        0.00000   1.20095   0.00000   0.00000   0.00000
  20       10D-1        0.00000   0.00000   1.20095   0.00000   0.00000
  21       10D+2        0.00000   0.00000   0.00000   0.00000   1.20099
  22       10D-2        0.00000   0.00000   0.00000   1.20099   0.00000
  23       11D 0       -0.84192   0.00000   0.00000   0.00000   0.00000
  24       11D+1        0.00000  -0.84112   0.00000   0.00000   0.00000
  25       11D-1        0.00000   0.00000  -0.84112   0.00000   0.00000
  26       11D+2       -0.00000   0.00000   0.00000   0.00000  -0.83788
  27       11D-2        0.00000   0.00000   0.00000  -0.83788   0.00000
  28       12D 0        0.32805   0.00000   0.00000   0.00000  -0.00000
  29       12D+1        0.00000   0.32752   0.00000   0.00000   0.00000
  30       12D-1        0.00000   0.00000   0.32752   0.00000   0.00000
  31       12D+2        0.00000   0.00000   0.00000   0.00000   0.32562
  32       12D-2        0.00000   0.00000   0.00000   0.32562   0.00000
  33       13F 0        0.00000   0.00000   0.00000   0.00000   0.00000
  34       13F+1        0.00000   0.00000   0.00000   0.00000   0.00000
  35       13F-1        0.00000   0.00000   0.00000   0.00000   0.00000
  36       13F+2        0.00000   0.00000   0.00000   0.00000   0.00000
  37       13F-2        0.00000   0.00000   0.00000   0.00000   0.00000
  38       13F+3        0.00000   0.00000   0.00000   0.00000   0.00000
  39       13F-3        0.00000   0.00000   0.00000   0.00000   0.00000
  40       14F 0        0.00000   0.00000   0.00000   0.00000   0.00000
  41       14F+1        0.00000   0.00000   0.00000   0.00000   0.00000
  42       14F-1        0.00000   0.00000   0.00000   0.00000   0.00000
  43       14F+2        0.00000   0.00000   0.00000   0.00000   0.00000
  44       14F-2        0.00000   0.00000   0.00000   0.00000   0.00000
  45       14F+3        0.00000   0.00000   0.00000   0.00000   0.00000
  46       14F-3        0.00000   0.00000   0.00000   0.00000   0.00000
                          46
                       (T2G)--V
     Eigenvalues --     9.70939
   1 1   F  1S          1.27017
   2        2S          3.23830
   3        3S         -2.47859
   4        4S         -2.04582
   5        5S          0.61717
   6        6PX         0.00000
   7        6PY         0.00000
   8        6PZ         0.00000
   9        7PX         0.00000
  10        7PY         0.00000
  11        7PZ         0.00000
  12        8PX         0.00000
  13        8PY         0.00000
  14        8PZ         0.00000
  15        9PX         0.00000
  16        9PY         0.00000
  17        9PZ         0.00000
  18       10D 0        0.02400
  19       10D+1        0.00000
  20       10D-1        0.00000
  21       10D+2       -0.00000
  22       10D-2        0.00000
  23       11D 0       -0.02036
  24       11D+1        0.00000
  25       11D-1        0.00000
  26       11D+2        0.00000
  27       11D-2        0.00000
  28       12D 0        0.00852
  29       12D+1        0.00000
  30       12D-1        0.00000
  31       12D+2       -0.00000
  32       12D-2        0.00000
  33       13F 0        0.00000
  34       13F+1        0.00000
  35       13F-1        0.00000
  36       13F+2        0.00000
  37       13F-2        0.00000
  38       13F+3        0.00000
  39       13F-3        0.00000
  40       14F 0        0.00000
  41       14F+1        0.00000
  42       14F-1        0.00000
  43       14F+2        0.00000
  44       14F-2        0.00000
  45       14F+3        0.00000
  46       14F-3        0.00000
     Beta Molecular Orbital Coefficients:
                           1         2         3         4         5
                       (A1G)--O  (A1G)--O      O         O         V
     Eigenvalues --   -24.76493  -1.14911  -0.45193  -0.45193  -0.27808
   1 1   F  1S          0.97382  -0.23047   0.00000   0.00000   0.00000
   2        2S         -0.01088   0.54323   0.00000   0.00000   0.00000
   3        3S          0.04930   0.17558   0.00000   0.00000   0.00000
   4        4S          0.00345   0.37831   0.00000   0.00000   0.00000
   5        5S         -0.00075   0.01638   0.00000   0.00000   0.00000
   6        6PX         0.00000   0.00000   0.00000   0.40217   0.00000
   7        6PY         0.00000   0.00000   0.40217   0.00000   0.00000
   8        6PZ         0.00000   0.00000   0.00000   0.00000   0.37251
   9        7PX         0.00000   0.00000   0.00000   0.46301   0.00000
  10        7PY         0.00000   0.00000   0.46301   0.00000   0.00000
  11        7PZ         0.00000   0.00000   0.00000   0.00000   0.43759
  12        8PX         0.00000   0.00000   0.00000   0.33913   0.00000
  13        8PY         0.00000   0.00000   0.33913   0.00000   0.00000
  14        8PZ         0.00000   0.00000   0.00000   0.00000   0.37300
  15        9PX         0.00000   0.00000   0.00000   0.04663   0.00000
  16        9PY         0.00000   0.00000   0.04663   0.00000   0.00000
  17        9PZ         0.00000   0.00000   0.00000   0.00000   0.09495
  18       10D 0       -0.00052  -0.00427   0.00000   0.00000   0.00000
  19       10D+1        0.00000   0.00000   0.00000   0.00000   0.00000
  20       10D-1        0.00000   0.00000   0.00000   0.00000   0.00000
  21       10D+2       -0.00000   0.00000   0.00000   0.00000   0.00000
  22       10D-2        0.00000   0.00000   0.00000   0.00000   0.00000
  23       11D 0        0.00010  -0.00421   0.00000   0.00000   0.00000
  24       11D+1        0.00000   0.00000   0.00000   0.00000   0.00000
  25       11D-1        0.00000   0.00000   0.00000   0.00000   0.00000
  26       11D+2        0.00000  -0.00000   0.00000   0.00000   0.00000
  27       11D-2        0.00000   0.00000   0.00000   0.00000   0.00000
  28       12D 0       -0.00007  -0.00200   0.00000   0.00000   0.00000
  29       12D+1        0.00000   0.00000   0.00000   0.00000   0.00000
  30       12D-1        0.00000   0.00000   0.00000   0.00000   0.00000
  31       12D+2        0.00000   0.00000   0.00000   0.00000   0.00000
  32       12D-2        0.00000   0.00000   0.00000   0.00000   0.00000
  33       13F 0        0.00000   0.00000   0.00000   0.00000  -0.00216
  34       13F+1        0.00000   0.00000   0.00000  -0.00069   0.00000
  35       13F-1        0.00000   0.00000  -0.00069   0.00000   0.00000
  36       13F+2        0.00000   0.00000   0.00000   0.00000   0.00000
  37       13F-2        0.00000   0.00000   0.00000   0.00000   0.00000
  38       13F+3        0.00000   0.00000   0.00000  -0.00000   0.00000
  39       13F-3        0.00000   0.00000   0.00000   0.00000   0.00000
  40       14F 0        0.00000   0.00000   0.00000   0.00000  -0.00020
  41       14F+1        0.00000   0.00000   0.00000   0.00035   0.00000
  42       14F-1        0.00000   0.00000   0.00035   0.00000   0.00000
  43       14F+2        0.00000   0.00000   0.00000   0.00000  -0.00000
  44       14F-2        0.00000   0.00000   0.00000   0.00000   0.00000
  45       14F+3        0.00000   0.00000   0.00000   0.00000   0.00000
  46       14F-3        0.00000   0.00000  -0.00000   0.00000   0.00000
                           6         7         8         9        10
                       (A1G)--V      V         V         V     (T2G)--V
     Eigenvalues --     0.09226   0.12433   0.12433   0.13373   0.69982
   1 1   F  1S          0.07844   0.00000   0.00000   0.00000   0.00000
   2        2S         -0.10547   0.00000   0.00000   0.00000   0.00000
   3        3S         -0.06519   0.00000   0.00000   0.00000   0.00000
   4        4S         -0.79230   0.00000   0.00000   0.00000   0.00000
   5        5S          1.46470   0.00000   0.00000   0.00000   0.00000
   6        6PX         0.00000  -0.12564   0.00000   0.00000   0.00000
   7        6PY         0.00000   0.00000  -0.12564   0.00000   0.00000
   8        6PZ         0.00000   0.00000   0.00000  -0.14279   0.00000
   9        7PX         0.00000  -0.10924   0.00000   0.00000   0.00000
  10        7PY         0.00000   0.00000  -0.10924   0.00000   0.00000
  11        7PZ         0.00000   0.00000   0.00000  -0.13155   0.00000
  12        8PX         0.00000  -0.29575   0.00000   0.00000   0.00000
  13        8PY         0.00000   0.00000  -0.29575   0.00000   0.00000
  14        8PZ         0.00000   0.00000   0.00000  -0.33913   0.00000
  15        9PX         0.00000   1.13465   0.00000   0.00000   0.00000
  16        9PY         0.00000   0.00000   1.13465   0.00000   0.00000
  17        9PZ         0.00000   0.00000   0.00000   1.13948   0.00000
  18       10D 0        0.00111   0.00000   0.00000   0.00000   0.00000
  19       10D+1        0.00000   0.00000   0.00000   0.00000   0.00000
  20       10D-1        0.00000   0.00000   0.00000   0.00000   0.03844
  21       10D+2        0.00000   0.00000   0.00000   0.00000   0.00000
  22       10D-2        0.00000   0.00000   0.00000   0.00000   0.00000
  23       11D 0        0.00027   0.00000   0.00000   0.00000   0.00000
  24       11D+1        0.00000   0.00000   0.00000   0.00000   0.00000
  25       11D-1        0.00000   0.00000   0.00000   0.00000  -0.10091
  26       11D+2       -0.00000   0.00000   0.00000   0.00000   0.00000
  27       11D-2        0.00000   0.00000   0.00000   0.00000   0.00000
  28       12D 0        0.00148   0.00000   0.00000   0.00000   0.00000
  29       12D+1        0.00000   0.00000   0.00000   0.00000   0.00000
  30       12D-1        0.00000   0.00000   0.00000   0.00000   1.05499
  31       12D+2        0.00000   0.00000   0.00000   0.00000   0.00000
  32       12D-2        0.00000   0.00000   0.00000   0.00000   0.00000
  33       13F 0        0.00000   0.00000   0.00000   0.00067   0.00000
  34       13F+1        0.00000   0.00009   0.00000   0.00000   0.00000
  35       13F-1        0.00000   0.00000   0.00009   0.00000   0.00000
  36       13F+2        0.00000   0.00000   0.00000  -0.00000   0.00000
  37       13F-2        0.00000   0.00000   0.00000   0.00000   0.00000
  38       13F+3        0.00000   0.00000   0.00000   0.00000   0.00000
  39       13F-3        0.00000   0.00000  -0.00000   0.00000   0.00000
  40       14F 0        0.00000   0.00000   0.00000   0.00005   0.00000
  41       14F+1        0.00000   0.00016   0.00000   0.00000   0.00000
  42       14F-1        0.00000   0.00000   0.00016   0.00000   0.00000
  43       14F+2        0.00000   0.00000   0.00000   0.00000   0.00000
  44       14F-2        0.00000   0.00000   0.00000   0.00000   0.00000
  45       14F+3        0.00000  -0.00000   0.00000   0.00000   0.00000
  46       14F-3        0.00000   0.00000   0.00000   0.00000   0.00000
                          11        12        13        14        15
                       (T2G)--V  (T2G)--V   (EG)--V   (EG)--V      V
     Eigenvalues --     0.69982   0.70056   0.70056   0.70307   0.90047
   1 1   F  1S          0.00000   0.00000  -0.00000  -0.00118   0.00000
   2        2S          0.00000   0.00000  -0.00000  -0.00226   0.00000
   3        3S          0.00000   0.00000  -0.00000   0.00006   0.00000
   4        4S          0.00000   0.00000   0.00000   0.01180   0.00000
   5        5S          0.00000   0.00000  -0.00000  -0.00604   0.00000
   6        6PX         0.00000   0.00000   0.00000   0.00000  -0.28594
   7        6PY         0.00000   0.00000   0.00000   0.00000   0.00000
   8        6PZ         0.00000   0.00000   0.00000   0.00000   0.00000
   9        7PX         0.00000   0.00000   0.00000   0.00000  -0.72640
  10        7PY         0.00000   0.00000   0.00000   0.00000   0.00000
  11        7PZ         0.00000   0.00000   0.00000   0.00000   0.00000
  12        8PX         0.00000   0.00000   0.00000   0.00000   1.53070
  13        8PY         0.00000   0.00000   0.00000   0.00000   0.00000
  14        8PZ         0.00000   0.00000   0.00000   0.00000   0.00000
  15        9PX         0.00000   0.00000   0.00000   0.00000  -0.68326
  16        9PY         0.00000   0.00000   0.00000   0.00000   0.00000
  17        9PZ         0.00000   0.00000   0.00000   0.00000   0.00000
  18       10D 0        0.00000   0.00000  -0.00000   0.03806   0.00000
  19       10D+1        0.03844   0.00000   0.00000   0.00000   0.00000
  20       10D-1        0.00000   0.00000   0.00000   0.00000   0.00000
  21       10D+2        0.00000   0.00000   0.03903   0.00000   0.00000
  22       10D-2        0.00000   0.03903   0.00000   0.00000   0.00000
  23       11D 0        0.00000   0.00000   0.00000  -0.10280   0.00000
  24       11D+1       -0.10091   0.00000   0.00000   0.00000   0.00000
  25       11D-1        0.00000   0.00000   0.00000   0.00000   0.00000
  26       11D+2        0.00000   0.00000  -0.09831  -0.00000   0.00000
  27       11D-2        0.00000  -0.09831   0.00000   0.00000   0.00000
  28       12D 0        0.00000   0.00000  -0.00000   1.05610   0.00000
  29       12D+1        1.05499   0.00000   0.00000   0.00000   0.00000
  30       12D-1        0.00000   0.00000   0.00000   0.00000   0.00000
  31       12D+2        0.00000   0.00000   1.05343   0.00000   0.00000
  32       12D-2        0.00000   1.05343   0.00000   0.00000   0.00000
  33       13F 0        0.00000   0.00000   0.00000   0.00000   0.00000
  34       13F+1        0.00000   0.00000   0.00000   0.00000   0.00001
  35       13F-1        0.00000   0.00000   0.00000   0.00000   0.00000
  36       13F+2        0.00000   0.00000   0.00000   0.00000   0.00000
  37       13F-2        0.00000   0.00000   0.00000   0.00000   0.00000
  38       13F+3        0.00000   0.00000   0.00000   0.00000   0.00000
  39       13F-3        0.00000   0.00000   0.00000   0.00000   0.00000
  40       14F 0        0.00000   0.00000   0.00000   0.00000   0.00000
  41       14F+1        0.00000   0.00000   0.00000   0.00000   0.00138
  42       14F-1        0.00000   0.00000   0.00000   0.00000   0.00000
  43       14F+2        0.00000   0.00000   0.00000   0.00000   0.00000
  44       14F-2        0.00000   0.00000   0.00000   0.00000   0.00000
  45       14F+3        0.00000   0.00000   0.00000   0.00000  -0.00000
  46       14F-3        0.00000   0.00000   0.00000   0.00000   0.00000
                          16        17        18        19        20
                           V         V     (A1G)--V  (T2G)--V   (EG)--V
     Eigenvalues --     0.90047   0.92417   1.36991   2.50436   2.50436
   1 1   F  1S          0.00000   0.00000   0.04575   0.00000   0.00000
   2        2S          0.00000   0.00000  -1.48792   0.00000   0.00000
   3        3S          0.00000   0.00000  -0.36443   0.00000  -0.00000
   4        4S          0.00000   0.00000   2.58800   0.00000   0.00000
   5        5S          0.00000   0.00000  -1.08159   0.00000  -0.00000
   6        6PX         0.00000   0.00000   0.00000   0.00000   0.00000
   7        6PY        -0.28594   0.00000   0.00000   0.00000   0.00000
   8        6PZ         0.00000  -0.29424   0.00000   0.00000   0.00000
   9        7PX         0.00000   0.00000   0.00000   0.00000   0.00000
  10        7PY        -0.72640   0.00000   0.00000   0.00000   0.00000
  11        7PZ         0.00000  -0.75765   0.00000   0.00000   0.00000
  12        8PX         0.00000   0.00000   0.00000   0.00000   0.00000
  13        8PY         1.53070   0.00000   0.00000   0.00000   0.00000
  14        8PZ         0.00000   1.51797   0.00000   0.00000   0.00000
  15        9PX         0.00000   0.00000   0.00000   0.00000   0.00000
  16        9PY        -0.68326   0.00000   0.00000   0.00000   0.00000
  17        9PZ         0.00000  -0.67102   0.00000   0.00000   0.00000
  18       10D 0        0.00000   0.00000   0.00291   0.00000   0.00000
  19       10D+1        0.00000   0.00000   0.00000   0.00000   0.00000
  20       10D-1        0.00000   0.00000   0.00000   0.00000   0.00000
  21       10D+2        0.00000   0.00000  -0.00000   0.00000   0.01571
  22       10D-2        0.00000   0.00000   0.00000   0.01571   0.00000
  23       11D 0        0.00000   0.00000   0.00469   0.00000   0.00000
  24       11D+1        0.00000   0.00000   0.00000   0.00000   0.00000
  25       11D-1        0.00000   0.00000   0.00000   0.00000   0.00000
  26       11D+2        0.00000   0.00000  -0.00000   0.00000   1.25823
  27       11D-2        0.00000   0.00000   0.00000   1.25823   0.00000
  28       12D 0        0.00000   0.00000  -0.00626   0.00000  -0.00000
  29       12D+1        0.00000   0.00000   0.00000   0.00000   0.00000
  30       12D-1        0.00000   0.00000   0.00000   0.00000   0.00000
  31       12D+2        0.00000   0.00000  -0.00000   0.00000  -0.72285
  32       12D-2        0.00000   0.00000   0.00000  -0.72285   0.00000
  33       13F 0        0.00000   0.00127   0.00000   0.00000   0.00000
  34       13F+1        0.00000   0.00000   0.00000   0.00000   0.00000
  35       13F-1        0.00001   0.00000   0.00000   0.00000   0.00000
  36       13F+2        0.00000   0.00000   0.00000   0.00000   0.00000
  37       13F-2        0.00000   0.00000   0.00000   0.00000   0.00000
  38       13F+3        0.00000   0.00000   0.00000   0.00000   0.00000
  39       13F-3       -0.00000   0.00000   0.00000   0.00000   0.00000
  40       14F 0        0.00000   0.00033   0.00000   0.00000   0.00000
  41       14F+1        0.00000   0.00000   0.00000   0.00000   0.00000
  42       14F-1        0.00138   0.00000   0.00000   0.00000   0.00000
  43       14F+2        0.00000  -0.00000   0.00000   0.00000   0.00000
  44       14F-2        0.00000   0.00000   0.00000   0.00000   0.00000
  45       14F+3        0.00000   0.00000   0.00000   0.00000   0.00000
  46       14F-3        0.00000   0.00000   0.00000   0.00000   0.00000
                          21        22        23        24        25
                       (T2G)--V  (T2G)--V   (EG)--V  (A2U)--V      V
     Eigenvalues --     2.50916   2.50916   2.52023   2.60670   2.60670
   1 1   F  1S          0.00000   0.00000  -0.00066   0.00000   0.00000
   2        2S          0.00000   0.00000   0.01297   0.00000   0.00000
   3        3S          0.00000   0.00000   0.00139   0.00000   0.00000
   4        4S          0.00000   0.00000  -0.01150   0.00000   0.00000
   5        5S          0.00000   0.00000   0.00465   0.00000   0.00000
   6        6PX         0.00000   0.00000   0.00000   0.00000   0.00000
   7        6PY         0.00000   0.00000   0.00000   0.00000   0.00000
   8        6PZ         0.00000   0.00000   0.00000   0.00000   0.00000
   9        7PX         0.00000   0.00000   0.00000   0.00000   0.00000
  10        7PY         0.00000   0.00000   0.00000   0.00000   0.00000
  11        7PZ         0.00000   0.00000   0.00000   0.00000   0.00000
  12        8PX         0.00000   0.00000   0.00000   0.00000   0.00000
  13        8PY         0.00000   0.00000   0.00000   0.00000   0.00000
  14        8PZ         0.00000   0.00000   0.00000   0.00000   0.00000
  15        9PX         0.00000   0.00000   0.00000   0.00000   0.00000
  16        9PY         0.00000   0.00000   0.00000   0.00000   0.00000
  17        9PZ         0.00000   0.00000   0.00000   0.00000  -0.00000
  18       10D 0        0.00000   0.00000   0.01175   0.00000   0.00000
  19       10D+1        0.00000   0.01357   0.00000   0.00000   0.00000
  20       10D-1        0.01357   0.00000   0.00000   0.00000   0.00000
  21       10D+2        0.00000   0.00000  -0.00000   0.00000   0.00000
  22       10D-2        0.00000   0.00000   0.00000   0.00000   0.00000
  23       11D 0        0.00000   0.00000   1.26064   0.00000   0.00000
  24       11D+1        0.00000   1.25955   0.00000   0.00000   0.00000
  25       11D-1        1.25955   0.00000   0.00000   0.00000   0.00000
  26       11D+2        0.00000   0.00000  -0.00000   0.00000   0.00000
  27       11D-2        0.00000   0.00000   0.00000   0.00000   0.00000
  28       12D 0        0.00000   0.00000  -0.71966   0.00000   0.00000
  29       12D+1        0.00000  -0.72096   0.00000   0.00000   0.00000
  30       12D-1       -0.72096   0.00000   0.00000   0.00000   0.00000
  31       12D+2        0.00000   0.00000   0.00000   0.00000   0.00000
  32       12D-2        0.00000   0.00000   0.00000   0.00000   0.00000
  33       13F 0        0.00000   0.00000   0.00000   0.00000  -0.00000
  34       13F+1        0.00000   0.00000   0.00000   0.00000   0.00000
  35       13F-1        0.00000   0.00000   0.00000   0.00000   0.00000
  36       13F+2        0.00000   0.00000   0.00000   0.00000  -0.14488
  37       13F-2        0.00000   0.00000   0.00000  -0.14488   0.00000
  38       13F+3        0.00000   0.00000   0.00000   0.00000   0.00000
  39       13F-3        0.00000   0.00000   0.00000   0.00000   0.00000
  40       14F 0        0.00000   0.00000   0.00000   0.00000   0.00000
  41       14F+1        0.00000   0.00000   0.00000   0.00000   0.00000
  42       14F-1        0.00000   0.00000   0.00000   0.00000   0.00000
  43       14F+2        0.00000   0.00000   0.00000   0.00000   1.07993
  44       14F-2        0.00000   0.00000   0.00000   1.07993   0.00000
  45       14F+3        0.00000   0.00000   0.00000   0.00000   0.00000
  46       14F-3        0.00000   0.00000   0.00000   0.00000   0.00000
                          26        27        28        29        30
                           V         V         V         V         V
     Eigenvalues --     2.60711   2.60711   2.60917   2.61058   2.61058
   1 1   F  1S          0.00000   0.00000   0.00000   0.00000   0.00000
   2        2S          0.00000   0.00000   0.00000   0.00000   0.00000
   3        3S          0.00000   0.00000   0.00000   0.00000   0.00000
   4        4S          0.00000   0.00000   0.00000   0.00000   0.00000
   5        5S          0.00000   0.00000   0.00000   0.00000   0.00000
   6        6PX         0.00006   0.00000   0.00000   0.00000  -0.00000
   7        6PY         0.00000   0.00006   0.00000   0.00000   0.00000
   8        6PZ         0.00000   0.00000   0.00181   0.00000   0.00000
   9        7PX         0.00148   0.00000   0.00000   0.00000   0.00000
  10        7PY         0.00000   0.00148   0.00000  -0.00000   0.00000
  11        7PZ         0.00000   0.00000   0.00009   0.00000   0.00000
  12        8PX        -0.00229   0.00000   0.00000   0.00000  -0.00000
  13        8PY         0.00000  -0.00229   0.00000   0.00000   0.00000
  14        8PZ         0.00000   0.00000  -0.00018   0.00000   0.00000
  15        9PX         0.00079   0.00000   0.00000   0.00000   0.00000
  16        9PY         0.00000   0.00079   0.00000  -0.00000   0.00000
  17        9PZ         0.00000   0.00000   0.00012   0.00000   0.00000
  18       10D 0        0.00000   0.00000   0.00000   0.00000   0.00000
  19       10D+1        0.00000   0.00000   0.00000   0.00000   0.00000
  20       10D-1        0.00000   0.00000   0.00000   0.00000   0.00000
  21       10D+2        0.00000   0.00000   0.00000   0.00000   0.00000
  22       10D-2        0.00000   0.00000   0.00000   0.00000   0.00000
  23       11D 0        0.00000   0.00000   0.00000   0.00000   0.00000
  24       11D+1        0.00000   0.00000   0.00000   0.00000   0.00000
  25       11D-1        0.00000   0.00000   0.00000   0.00000   0.00000
  26       11D+2        0.00000   0.00000   0.00000   0.00000   0.00000
  27       11D-2        0.00000   0.00000   0.00000   0.00000   0.00000
  28       12D 0        0.00000   0.00000   0.00000   0.00000   0.00000
  29       12D+1        0.00000   0.00000   0.00000   0.00000   0.00000
  30       12D-1        0.00000   0.00000   0.00000   0.00000   0.00000
  31       12D+2        0.00000   0.00000   0.00000   0.00000   0.00000
  32       12D-2        0.00000   0.00000   0.00000   0.00000   0.00000
  33       13F 0        0.00000   0.00000  -0.14561   0.00000   0.00000
  34       13F+1       -0.14525   0.00000   0.00000   0.00000  -0.00000
  35       13F-1        0.00000  -0.14525   0.00000   0.00000   0.00000
  36       13F+2        0.00000   0.00000   0.00000   0.00000   0.00000
  37       13F-2        0.00000   0.00000   0.00000   0.00000   0.00000
  38       13F+3        0.00000   0.00000   0.00000   0.00000  -0.14474
  39       13F-3        0.00000  -0.00000   0.00000  -0.14474   0.00000
  40       14F 0        0.00000   0.00000   1.08030   0.00000   0.00000
  41       14F+1        1.08012   0.00000   0.00000   0.00000   0.00000
  42       14F-1        0.00000   1.08012   0.00000  -0.00000   0.00000
  43       14F+2        0.00000   0.00000  -0.00000   0.00000   0.00000
  44       14F-2        0.00000   0.00000   0.00000   0.00000   0.00000
  45       14F+3       -0.00000   0.00000   0.00000   0.00000   1.07986
  46       14F-3        0.00000   0.00000   0.00000   1.07986   0.00000
                          31        32        33        34        35
                       (T1U)--V  (T1U)--V  (T1U)--V  (A2U)--V      V
     Eigenvalues --     4.60809   4.60809   4.64656   8.23327   8.23327
   1 1   F  1S          0.00000   0.00000   0.00000   0.00000   0.00000
   2        2S          0.00000   0.00000   0.00000   0.00000   0.00000
   3        3S          0.00000   0.00000   0.00000   0.00000   0.00000
   4        4S          0.00000   0.00000   0.00000   0.00000   0.00000
   5        5S          0.00000   0.00000   0.00000   0.00000   0.00000
   6        6PX        -1.21441   0.00000   0.00000   0.00000   0.00000
   7        6PY         0.00000  -1.21441   0.00000   0.00000   0.00000
   8        6PZ         0.00000   0.00000  -1.21997   0.00000  -0.00000
   9        7PX         1.53812   0.00000   0.00000   0.00000   0.00000
  10        7PY         0.00000   1.53812   0.00000   0.00000   0.00000
  11        7PZ         0.00000   0.00000   1.52871   0.00000   0.00000
  12        8PX        -0.82952   0.00000   0.00000   0.00000   0.00000
  13        8PY         0.00000  -0.82952   0.00000   0.00000   0.00000
  14        8PZ         0.00000   0.00000  -0.82175   0.00000  -0.00000
  15        9PX         0.25955   0.00000   0.00000   0.00000   0.00000
  16        9PY         0.00000   0.25955   0.00000   0.00000   0.00000
  17        9PZ         0.00000   0.00000   0.25717   0.00000  -0.00000
  18       10D 0        0.00000   0.00000   0.00000   0.00000   0.00000
  19       10D+1        0.00000   0.00000   0.00000   0.00000   0.00000
  20       10D-1        0.00000   0.00000   0.00000   0.00000   0.00000
  21       10D+2        0.00000   0.00000   0.00000   0.00000   0.00000
  22       10D-2        0.00000   0.00000   0.00000   0.00000   0.00000
  23       11D 0        0.00000   0.00000   0.00000   0.00000   0.00000
  24       11D+1        0.00000   0.00000   0.00000   0.00000   0.00000
  25       11D-1        0.00000   0.00000   0.00000   0.00000   0.00000
  26       11D+2        0.00000   0.00000   0.00000   0.00000   0.00000
  27       11D-2        0.00000   0.00000   0.00000   0.00000   0.00000
  28       12D 0        0.00000   0.00000   0.00000   0.00000   0.00000
  29       12D+1        0.00000   0.00000   0.00000   0.00000   0.00000
  30       12D-1        0.00000   0.00000   0.00000   0.00000   0.00000
  31       12D+2        0.00000   0.00000   0.00000   0.00000   0.00000
  32       12D-2        0.00000   0.00000   0.00000   0.00000   0.00000
  33       13F 0        0.00000   0.00000   0.00175   0.00000  -0.00000
  34       13F+1        0.00183   0.00000   0.00000   0.00000   0.00000
  35       13F-1        0.00000   0.00183   0.00000   0.00000   0.00000
  36       13F+2        0.00000   0.00000  -0.00000   0.00000   1.23969
  37       13F-2        0.00000   0.00000   0.00000   1.23969   0.00000
  38       13F+3        0.00000   0.00000   0.00000   0.00000   0.00000
  39       13F-3        0.00000  -0.00000   0.00000   0.00000   0.00000
  40       14F 0        0.00000   0.00000  -0.00006   0.00000   0.00000
  41       14F+1       -0.00122   0.00000   0.00000   0.00000   0.00000
  42       14F-1        0.00000  -0.00122   0.00000   0.00000   0.00000
  43       14F+2        0.00000   0.00000   0.00000   0.00000  -0.62575
  44       14F-2        0.00000   0.00000   0.00000  -0.62575   0.00000
  45       14F+3       -0.00000   0.00000   0.00000   0.00000   0.00000
  46       14F-3        0.00000   0.00000   0.00000   0.00000   0.00000
                          36        37        38        39        40
                           V         V         V         V         V
     Eigenvalues --     8.23650   8.23650   8.23892   8.23892   8.24744
   1 1   F  1S          0.00000   0.00000   0.00000   0.00000   0.00000
   2        2S          0.00000   0.00000   0.00000   0.00000   0.00000
   3        3S          0.00000   0.00000   0.00000   0.00000   0.00000
   4        4S          0.00000   0.00000   0.00000   0.00000   0.00000
   5        5S          0.00000   0.00000   0.00000   0.00000   0.00000
   6        6PX        -0.00000   0.00000   0.00203   0.00000   0.00000
   7        6PY         0.00000   0.00000   0.00000   0.00203   0.00000
   8        6PZ         0.00000   0.00000   0.00000   0.00000   0.00296
   9        7PX         0.00000   0.00000  -0.00182   0.00000   0.00000
  10        7PY         0.00000  -0.00000   0.00000  -0.00182   0.00000
  11        7PZ         0.00000   0.00000   0.00000   0.00000  -0.00054
  12        8PX        -0.00000   0.00000   0.00115   0.00000   0.00000
  13        8PY         0.00000   0.00000   0.00000   0.00115   0.00000
  14        8PZ         0.00000   0.00000   0.00000   0.00000   0.00042
  15        9PX         0.00000   0.00000  -0.00034   0.00000   0.00000
  16        9PY         0.00000  -0.00000   0.00000  -0.00034   0.00000
  17        9PZ         0.00000   0.00000   0.00000   0.00000  -0.00012
  18       10D 0        0.00000   0.00000   0.00000   0.00000   0.00000
  19       10D+1        0.00000   0.00000   0.00000   0.00000   0.00000
  20       10D-1        0.00000   0.00000   0.00000   0.00000   0.00000
  21       10D+2        0.00000   0.00000   0.00000   0.00000   0.00000
  22       10D-2        0.00000   0.00000   0.00000   0.00000   0.00000
  23       11D 0        0.00000   0.00000   0.00000   0.00000   0.00000
  24       11D+1        0.00000   0.00000   0.00000   0.00000   0.00000
  25       11D-1        0.00000   0.00000   0.00000   0.00000   0.00000
  26       11D+2        0.00000   0.00000   0.00000   0.00000   0.00000
  27       11D-2        0.00000   0.00000   0.00000   0.00000   0.00000
  28       12D 0        0.00000   0.00000   0.00000   0.00000   0.00000
  29       12D+1        0.00000   0.00000   0.00000   0.00000   0.00000
  30       12D-1        0.00000   0.00000   0.00000   0.00000   0.00000
  31       12D+2        0.00000   0.00000   0.00000   0.00000   0.00000
  32       12D-2        0.00000   0.00000   0.00000   0.00000   0.00000
  33       13F 0        0.00000   0.00000   0.00000   0.00000   1.23960
  34       13F+1       -0.00000   0.00000   1.23964   0.00000   0.00000
  35       13F-1        0.00000   0.00000   0.00000   1.23964   0.00000
  36       13F+2        0.00000   0.00000   0.00000   0.00000   0.00000
  37       13F-2        0.00000   0.00000   0.00000   0.00000   0.00000
  38       13F+3        1.23971   0.00000   0.00000   0.00000   0.00000
  39       13F-3        0.00000   1.23971   0.00000  -0.00000   0.00000
  40       14F 0        0.00000   0.00000   0.00000   0.00000  -0.62512
  41       14F+1        0.00000   0.00000  -0.62542   0.00000   0.00000
  42       14F-1        0.00000  -0.00000   0.00000  -0.62542   0.00000
  43       14F+2        0.00000   0.00000   0.00000   0.00000  -0.00000
  44       14F-2        0.00000   0.00000   0.00000   0.00000   0.00000
  45       14F+3       -0.62587   0.00000  -0.00000   0.00000   0.00000
  46       14F-3        0.00000  -0.62587   0.00000   0.00000   0.00000
                          41        42        43        44        45
                       (T2G)--V  (T2G)--V  (T2G)--V  (T2G)--V  (T2G)--V
     Eigenvalues --     8.61605   8.61605   8.63626   8.63626   8.66471
   1 1   F  1S          0.00000   0.00000   0.00000   0.00000   0.02192
   2        2S          0.00000   0.00000   0.00000   0.00000   0.06277
   3        3S          0.00000  -0.00000   0.00000   0.00000  -0.04228
   4        4S          0.00000  -0.00000   0.00000   0.00000  -0.04053
   5        5S          0.00000   0.00000   0.00000   0.00000   0.01235
   6        6PX         0.00000   0.00000   0.00000   0.00000   0.00000
   7        6PY         0.00000   0.00000   0.00000   0.00000   0.00000
   8        6PZ         0.00000   0.00000   0.00000   0.00000   0.00000
   9        7PX         0.00000   0.00000   0.00000   0.00000   0.00000
  10        7PY         0.00000   0.00000   0.00000   0.00000   0.00000
  11        7PZ         0.00000   0.00000   0.00000   0.00000   0.00000
  12        8PX         0.00000   0.00000   0.00000   0.00000   0.00000
  13        8PY         0.00000   0.00000   0.00000   0.00000   0.00000
  14        8PZ         0.00000   0.00000   0.00000   0.00000   0.00000
  15        9PX         0.00000   0.00000   0.00000   0.00000   0.00000
  16        9PY         0.00000   0.00000   0.00000   0.00000   0.00000
  17        9PZ         0.00000   0.00000   0.00000   0.00000   0.00000
  18       10D 0        0.00000   0.00000   0.00000   0.00000   1.20089
  19       10D+1        0.00000   0.00000   1.20106   0.00000   0.00000
  20       10D-1        0.00000   0.00000   0.00000   1.20106   0.00000
  21       10D+2        0.00000   1.20101   0.00000   0.00000  -0.00000
  22       10D-2        1.20101   0.00000   0.00000   0.00000   0.00000
  23       11D 0        0.00000  -0.00000   0.00000   0.00000  -0.83234
  24       11D+1        0.00000   0.00000  -0.83437   0.00000   0.00000
  25       11D-1        0.00000   0.00000   0.00000  -0.83437   0.00000
  26       11D+2        0.00000  -0.83666   0.00000   0.00000   0.00000
  27       11D-2       -0.83666   0.00000   0.00000   0.00000   0.00000
  28       12D 0        0.00000   0.00000   0.00000   0.00000   0.32332
  29       12D+1        0.00000   0.00000   0.32417   0.00000   0.00000
  30       12D-1        0.00000   0.00000   0.00000   0.32417   0.00000
  31       12D+2        0.00000   0.32503   0.00000   0.00000  -0.00000
  32       12D-2        0.32503   0.00000   0.00000   0.00000   0.00000
  33       13F 0        0.00000   0.00000   0.00000   0.00000   0.00000
  34       13F+1        0.00000   0.00000   0.00000   0.00000   0.00000
  35       13F-1        0.00000   0.00000   0.00000   0.00000   0.00000
  36       13F+2        0.00000   0.00000   0.00000   0.00000   0.00000
  37       13F-2        0.00000   0.00000   0.00000   0.00000   0.00000
  38       13F+3        0.00000   0.00000   0.00000   0.00000   0.00000
  39       13F-3        0.00000   0.00000   0.00000   0.00000   0.00000
  40       14F 0        0.00000   0.00000   0.00000   0.00000   0.00000
  41       14F+1        0.00000   0.00000   0.00000   0.00000   0.00000
  42       14F-1        0.00000   0.00000   0.00000   0.00000   0.00000
  43       14F+2        0.00000   0.00000   0.00000   0.00000   0.00000
  44       14F-2        0.00000   0.00000   0.00000   0.00000   0.00000
  45       14F+3        0.00000   0.00000   0.00000   0.00000   0.00000
  46       14F-3        0.00000   0.00000   0.00000   0.00000   0.00000
                          46
                       (T2G)--V
     Eigenvalues --     9.76309
   1 1   F  1S          1.26992
   2        2S          3.23402
   3        3S         -2.47989
   4        4S         -2.03955
   5        5S          0.61490
   6        6PX         0.00000
   7        6PY         0.00000
   8        6PZ         0.00000
   9        7PX         0.00000
  10        7PY         0.00000
  11        7PZ         0.00000
  12        8PX         0.00000
  13        8PY         0.00000
  14        8PZ         0.00000
  15        9PX         0.00000
  16        9PY         0.00000
  17        9PZ         0.00000
  18       10D 0       -0.02124
  19       10D+1        0.00000
  20       10D-1        0.00000
  21       10D+2       -0.00000
  22       10D-2        0.00000
  23       11D 0        0.01390
  24       11D+1        0.00000
  25       11D-1        0.00000
  26       11D+2        0.00000
  27       11D-2        0.00000
  28       12D 0       -0.00515
  29       12D+1        0.00000
  30       12D-1        0.00000
  31       12D+2       -0.00000
  32       12D-2        0.00000
  33       13F 0        0.00000
  34       13F+1        0.00000
  35       13F-1        0.00000
  36       13F+2        0.00000
  37       13F-2        0.00000
  38       13F+3        0.00000
  39       13F-3        0.00000
  40       14F 0        0.00000
  41       14F+1        0.00000
  42       14F-1        0.00000
  43       14F+2        0.00000
  44       14F-2        0.00000
  45       14F+3        0.00000
  46       14F-3        0.00000
     Alpha Density Matrix:
[...]
  33       13F 0       -0.00000   0.00000   0.00000   0.00000   0.00000
  34       13F+1        0.00000  -0.00000   0.00000   0.00000   0.00000
  35       13F-1       -0.00000   0.00000   0.00000   0.00000   0.00000
  36       13F+2       -0.00000   0.00000   0.00000   0.00000   0.00000
  37       13F-2       -0.00000   0.00000   0.00000   0.00000   0.00000
  38       13F+3        0.00000  -0.00000   0.00000   0.00000   0.00000
  39       13F-3       -0.00000   0.00000   0.00000   0.00000   0.00000
  40       14F 0       -0.00000   0.00000   0.00000   0.00000   0.00000
  41       14F+1        0.00000  -0.00000   0.00000   0.00000   0.00000
  42       14F-1       -0.00000   0.00000   0.00000   0.00000   0.00000
  43       14F+2       -0.00000  -0.00000   0.00000   0.00000   0.00000
  44       14F-2       -0.00000  -0.00000   0.00000   0.00000   0.00000
  45       14F+3       -0.00000  -0.00000   0.00000   0.00000   0.00000
  46       14F-3       -0.00000   0.00000   0.00000   0.00000   0.00000
                          21        22        23        24        25
  21       10D+2        0.00000
  22       10D-2       -0.00000  -0.00000
  23       11D 0        0.00000  -0.00000   0.00019
  24       11D+1       -0.00000   0.00000  -0.00000   0.00000
  25       11D-1       -0.00000   0.00000  -0.00000   0.00000   0.00000
  26       11D+2       -0.00000  -0.00000   0.00000  -0.00000  -0.00000
  27       11D-2       -0.00000   0.00000  -0.00000   0.00000   0.00000
  28       12D 0        0.00000   0.00000   0.00002  -0.00000   0.00000
  29       12D+1       -0.00000   0.00000  -0.00000   0.00000   0.00000
  30       12D-1        0.00000   0.00000  -0.00000   0.00000   0.00000
  31       12D+2       -0.00000  -0.00000  -0.00000  -0.00000   0.00000
  32       12D-2        0.00000  -0.00000   0.00000   0.00000   0.00000
  33       13F 0        0.00000   0.00000   0.00000   0.00000   0.00000
  34       13F+1        0.00000   0.00000   0.00000   0.00000   0.00000
  35       13F-1        0.00000   0.00000   0.00000   0.00000   0.00000
  36       13F+2        0.00000   0.00000   0.00000   0.00000   0.00000
  37       13F-2        0.00000   0.00000   0.00000   0.00000   0.00000
  38       13F+3        0.00000   0.00000   0.00000   0.00000   0.00000
  39       13F-3        0.00000   0.00000   0.00000   0.00000   0.00000
  40       14F 0        0.00000   0.00000   0.00000   0.00000   0.00000
  41       14F+1        0.00000   0.00000   0.00000   0.00000   0.00000
  42       14F-1        0.00000   0.00000   0.00000   0.00000   0.00000
  43       14F+2        0.00000   0.00000   0.00000   0.00000   0.00000
  44       14F-2        0.00000   0.00000   0.00000   0.00000   0.00000
  45       14F+3        0.00000   0.00000   0.00000   0.00000   0.00000
  46       14F-3        0.00000   0.00000   0.00000   0.00000   0.00000
                          26        27        28        29        30
  26       11D+2       -0.00000
  27       11D-2       -0.00000   0.00000
  28       12D 0       -0.00000  -0.00000   0.00001
  29       12D+1        0.00000   0.00000   0.00000   0.00000
  30       12D-1       -0.00000   0.00000   0.00000   0.00000   0.00000
  31       12D+2        0.00000  -0.00000   0.00000  -0.00000   0.00000
  32       12D-2       -0.00000   0.00000   0.00000   0.00000   0.00000
  33       13F 0        0.00000   0.00000   0.00000   0.00000   0.00000
  34       13F+1        0.00000   0.00000   0.00000   0.00000   0.00000
  35       13F-1        0.00000   0.00000   0.00000   0.00000   0.00000
  36       13F+2        0.00000   0.00000   0.00000   0.00000   0.00000
  37       13F-2        0.00000   0.00000   0.00000   0.00000   0.00000
  38       13F+3        0.00000   0.00000   0.00000   0.00000   0.00000
  39       13F-3        0.00000   0.00000   0.00000   0.00000   0.00000
  40       14F 0        0.00000   0.00000   0.00000   0.00000   0.00000
  41       14F+1        0.00000   0.00000   0.00000   0.00000   0.00000
  42       14F-1        0.00000   0.00000   0.00000   0.00000   0.00000
  43       14F+2        0.00000   0.00000   0.00000   0.00000   0.00000
  44       14F-2        0.00000   0.00000   0.00000   0.00000   0.00000
  45       14F+3        0.00000   0.00000   0.00000   0.00000   0.00000
  46       14F-3        0.00000   0.00000   0.00000   0.00000   0.00000
                          31        32        33        34        35
  31       12D+2       -0.00000
  32       12D-2        0.00000   0.00000
  33       13F 0        0.00000   0.00000   0.00003
  34       13F+1        0.00000   0.00000  -0.00000   0.00002
  35       13F-1        0.00000   0.00000  -0.00000  -0.00000   0.00002
  36       13F+2        0.00000   0.00000  -0.00000  -0.00000  -0.00000
  37       13F-2        0.00000   0.00000  -0.00000   0.00000   0.00000
  38       13F+3        0.00000   0.00000  -0.00000   0.00000   0.00000
  39       13F-3        0.00000   0.00000   0.00000   0.00000   0.00000
  40       14F 0        0.00000   0.00000   0.00002  -0.00000   0.00000
  41       14F+1        0.00000   0.00000   0.00000   0.00001  -0.00000
  42       14F-1        0.00000   0.00000   0.00000   0.00000   0.00001
  43       14F+2        0.00000   0.00000   0.00000   0.00000  -0.00000
  44       14F-2        0.00000   0.00000   0.00000  -0.00000   0.00000
  45       14F+3        0.00000   0.00000   0.00000  -0.00000  -0.00000
  46       14F-3        0.00000   0.00000  -0.00000  -0.00000  -0.00000
                          36        37        38        39        40
  36       13F+2       -0.00000
  37       13F-2       -0.00000   0.00000
  38       13F+3       -0.00000   0.00000   0.00000
  39       13F-3        0.00000   0.00000   0.00000   0.00000
  40       14F 0       -0.00000  -0.00000  -0.00000   0.00000   0.00002
  41       14F+1        0.00000  -0.00000  -0.00000  -0.00000   0.00000
  42       14F-1       -0.00000  -0.00000  -0.00000  -0.00000   0.00000
  43       14F+2        0.00000  -0.00000  -0.00000   0.00000  -0.00000
  44       14F-2       -0.00000   0.00000  -0.00000  -0.00000   0.00000
  45       14F+3       -0.00000  -0.00000  -0.00000   0.00000  -0.00000
  46       14F-3       -0.00000   0.00000   0.00000  -0.00000  -0.00000
                          41        42        43        44        45
  41       14F+1        0.00002
  42       14F-1       -0.00000   0.00002
  43       14F+2       -0.00000  -0.00000  -0.00000
  44       14F-2       -0.00000   0.00000  -0.00000   0.00000
  45       14F+3       -0.00000  -0.00000   0.00000  -0.00000   0.00000
  46       14F-3       -0.00000  -0.00000  -0.00000  -0.00000   0.00000
                          46
  46       14F-3        0.00000
     Gross orbital populations:
                         Total     Alpha     Beta      Spin
   1 1   F  1S          1.95742   0.97833   0.97909  -0.00076
   2        2S          1.07033   0.54331   0.52701   0.01630
   3        3S          0.29448   0.15056   0.14392   0.00664
   4        4S          0.66219   0.32184   0.34034  -0.01850
   5        5S          0.01519   0.00563   0.00956  -0.00393
   6        6PX         0.60869   0.30828   0.30042   0.00786
   7        6PY         0.60869   0.30828   0.30042   0.00786
   8        6PZ         0.32110   0.32110   0.00000   0.32110
   9        7PX         0.86823   0.43800   0.43023   0.00777
  10        7PY         0.86823   0.43800   0.43023   0.00777
  11        7PZ         0.45502   0.45502   0.00000   0.45502
  12        8PX         0.49243   0.24015   0.25228  -0.01213
  13        8PY         0.49243   0.24015   0.25228  -0.01213
  14        8PZ         0.21674   0.21674   0.00000   0.21674
  15        9PX         0.03059   0.01352   0.01707  -0.00355
  16        9PY         0.03059   0.01352   0.01707  -0.00355
  17        9PZ         0.00705   0.00705   0.00000   0.00705
  18       10D 0        0.00012   0.00009   0.00003   0.00006
  19       10D+1        0.00000   0.00000   0.00000   0.00000
  20       10D-1        0.00000   0.00000   0.00000   0.00000
  21       10D+2       -0.00000  -0.00000  -0.00000  -0.00000
  22       10D-2        0.00000   0.00000  -0.00000   0.00000
  23       11D 0        0.00026   0.00023   0.00003   0.00020
  24       11D+1        0.00000   0.00000   0.00000   0.00000
  25       11D-1        0.00000   0.00000   0.00000   0.00000
  26       11D+2       -0.00000  -0.00000  -0.00000  -0.00000
  27       11D-2        0.00000   0.00000  -0.00000   0.00000
  28       12D 0        0.00003   0.00002   0.00001   0.00001
  29       12D+1        0.00000   0.00000   0.00000   0.00000
  30       12D-1        0.00000   0.00000   0.00000   0.00000
  31       12D+2       -0.00000   0.00000  -0.00000   0.00000
  32       12D-2        0.00000   0.00000   0.00000   0.00000
  33       13F 0        0.00005   0.00005   0.00000   0.00005
  34       13F+1        0.00003   0.00003   0.00000   0.00003
  35       13F-1        0.00003   0.00003   0.00000   0.00003
  36       13F+2       -0.00000  -0.00000   0.00000  -0.00000
  37       13F-2        0.00000   0.00000   0.00000   0.00000
  38       13F+3        0.00000   0.00000   0.00000  -0.00000
  39       13F-3        0.00000   0.00000   0.00000  -0.00000
  40       14F 0        0.00004   0.00004  -0.00000   0.00004
  41       14F+1        0.00003   0.00003  -0.00000   0.00003
  42       14F-1        0.00003   0.00003  -0.00000   0.00003
  43       14F+2       -0.00000  -0.00000  -0.00000  -0.00000
  44       14F-2        0.00000   0.00000  -0.00000   0.00000
  45       14F+3       -0.00000   0.00000  -0.00000   0.00000
  46       14F-3       -0.00000   0.00000  -0.00000   0.00000
          Condensed to atoms (all electrons):
               1
     1  F    9.000000
          Atomic-Atomic Spin Densities.
               1
     1  F    1.000000
 Mulliken charges and spin densities:
               1          2
     1  F   -0.000000   1.000000
 Sum of Mulliken charges =  -0.00000   1.00000
 Mulliken charges and spin densities with hydrogens summed into heavy atoms:
               1          2
     1  F   -0.000000   1.000000
 Electronic spatial extent (au):  <R**2>=             10.6426
 Charge=              0.0000 electrons
 Dipole moment (field-independent basis, Debye):
    X=              0.0000    Y=              0.0000    Z=              0.0000  Tot=              0.0000
 Quadrupole moment (field-independent basis, Debye-Ang):
   XX=             -5.0806   YY=             -5.0806   ZZ=             -4.1534
   XY=              0.0000   XZ=              0.0000   YZ=             -0.0000
 Traceless Quadrupole moment (field-independent basis, Debye-Ang):
   XX=             -0.3091   YY=             -0.3091   ZZ=              0.6182
   XY=              0.0000   XZ=              0.0000   YZ=             -0.0000
 Octapole moment (field-independent basis, Debye-Ang**2):
  XXX=              0.0000  YYY=              0.0000  ZZZ=              0.0000  XYY=              0.0000
  XXY=              0.0000  XXZ=              0.0000  XZZ=              0.0000  YZZ=              0.0000
  YYZ=              0.0000  XYZ=              0.0000
 Hexadecapole moment (field-independent basis, Debye-Ang**3):
 XXXX=             -3.5615 YYYY=             -3.5615 ZZZZ=             -2.3831 XXXY=              0.0000
 XXXZ=              0.0000 YYYX=             -0.0000 YYYZ=             -0.0000 ZZZX=              0.0000
 ZZZY=             -0.0000 XXYY=             -1.1872 XXZZ=             -0.9910 YYZZ=             -0.9910
 XXYZ=             -0.0000 YYXZ=              0.0000 ZZXY=             -0.0000
 N-N= 0.000000000000D+00 E-N=-2.384194503379D+02  KE= 9.928331405799D+01
 Symmetry AG   KE= 8.242584234550D+01
 Symmetry B1G  KE= 3.897028391210D-53
 Symmetry B2G  KE= 1.008890695710D-35
 Symmetry B3G  KE= 1.008890695710D-35
 Symmetry AU   KE= 3.230181570763D-36
 Symmetry B1U  KE= 3.514189749273D+00
 Symmetry B2U  KE= 6.671640981606D+00
 Symmetry B3U  KE= 6.671640981605D+00
 Symmetry AG   SP= 2.516360768702D-15
 Symmetry B1G  SP= 2.308294402735D-53
 Symmetry B2G  SP= 1.460726819156D-36
 Symmetry B3G  SP= 1.460726819156D-36
 Symmetry AU   SP= 5.643492808293D-37
 Symmetry B1U  SP= 1.000000000000D+00
 Symmetry B2U  SP= 1.257177504646D-15
 Symmetry B3U  SP= 1.476944345730D-15
 Orbital energies and kinetic energies (alpha):
                                 1                 2
   1         (A1G)--O        -24.796507         37.029325
   2         O                -1.240560          4.220174
   3         O                -0.571031          3.514190
   4         O                -0.483041          3.375881
   5         O                -0.483041          3.375881
   6         V                 0.086176          0.593931
   7         V                 0.117639          0.417654
   8         V                 0.122771          0.445000
   9         V                 0.122771          0.445000
  10         V                 0.680391          0.995245
  11         (T2G)--V          0.685083          0.992065
  12         (T2G)--V          0.685083          0.992065
  13         (T2G)--V          0.701152          0.987718
  14         V                 0.701152          0.987718
  15         V                 0.852550          2.472164
  16         V                 0.889908          2.551819
  17         V                 0.889908          2.551819
  18         V                 1.333789          4.004307
  19         V                 2.434846          3.655539
  20         (T2G)--V          2.449487          3.654319
  21         (T2G)--V          2.449487          3.654319
  22         (T2G)--V          2.496678          3.652855
  23         V                 2.496678          3.652855
  24         V                 2.568641          3.097557
  25         V                 2.573696          3.097194
  26         V                 2.573696          3.097194
  27         (A2U)--V          2.587629          3.096319
  28         V                 2.587629          3.096319
  29         V                 2.611478          3.095365
  30         V                 2.611478          3.095365
  31         V                 4.509085         11.785787
  32         V                 4.583240         11.817137
  33         V                 4.583240         11.817137
  34         V                 8.143052         10.139744
  35         V                 8.152967         10.140066
  36         V                 8.152967         10.140066
  37         V                 8.181843         10.140939
  38         (A2U)--V          8.181843         10.140939
  39         V                 8.231003         10.141893
  40         V                 8.231003         10.141893
  41         (T2G)--V          8.504295         12.799510
  42         (T2G)--V          8.528175         12.796208
  43         (T2G)--V          8.528175         12.796208
  44         (T2G)--V          8.598823         12.802020
  45         (T2G)--V          8.598823         12.802020
  46         (T2G)--V          9.709386         33.250942
 Orbital energies and kinetic energies (beta):
                                 1                 2
   1         (A1G)--O        -24.764931         37.089104
   2         (A1G)--O         -1.149106          4.087239
   3         O                -0.451930          3.295760
   4         O                -0.451930          3.295760
   5         V                -0.278080          2.946904
   6         (A1G)--V          0.092264          0.604659
   7         V                 0.124325          0.462715
   8         V                 0.124325          0.462715
   9         V                 0.133729          0.563531
  10         (T2G)--V          0.699816          0.985350
  11         (T2G)--V          0.699816          0.985350
  12         (T2G)--V          0.700558          0.986850
  13         (EG)--V           0.700558          0.986850
  14         (EG)--V           0.703069          0.984329
  15         V                 0.900467          2.590545
  16         V                 0.900467          2.590545
  17         V                 0.924171          2.737735
  18         (A1G)--V          1.369909          4.056310
  19         (T2G)--V          2.504357          3.651516
  20         (EG)--V           2.504357          3.651516
  21         (T2G)--V          2.509156          3.648739
  22         (T2G)--V          2.509156          3.648739
  23         (EG)--V           2.520228          3.646380
  24         (A2U)--V          2.606703          3.095107
  25         V                 2.606703          3.095107
  26         V                 2.607113          3.094927
  27         V                 2.607113          3.094927
  28         V                 2.609170          3.094785
  29         V                 2.610579          3.095173
  30         V                 2.610579          3.095173
  31         (T1U)--V          4.608086         11.840812
  32         (T1U)--V          4.608086         11.840812
  33         (T1U)--V          4.646557         11.941639
  34         (A2U)--V          8.233268         10.142150
  35         V                 8.233268         10.142150
  36         V                 8.236502         10.142085
  37         V                 8.236502         10.142085
  38         V                 8.238917         10.142338
  39         V                 8.238917         10.142338
  40         V                 8.247439         10.142502
  41         (T2G)--V          8.616050         12.804226
  42         (T2G)--V          8.616050         12.804226
  43         (T2G)--V          8.636264         12.808504
  44         (T2G)--V          8.636264         12.808504
  45         (T2G)--V          8.664705         12.817042
  46         (T2G)--V          9.763088         33.263911
 Total kinetic energy from orbitals= 9.928331405799D+01
                          Isotropic Fermi Contact Couplings
        Atom                 a.u.       MegaHertz       Gauss      10(-4) cm-1
     1  F(19)              0.00708      29.78448      10.62784       9.93503
 --------------------------------------------------------
       Center         ----  Spin Dipole Couplings  ----
                      3XX-RR        3YY-RR        3ZZ-RR
 --------------------------------------------------------
     1   Atom       -3.148670     -3.148670      6.297340
 --------------------------------------------------------
                        XY            XZ            YZ
 --------------------------------------------------------
     1   Atom        0.000000      0.000000      0.000000
 --------------------------------------------------------


 ---------------------------------------------------------------------------------
              Anisotropic Spin Dipole Couplings in Principal Axis System
 ---------------------------------------------------------------------------------

       Atom             a.u.   MegaHertz   Gauss  10(-4) cm-1        Axes

              Baa    -3.1487 -1581.343  -564.262  -527.479  1.0000  0.0000  0.0000
     1 F(19)  Bbb    -3.1487 -1581.343  -564.262  -527.479 -0.0000  1.0000  0.0000
              Bcc     6.2973  3162.685  1128.525  1054.958  0.0000  0.0000  1.0000
 

 ---------------------------------------------------------------------------------

 1\1\GINC-LOGIN\SP\UB3LYP\Aug-CC-pVTZ\F1(2)\C7441090\20-Nov-2023\0\\# B
 3LYP/aug-cc-pVTZ EmpiricalDispersion=GD3 Pop=Full\\Fluorine\\0,2\F,0,0
 .,0.,0.\\Version=ES64L-G16RevA.03\HF=-99.7661406\S2=0.751719\S2-1=0.\S
 2A=0.750002\RMSD=4.591e-09\Dipole=0.,0.,0.\Quadrupole=0.4595821,-0.229
 791,-0.229791,0.,0.,0.\PG=OH [O(F1)]\\@


 "PERFECTION IS NOT AN ACCIDENT"
         --  EAGLE ELECTRIC MANUFACTURING CO.,INC. NY
 Job cpu time:       0 days  0 hours  0 minutes 50.2 seconds.
 Elapsed time:       0 days  0 hours  0 minutes 25.1 seconds.
 File lengths (MBytes):  RWF=      5 Int=      0 D2E=      0 Chk=      1 Scr=      1
 Normal termination of Gaussian 16 at Mon Nov 20 23:51:45 2023.
