Hydrogen                                                                
SP        UB3LYP                                                      Aug-CC-pVTZ         
Number of atoms                            I                1
Info1-9                                    I   N=           9
          12          11           0           0           0         110
           1          18        -502
Full Title                                 C   N=           1
Hydrogen    
Route                                      C   N=           5
# B3LYP/aug-cc-pVTZ EmpiricalDispersion=GD3 Pop=Full        
Charge                                     I                0
Multiplicity                               I                2
Number of electrons                        I                1
Number of alpha electrons                  I                1
Number of beta electrons                   I                0
Number of basis functions                  I               23
Number of independent functions            I               23
Number of point charges in /Mol/           I                0
Number of translation vectors              I                0
Atomic numbers                             I   N=           1
           1
Nuclear charges                            R   N=           1
  1.00000000E+00
Current cartesian coordinates              R   N=           3
  0.00000000E+00  0.00000000E+00  0.00000000E+00
Number of symbols in /Mol/                 I                0
Force Field                                I                0
Atom Types                                 C   N=           1
            
Int Atom Types                             I   N=           1
           0
MM charges                                 R   N=           1
  0.00000000E+00
Integer atomic weights                     I   N=           1
           1
Real atomic weights                        R   N=           1
  1.00782504E+00
Atom fragment info                         I   N=           1
           0
Atom residue num                           I   N=           1
           0
Nuclear spins                              I   N=           1
           1
Nuclear ZEff                               R   N=           1
 -1.00000000E+00
Nuclear ZNuc                               R   N=           1
  1.00000000E+00
Nuclear QMom                               R   N=           1
  0.00000000E+00
Nuclear GFac                               R   N=           1
  2.79284600E+00
MicOpt                                     I   N=           1
          -1
Number of residues                         I                0
Number of secondary structures             I                0
SymInf integers                            I   N=          26
           1           8           1           1           1           1
          -1          -1          -1           1          -1          -1
          -1           1          -1          -1          -1          -1
           1           1           1          -1           1           1
           1          -1
RotTr to input orientation                 R   N=          12
  0.00000000E+00  0.00000000E+00 -1.00000000E+00  0.00000000E+00  1.00000000E+00
  0.00000000E+00  1.00000000E+00  0.00000000E+00  0.00000000E+00  0.00000000E+00
  0.00000000E+00  0.00000000E+00
Number of contracted shells                I                9
Number of primitive shells                 I               11
Pure/Cartesian d shells                    I                0
Pure/Cartesian f shells                    I                0
Highest angular momentum                   I                2
Largest degree of contraction              I                3
Shell types                                I   N=           9
           0           0           0           0           1           1
           1          -2          -2
Number of primitives per shell             I   N=           9
           3           1           1           1           1           1
           1           1           1
Shell to atom map                          I   N=           9
           1           1           1           1           1           1
           1           1           1
Primitive exponents                        R   N=          11
  3.38700000E+01  5.09500000E+00  1.15900000E+00  3.25800000E-01  1.02700000E-01
  2.52600000E-02  1.40700000E+00  3.88000000E-01  1.02000000E-01  1.05700000E+00
  2.47000000E-01
Contraction coefficients                   R   N=          11
  2.54948632E-02  1.90362766E-01  8.52162022E-01  1.00000000E+00  1.00000000E+00
  1.00000000E+00  1.00000000E+00  1.00000000E+00  1.00000000E+00  1.00000000E+00
  1.00000000E+00
Coordinates of each shell                  R   N=          27
  0.00000000E+00  0.00000000E+00  0.00000000E+00  0.00000000E+00  0.00000000E+00
  0.00000000E+00  0.00000000E+00  0.00000000E+00  0.00000000E+00  0.00000000E+00
  0.00000000E+00  0.00000000E+00  0.00000000E+00  0.00000000E+00  0.00000000E+00
  0.00000000E+00  0.00000000E+00  0.00000000E+00  0.00000000E+00  0.00000000E+00
  0.00000000E+00  0.00000000E+00  0.00000000E+00  0.00000000E+00  0.00000000E+00
  0.00000000E+00  0.00000000E+00
Num ILSW                                   I              100
ILSW                                       I   N=         100
           1           0           0           0           2           0
           0           0           0           0         402          -1
           5           0           0           0           0           0
           0           0           1           0           0           0
           1           0           0           0           0           0
           0           0      100000           0          -1           0
           0           0           0           0           0           0
           0           0           0           1           0           0
           0 -2000000000           1           0           0           0
           0           0         131          52           0           0
           0           0           5           0           0           0
           0           0           0           0           0           1
           0           0           0           0           0           0
           0           0           0           0           0           0
           0           0           0           0           0           0
           0           0           0           0           0           0
           0           0           0           0
Num RLSW                                   I               52
RLSW                                       R   N=          52
  8.00000000E-01  7.20000000E-01  1.00000000E+00  8.10000000E-01  2.00000000E-01
  0.00000000E+00  0.00000000E+00  1.00000000E+00  0.00000000E+00  0.00000000E+00
  0.00000000E+00  0.00000000E+00  1.00000000E+00  0.00000000E+00  0.00000000E+00
  0.00000000E+00  0.00000000E+00  1.00000000E+00  0.00000000E+00  0.00000000E+00
  0.00000000E+00  0.00000000E+00  1.00000000E+00  0.00000000E+00  0.00000000E+00
  0.00000000E+00  0.00000000E+00  1.00000000E+00  0.00000000E+00  0.00000000E+00
  0.00000000E+00  0.00000000E+00  1.00000000E+00  0.00000000E+00  0.00000000E+00
  0.00000000E+00  0.00000000E+00  0.00000000E+00  1.00000000E+00  1.00000000E+00
  0.00000000E+00  1.00000000E+00  0.00000000E+00  0.00000000E+00  0.00000000E+00
  0.00000000E+00  0.00000000E+00  0.00000000E+00  0.00000000E+00  0.00000000E+00
  0.00000000E+00  0.00000000E+00
MxBond                                     I                1
NBond                                      I   N=           1
           0
IBond                                      I   N=           1
           0
RBond                                      R   N=           1
  0.00000000E+00
Virial Ratio                               R      2.011602234315136E+00
SCF Energy                                 R     -5.022596757429818E-01
Total Energy                               R     -5.022596757429818E-01
S**2                                       R      7.500000000000000E-01
S**2 after annihilation                    R      7.500000000000000E-01
RMS Density                                R      7.739263434649917E-10
Job Status                                 I                1
Nuclear derivative order                   I                0
External E-field                           R   N=          35
  0.00000000E+00  0.00000000E+00  0.00000000E+00  0.00000000E+00  0.00000000E+00
  0.00000000E+00  0.00000000E+00  0.00000000E+00  0.00000000E+00  0.00000000E+00
  0.00000000E+00  0.00000000E+00  0.00000000E+00  0.00000000E+00  0.00000000E+00
  0.00000000E+00  0.00000000E+00  0.00000000E+00  0.00000000E+00  0.00000000E+00
  0.00000000E+00  0.00000000E+00  0.00000000E+00  0.00000000E+00  0.00000000E+00
  0.00000000E+00  0.00000000E+00  0.00000000E+00  0.00000000E+00  0.00000000E+00
  0.00000000E+00  0.00000000E+00  0.00000000E+00  0.00000000E+00  0.00000000E+00
IOpCl                                      I                1
IROHF                                      I                0
Alpha Orbital Energies                     R   N=          23
 -3.22419608E-01  2.51429589E-02  1.24437767E-01  1.24437767E-01  1.24437767E-01
  3.44906628E-01  6.77025215E-01  6.77025215E-01  6.77025215E-01  6.77025215E-01
  6.77025215E-01  8.18537287E-01  8.18537287E-01  8.18537287E-01  2.24143146E+00
  3.54825749E+00  3.54825749E+00  3.54825749E+00  3.54825749E+00  3.54825749E+00
  3.71109836E+00  3.71109836E+00  3.71109836E+00
Beta Orbital Energies                      R   N=          23
 -8.31916413E-04  1.05386259E-01  2.15837574E-01  2.15837574E-01  2.15837574E-01
  5.48535287E-01  8.04633803E-01  8.04633803E-01  8.04633803E-01  8.04633803E-01
  8.04633803E-01  1.03762241E+00  1.03762241E+00  1.03762241E+00  2.65642807E+00
  3.85169078E+00  3.85169078E+00  3.85169078E+00  3.85169078E+00  3.85169078E+00
  4.08889762E+00  4.08889762E+00  4.08889762E+00
Alpha MO coefficients                      R   N=         529
  2.48289655E-01  4.74766621E-01  3.91928199E-01  2.63716877E-02  0.00000000E+00
  0.00000000E+00  0.00000000E+00  0.00000000E+00  0.00000000E+00  0.00000000E+00
  0.00000000E+00  0.00000000E+00  0.00000000E+00  5.47555268E-17  0.00000000E+00
  0.00000000E+00 -1.16152007E-16  0.00000000E+00 -2.78019233E-16  0.00000000E+00
  0.00000000E+00  1.24089994E-16  0.00000000E+00 -8.77705659E-02 -1.09376614E-01
 -5.73909881E-01  1.30523937E+00  0.00000000E+00  0.00000000E+00  0.00000000E+00
  0.00000000E+00  0.00000000E+00  0.00000000E+00  0.00000000E+00  0.00000000E+00
  0.00000000E+00 -3.57982057E-17  0.00000000E+00  0.00000000E+00 -2.09424214E-17
  0.00000000E+00  2.08732247E-17  0.00000000E+00  0.00000000E+00  3.79302854E-17
  0.00000000E+00  0.00000000E+00  0.00000000E+00  0.00000000E+00  0.00000000E+00
  0.00000000E+00  0.00000000E+00  2.74911223E-02  0.00000000E+00  0.00000000E+00
 -3.30638244E-02  0.00000000E+00  0.00000000E+00  1.01447594E+00  0.00000000E+00
  0.00000000E+00  0.00000000E+00  0.00000000E+00  0.00000000E+00  0.00000000E+00
  0.00000000E+00  0.00000000E+00  0.00000000E+00  0.00000000E+00  0.00000000E+00
  0.00000000E+00  0.00000000E+00  0.00000000E+00  0.00000000E+00  2.74911223E-02
  0.00000000E+00  0.00000000E+00 -3.30638244E-02  0.00000000E+00  0.00000000E+00
  1.01447594E+00  0.00000000E+00  0.00000000E+00  0.00000000E+00  0.00000000E+00
  0.00000000E+00  0.00000000E+00  0.00000000E+00  0.00000000E+00  0.00000000E+00
  0.00000000E+00  0.00000000E+00  0.00000000E+00  0.00000000E+00  0.00000000E+00
  0.00000000E+00  2.74911223E-02  0.00000000E+00  0.00000000E+00 -3.30638244E-02
  0.00000000E+00  0.00000000E+00  1.01447594E+00  0.00000000E+00  0.00000000E+00
  0.00000000E+00  0.00000000E+00  0.00000000E+00  0.00000000E+00  0.00000000E+00
  0.00000000E+00  0.00000000E+00  0.00000000E+00  0.00000000E+00  0.00000000E+00
 -1.43928364E-01 -1.42542781E+00  2.21223681E+00 -8.81170551E-01  0.00000000E+00
  0.00000000E+00  0.00000000E+00  0.00000000E+00  0.00000000E+00  0.00000000E+00
  0.00000000E+00  0.00000000E+00  0.00000000E+00  1.65610897E-17  0.00000000E+00
  0.00000000E+00  1.43825657E-17  0.00000000E+00  4.72558653E-16  0.00000000E+00
  0.00000000E+00 -6.00349206E-17  0.00000000E+00  0.00000000E+00  0.00000000E+00
  0.00000000E+00  0.00000000E+00  0.00000000E+00  0.00000000E+00  0.00000000E+00
  0.00000000E+00  0.00000000E+00  0.00000000E+00  0.00000000E+00  0.00000000E+00
  0.00000000E+00  0.00000000E+00 -5.83618085E-02  0.00000000E+00  0.00000000E+00
  0.00000000E+00  0.00000000E+00  1.02347155E+00  0.00000000E+00  0.00000000E+00
  0.00000000E+00  0.00000000E+00  0.00000000E+00  0.00000000E+00  0.00000000E+00
  0.00000000E+00  0.00000000E+00  0.00000000E+00  0.00000000E+00  0.00000000E+00
  0.00000000E+00  0.00000000E+00  0.00000000E+00  0.00000000E+00  0.00000000E+00
  0.00000000E+00 -5.83618085E-02  0.00000000E+00  0.00000000E+00  0.00000000E+00
  0.00000000E+00  1.02347155E+00  0.00000000E+00  0.00000000E+00  0.00000000E+00
  0.00000000E+00  0.00000000E+00  0.00000000E+00  0.00000000E+00  0.00000000E+00
  0.00000000E+00  0.00000000E+00  0.00000000E+00  0.00000000E+00  0.00000000E+00
  0.00000000E+00  0.00000000E+00  0.00000000E+00  0.00000000E+00  0.00000000E+00
  0.00000000E+00 -5.83618085E-02  0.00000000E+00  0.00000000E+00  0.00000000E+00
  0.00000000E+00  1.02347155E+00  2.06516548E-16  1.11743753E-15 -2.40591951E-15
  1.30101920E-15  0.00000000E+00  0.00000000E+00  0.00000000E+00  0.00000000E+00
  0.00000000E+00  0.00000000E+00  0.00000000E+00  0.00000000E+00  0.00000000E+00
 -5.65338373E-02  0.00000000E+00  0.00000000E+00  1.44922714E-02  0.00000000E+00
  9.91415033E-01  0.00000000E+00  0.00000000E+00 -2.54146125E-01  0.00000000E+00
 -1.05044804E-15  7.47239925E-16 -3.97450998E-16 -2.20474515E-16  0.00000000E+00
  0.00000000E+00  0.00000000E+00  0.00000000E+00  0.00000000E+00  0.00000000E+00
  0.00000000E+00  0.00000000E+00  0.00000000E+00 -1.44922714E-02  0.00000000E+00
  0.00000000E+00 -5.65338373E-02  0.00000000E+00  2.54146125E-01  0.00000000E+00
  0.00000000E+00  9.91415033E-01  0.00000000E+00  0.00000000E+00  0.00000000E+00
  0.00000000E+00  0.00000000E+00  0.00000000E+00  0.00000000E+00 -7.17252575E-02
  0.00000000E+00  0.00000000E+00  1.29771786E+00  0.00000000E+00  0.00000000E+00
 -7.47872813E-01  0.00000000E+00  0.00000000E+00  0.00000000E+00  0.00000000E+00
  0.00000000E+00  0.00000000E+00  0.00000000E+00  0.00000000E+00  0.00000000E+00
  0.00000000E+00  0.00000000E+00  0.00000000E+00  0.00000000E+00  0.00000000E+00
 -7.17252575E-02  0.00000000E+00  0.00000000E+00  1.29771786E+00  0.00000000E+00
  0.00000000E+00 -7.47872813E-01  0.00000000E+00  0.00000000E+00  0.00000000E+00
  0.00000000E+00  0.00000000E+00  0.00000000E+00  0.00000000E+00  0.00000000E+00
  0.00000000E+00  0.00000000E+00  0.00000000E+00  0.00000000E+00  0.00000000E+00
  0.00000000E+00  0.00000000E+00  0.00000000E+00  0.00000000E+00 -7.17252575E-02
  0.00000000E+00  0.00000000E+00  1.29771786E+00  0.00000000E+00  0.00000000E+00
 -7.47872813E-01  0.00000000E+00  0.00000000E+00  0.00000000E+00  0.00000000E+00
  0.00000000E+00  0.00000000E+00  0.00000000E+00  0.00000000E+00  0.00000000E+00
  0.00000000E+00  0.00000000E+00 -1.56329874E+00  2.14728975E+00 -1.26842657E+00
  3.47931502E-01  0.00000000E+00  0.00000000E+00  0.00000000E+00  0.00000000E+00
  0.00000000E+00  0.00000000E+00  0.00000000E+00  0.00000000E+00  0.00000000E+00
  1.95829214E-15  0.00000000E+00  0.00000000E+00  2.55392096E-15  0.00000000E+00
 -1.06006064E-15  0.00000000E+00  0.00000000E+00 -2.51499171E-15  0.00000000E+00
  0.00000000E+00  0.00000000E+00  0.00000000E+00  0.00000000E+00  0.00000000E+00
  0.00000000E+00  0.00000000E+00  0.00000000E+00  0.00000000E+00  0.00000000E+00
  0.00000000E+00  0.00000000E+00  0.00000000E+00  0.00000000E+00  1.10381085E+00
  0.00000000E+00  0.00000000E+00  0.00000000E+00  0.00000000E+00 -4.17505056E-01
  0.00000000E+00  0.00000000E+00  0.00000000E+00  0.00000000E+00  0.00000000E+00
  0.00000000E+00  0.00000000E+00  0.00000000E+00  0.00000000E+00  0.00000000E+00
  0.00000000E+00  0.00000000E+00  0.00000000E+00  0.00000000E+00  0.00000000E+00
  0.00000000E+00  0.00000000E+00  0.00000000E+00  1.10381085E+00  0.00000000E+00
  0.00000000E+00  0.00000000E+00  0.00000000E+00 -4.17505056E-01  0.00000000E+00
  0.00000000E+00  0.00000000E+00  0.00000000E+00  0.00000000E+00  0.00000000E+00
  0.00000000E+00  0.00000000E+00  0.00000000E+00  0.00000000E+00  0.00000000E+00
  0.00000000E+00  0.00000000E+00  0.00000000E+00  0.00000000E+00  0.00000000E+00
  0.00000000E+00  0.00000000E+00  0.00000000E+00  1.10381085E+00  0.00000000E+00
  0.00000000E+00  0.00000000E+00  0.00000000E+00 -4.17505056E-01  3.66356266E-15
 -5.14107223E-15  2.73510590E-15 -3.48955472E-16  0.00000000E+00  0.00000000E+00
  0.00000000E+00  0.00000000E+00  0.00000000E+00  0.00000000E+00  0.00000000E+00
  0.00000000E+00  0.00000000E+00 -2.21200873E-01  0.00000000E+00  0.00000000E+00
  1.08141970E+00  0.00000000E+00  8.36669460E-02  0.00000000E+00  0.00000000E+00
 -4.09035835E-01  0.00000000E+00  5.06155559E-15 -7.30652217E-15  4.59500625E-15
 -1.30762887E-15  0.00000000E+00  0.00000000E+00  0.00000000E+00  0.00000000E+00
  0.00000000E+00  0.00000000E+00  0.00000000E+00  0.00000000E+00  0.00000000E+00
  1.08141970E+00  0.00000000E+00  0.00000000E+00  2.21200873E-01  0.00000000E+00
 -4.09035835E-01  0.00000000E+00  0.00000000E+00 -8.36669460E-02  0.00000000E+00
  0.00000000E+00  0.00000000E+00  0.00000000E+00  0.00000000E+00  1.32464323E+00
  0.00000000E+00  0.00000000E+00 -9.74197403E-01  0.00000000E+00  0.00000000E+00
  3.21971720E-01  0.00000000E+00  0.00000000E+00  0.00000000E+00  0.00000000E+00
  0.00000000E+00  0.00000000E+00  0.00000000E+00  0.00000000E+00  0.00000000E+00
  0.00000000E+00  0.00000000E+00  0.00000000E+00  0.00000000E+00  0.00000000E+00
  0.00000000E+00  0.00000000E+00  0.00000000E+00  1.32464323E+00  0.00000000E+00
  0.00000000E+00 -9.74197403E-01  0.00000000E+00  0.00000000E+00  3.21971720E-01
  0.00000000E+00  0.00000000E+00  0.00000000E+00  0.00000000E+00  0.00000000E+00
  0.00000000E+00  0.00000000E+00  0.00000000E+00  0.00000000E+00  0.00000000E+00
  0.00000000E+00  0.00000000E+00  0.00000000E+00  0.00000000E+00  0.00000000E+00
  0.00000000E+00  0.00000000E+00  1.32464323E+00  0.00000000E+00  0.00000000E+00
 -9.74197403E-01  0.00000000E+00  0.00000000E+00  3.21971720E-01  0.00000000E+00
  0.00000000E+00  0.00000000E+00  0.00000000E+00  0.00000000E+00  0.00000000E+00
  0.00000000E+00  0.00000000E+00  0.00000000E+00  0.00000000E+00
Beta MO coefficients                       R   N=         529
  8.57613390E-02  1.44890423E-01  1.69335977E-01  7.67901037E-01  0.00000000E+00
  0.00000000E+00  0.00000000E+00  0.00000000E+00  0.00000000E+00  0.00000000E+00
  0.00000000E+00  0.00000000E+00  0.00000000E+00  4.02795212E-17  0.00000000E+00
  0.00000000E+00  1.68640341E-17  0.00000000E+00 -3.16115517E-16  0.00000000E+00
  0.00000000E+00 -1.46145175E-16  0.00000000E+00  1.37008488E-01 -9.98730642E-03
  1.28946092E+00 -1.20888082E+00  0.00000000E+00  0.00000000E+00  0.00000000E+00
  0.00000000E+00  0.00000000E+00  0.00000000E+00  0.00000000E+00  0.00000000E+00
  0.00000000E+00  7.54437909E-17  0.00000000E+00  0.00000000E+00  4.54378796E-17
  0.00000000E+00 -2.84463641E-16  0.00000000E+00  0.00000000E+00 -3.09536462E-16
  0.00000000E+00  0.00000000E+00  0.00000000E+00  0.00000000E+00  0.00000000E+00
  0.00000000E+00  0.00000000E+00  3.17272447E-02  0.00000000E+00  0.00000000E+00
 -1.38386691E-01  0.00000000E+00  0.00000000E+00  1.07209198E+00  0.00000000E+00
  0.00000000E+00  0.00000000E+00  0.00000000E+00  0.00000000E+00  0.00000000E+00
  0.00000000E+00  0.00000000E+00  0.00000000E+00  0.00000000E+00  0.00000000E+00
  0.00000000E+00  0.00000000E+00  0.00000000E+00  0.00000000E+00  3.17272447E-02
  0.00000000E+00  0.00000000E+00 -1.38386691E-01  0.00000000E+00  0.00000000E+00
  1.07209198E+00  0.00000000E+00  0.00000000E+00  0.00000000E+00  0.00000000E+00
  0.00000000E+00  0.00000000E+00  0.00000000E+00  0.00000000E+00  0.00000000E+00
  0.00000000E+00  0.00000000E+00  0.00000000E+00  0.00000000E+00  0.00000000E+00
  0.00000000E+00  3.17272447E-02  0.00000000E+00  0.00000000E+00 -1.38386691E-01
  0.00000000E+00  0.00000000E+00  1.07209198E+00  0.00000000E+00  0.00000000E+00
  0.00000000E+00  0.00000000E+00  0.00000000E+00  0.00000000E+00  0.00000000E+00
  0.00000000E+00  0.00000000E+00  0.00000000E+00  0.00000000E+00  0.00000000E+00
 -1.04667794E-01 -1.65416936E+00  1.98859056E+00 -6.72587410E-01  0.00000000E+00
  0.00000000E+00  0.00000000E+00  0.00000000E+00  0.00000000E+00  0.00000000E+00
  0.00000000E+00  0.00000000E+00  0.00000000E+00 -1.01449377E-16  0.00000000E+00
  0.00000000E+00  3.39437127E-17  0.00000000E+00  1.33785853E-15  0.00000000E+00
  0.00000000E+00 -4.92358209E-16  0.00000000E+00  0.00000000E+00  0.00000000E+00
  0.00000000E+00  0.00000000E+00  0.00000000E+00  0.00000000E+00  0.00000000E+00
  0.00000000E+00  0.00000000E+00  0.00000000E+00  0.00000000E+00  0.00000000E+00
  0.00000000E+00  0.00000000E+00  0.00000000E+00 -7.48825627E-02  0.00000000E+00
  0.00000000E+00  0.00000000E+00  0.00000000E+00  1.02960810E+00  0.00000000E+00
  0.00000000E+00  0.00000000E+00  0.00000000E+00  0.00000000E+00  0.00000000E+00
  0.00000000E+00  0.00000000E+00  0.00000000E+00  0.00000000E+00  0.00000000E+00
  0.00000000E+00  0.00000000E+00  0.00000000E+00  0.00000000E+00  0.00000000E+00
 -7.48825627E-02  0.00000000E+00  0.00000000E+00  0.00000000E+00  0.00000000E+00
  1.02960810E+00  0.00000000E+00  0.00000000E+00  0.00000000E+00  0.00000000E+00
  0.00000000E+00  0.00000000E+00  0.00000000E+00  0.00000000E+00  0.00000000E+00
  0.00000000E+00  0.00000000E+00  0.00000000E+00  0.00000000E+00  0.00000000E+00
  0.00000000E+00  0.00000000E+00  0.00000000E+00  0.00000000E+00  0.00000000E+00
  0.00000000E+00 -7.48825627E-02  0.00000000E+00  0.00000000E+00  0.00000000E+00
  0.00000000E+00  1.02960810E+00  9.69784570E-17 -3.24260254E-15  4.75673769E-15
 -2.09599041E-15  0.00000000E+00  0.00000000E+00  0.00000000E+00  0.00000000E+00
  0.00000000E+00  0.00000000E+00  0.00000000E+00  0.00000000E+00  0.00000000E+00
  4.59685741E-02  0.00000000E+00  0.00000000E+00 -5.91125062E-02  0.00000000E+00
 -6.32051236E-01  0.00000000E+00  0.00000000E+00  8.12775539E-01  0.00000000E+00
  2.87176253E-16  1.60832675E-15 -1.71912202E-15  8.94536466E-16  0.00000000E+00
  0.00000000E+00  0.00000000E+00  0.00000000E+00  0.00000000E+00  0.00000000E+00
  0.00000000E+00  0.00000000E+00  0.00000000E+00 -5.91125062E-02  0.00000000E+00
  0.00000000E+00 -4.59685741E-02  0.00000000E+00  8.12775539E-01  0.00000000E+00
  0.00000000E+00  6.32051236E-01  0.00000000E+00  0.00000000E+00  0.00000000E+00
  0.00000000E+00  0.00000000E+00  0.00000000E+00  0.00000000E+00 -1.08620900E-01
  0.00000000E+00  0.00000000E+00  1.31904613E+00  0.00000000E+00  0.00000000E+00
 -6.71353036E-01  0.00000000E+00  0.00000000E+00  0.00000000E+00  0.00000000E+00
  0.00000000E+00  0.00000000E+00  0.00000000E+00  0.00000000E+00  0.00000000E+00
  0.00000000E+00  0.00000000E+00  0.00000000E+00  0.00000000E+00  0.00000000E+00
  0.00000000E+00 -1.08620900E-01  0.00000000E+00  0.00000000E+00  1.31904613E+00
  0.00000000E+00  0.00000000E+00 -6.71353036E-01  0.00000000E+00  0.00000000E+00
  0.00000000E+00  0.00000000E+00  0.00000000E+00  0.00000000E+00  0.00000000E+00
  0.00000000E+00  0.00000000E+00  0.00000000E+00  0.00000000E+00  0.00000000E+00
  0.00000000E+00  0.00000000E+00  0.00000000E+00 -1.08620900E-01  0.00000000E+00
  0.00000000E+00  1.31904613E+00  0.00000000E+00  0.00000000E+00 -6.71353036E-01
  0.00000000E+00  0.00000000E+00  0.00000000E+00  0.00000000E+00  0.00000000E+00
  0.00000000E+00  0.00000000E+00  0.00000000E+00  0.00000000E+00  0.00000000E+00
  0.00000000E+00  0.00000000E+00 -1.58015445E+00  2.03044208E+00 -1.15758429E+00
  3.13726771E-01  0.00000000E+00  0.00000000E+00  0.00000000E+00  0.00000000E+00
  0.00000000E+00  0.00000000E+00  0.00000000E+00  0.00000000E+00  0.00000000E+00
  2.07458615E-15  0.00000000E+00  0.00000000E+00  1.47651910E-15  0.00000000E+00
 -7.55754368E-16  0.00000000E+00  0.00000000E+00 -2.14809156E-16  0.00000000E+00
  0.00000000E+00  0.00000000E+00  0.00000000E+00  0.00000000E+00  0.00000000E+00
  0.00000000E+00  0.00000000E+00  0.00000000E+00  0.00000000E+00  0.00000000E+00
  0.00000000E+00  0.00000000E+00  0.00000000E+00  0.00000000E+00  0.00000000E+00
  1.10281326E+00  0.00000000E+00  0.00000000E+00  0.00000000E+00  0.00000000E+00
 -4.02133873E-01  0.00000000E+00  0.00000000E+00  0.00000000E+00  0.00000000E+00
  0.00000000E+00  0.00000000E+00  0.00000000E+00  0.00000000E+00  0.00000000E+00
  0.00000000E+00  0.00000000E+00  0.00000000E+00  0.00000000E+00  0.00000000E+00
  0.00000000E+00  0.00000000E+00  1.10281326E+00  0.00000000E+00  0.00000000E+00
  0.00000000E+00  0.00000000E+00 -4.02133873E-01  0.00000000E+00  0.00000000E+00
  0.00000000E+00  0.00000000E+00  0.00000000E+00  0.00000000E+00  0.00000000E+00
  0.00000000E+00  0.00000000E+00  0.00000000E+00  0.00000000E+00  0.00000000E+00
  0.00000000E+00  0.00000000E+00  0.00000000E+00  0.00000000E+00  0.00000000E+00
  0.00000000E+00  0.00000000E+00  0.00000000E+00  1.10281326E+00  0.00000000E+00
  0.00000000E+00  0.00000000E+00  0.00000000E+00 -4.02133873E-01  4.99761767E-15
 -6.79848684E-15  4.18044890E-15 -1.10990298E-15  0.00000000E+00  0.00000000E+00
  0.00000000E+00  0.00000000E+00  0.00000000E+00  0.00000000E+00  0.00000000E+00
  0.00000000E+00  0.00000000E+00  9.74291099E-01  0.00000000E+00  0.00000000E+00
  5.16675866E-01  0.00000000E+00 -3.55269079E-01  0.00000000E+00  0.00000000E+00
 -1.88402582E-01  0.00000000E+00  5.28707543E-16 -6.59254689E-16  2.51570297E-17
  3.89288619E-16  0.00000000E+00  0.00000000E+00  0.00000000E+00  0.00000000E+00
  0.00000000E+00  0.00000000E+00  0.00000000E+00  0.00000000E+00  0.00000000E+00
 -5.16675866E-01  0.00000000E+00  0.00000000E+00  9.74291099E-01  0.00000000E+00
  1.88402582E-01  0.00000000E+00  0.00000000E+00 -3.55269079E-01  0.00000000E+00
  0.00000000E+00  0.00000000E+00  0.00000000E+00  0.00000000E+00  1.32203436E+00
  0.00000000E+00  0.00000000E+00 -9.35516911E-01  0.00000000E+00  0.00000000E+00
  3.03388950E-01  0.00000000E+00  0.00000000E+00  0.00000000E+00  0.00000000E+00
  0.00000000E+00  0.00000000E+00  0.00000000E+00  0.00000000E+00  0.00000000E+00
  0.00000000E+00  0.00000000E+00  0.00000000E+00  0.00000000E+00  0.00000000E+00
  0.00000000E+00  0.00000000E+00  0.00000000E+00  0.00000000E+00  1.32203436E+00
  0.00000000E+00  0.00000000E+00 -9.35516911E-01  0.00000000E+00  0.00000000E+00
  3.03388950E-01  0.00000000E+00  0.00000000E+00  0.00000000E+00  0.00000000E+00
  0.00000000E+00  0.00000000E+00  0.00000000E+00  0.00000000E+00  0.00000000E+00
  0.00000000E+00  0.00000000E+00  0.00000000E+00  0.00000000E+00  0.00000000E+00
  0.00000000E+00  1.32203436E+00  0.00000000E+00  0.00000000E+00 -9.35516911E-01
  0.00000000E+00  0.00000000E+00  3.03388950E-01  0.00000000E+00  0.00000000E+00
  0.00000000E+00  0.00000000E+00  0.00000000E+00  0.00000000E+00  0.00000000E+00
  0.00000000E+00  0.00000000E+00  0.00000000E+00  0.00000000E+00
Orthonormal basis                          R   N=         529
  2.61976069E-01  3.51747861E-01  3.52484943E-01  2.62528839E-01  0.00000000E+00
  0.00000000E+00  0.00000000E+00  0.00000000E+00  0.00000000E+00  0.00000000E+00
  0.00000000E+00  0.00000000E+00  0.00000000E+00  2.50953266E-17  0.00000000E+00
  0.00000000E+00  3.07000802E-17  0.00000000E+00  5.35317326E-17  0.00000000E+00
  0.00000000E+00 -3.11416633E-17  0.00000000E+00  9.24474474E-17  1.19620221E-16
 -9.90134702E-17 -1.97006836E-18  0.00000000E+00  0.00000000E+00  0.00000000E+00
  0.00000000E+00  0.00000000E+00  0.00000000E+00  0.00000000E+00  0.00000000E+00
  0.00000000E+00 -3.26646722E-01  0.00000000E+00  0.00000000E+00  4.93877551E-01
  0.00000000E+00 -3.26646722E-01  0.00000000E+00  0.00000000E+00  4.93877551E-01
  0.00000000E+00  4.19479429E-29  4.51883214E-17 -5.61669785E-17 -1.32498887E-16
  0.00000000E+00  0.00000000E+00  0.00000000E+00  0.00000000E+00  0.00000000E+00
  0.00000000E+00  0.00000000E+00  0.00000000E+00  0.00000000E+00  4.93877551E-01
  0.00000000E+00  0.00000000E+00  3.26646722E-01  0.00000000E+00  4.93877551E-01
  0.00000000E+00  0.00000000E+00  3.26646722E-01  0.00000000E+00  6.50647553E-01
  2.77591622E-01 -2.76071976E-01 -6.50538560E-01  0.00000000E+00  0.00000000E+00
  0.00000000E+00  0.00000000E+00  0.00000000E+00  0.00000000E+00  0.00000000E+00
  0.00000000E+00  0.00000000E+00  1.60179685E-16  0.00000000E+00  0.00000000E+00
 -1.65897849E-16  0.00000000E+00 -2.04123709E-16  0.00000000E+00  0.00000000E+00
 -1.17413418E-16  0.00000000E+00 -4.64860334E-16  2.17740126E-16  1.91106050E-16
 -2.03633626E-16  0.00000000E+00  0.00000000E+00  0.00000000E+00  0.00000000E+00
  0.00000000E+00  0.00000000E+00  0.00000000E+00  0.00000000E+00  0.00000000E+00
  5.45981469E-01  0.00000000E+00  0.00000000E+00  7.57030787E-01  0.00000000E+00
 -5.45981469E-01  0.00000000E+00  0.00000000E+00 -7.57030787E-01  0.00000000E+00
 -1.62448164E-17  2.36130319E-17 -2.86711286E-16  5.80138215E-16  0.00000000E+00
  0.00000000E+00  0.00000000E+00  0.00000000E+00  0.00000000E+00  0.00000000E+00
  0.00000000E+00  0.00000000E+00  0.00000000E+00  7.57030787E-01  0.00000000E+00
  0.00000000E+00 -5.45981469E-01  0.00000000E+00 -7.57030787E-01  0.00000000E+00
  0.00000000E+00  5.45981469E-01  0.00000000E+00  9.80784477E-01 -7.36667620E-01
 -7.16890056E-01  9.70834863E-01  0.00000000E+00  0.00000000E+00  0.00000000E+00
  0.00000000E+00  0.00000000E+00  0.00000000E+00  0.00000000E+00  0.00000000E+00
  0.00000000E+00  9.13284385E-17  0.00000000E+00  0.00000000E+00  6.59451122E-16
  0.00000000E+00  1.34228758E-16  0.00000000E+00  0.00000000E+00 -6.28040649E-16
  0.00000000E+00  1.03925833E+00 -2.47721647E+00  2.50429335E+00 -1.08038003E+00