 Entering Gaussian System, Link 0=g16
 Input=H.com
 Output=H.log
 Initial command:
 /usr/site/hpc/x86_64/glibc-2.17/broadwell/gaussian/g16_a.03/pgi-16.5/g16/l1.exe "/home/c744/c7441090/data/Gau-3858442.inp" -scrdir="/home/c744/c7441090/data/"
 Entering Link 1 = /usr/site/hpc/x86_64/glibc-2.17/broadwell/gaussian/g16_a.03/pgi-16.5/g16/l1.exe PID=   3858443.
  
 Copyright (c) 1988,1990,1992,1993,1995,1998,2003,2009,2016,
            Gaussian, Inc.  All Rights Reserved.
  
 This is part of the Gaussian(R) 16 program.  It is based on
 the Gaussian(R) 09 system (copyright 2009, Gaussian, Inc.),
 the Gaussian(R) 03 system (copyright 2003, Gaussian, Inc.),
 the Gaussian(R) 98 system (copyright 1998, Gaussian, Inc.),
 the Gaussian(R) 94 system (copyright 1995, Gaussian, Inc.),
 the Gaussian 92(TM) system (copyright 1992, Gaussian, Inc.),
 the Gaussian 90(TM) system (copyright 1990, Gaussian, Inc.),
 the Gaussian 88(TM) system (copyright 1988, Gaussian, Inc.),
 the Gaussian 86(TM) system (copyright 1986, Carnegie Mellon
 University), and the Gaussian 82(TM) system (copyright 1983,
 Carnegie Mellon University). Gaussian is a federally registered
 trademark of Gaussian, Inc.
  
 This software contains proprietary and confidential information,
 including trade secrets, belonging to Gaussian, Inc.
  
 This software is provided under written license and may be
 used, copied, transmitted, or stored only in accord with that
 written license.
  
 The following legend is applicable only to US Government
 contracts under FAR:
  
                    RESTRICTED RIGHTS LEGEND
  
 Use, reproduction and disclosure by the US Government is
 subject to restrictions as set forth in subparagraphs (a)
 and (c) of the Commercial Computer Software - Restricted
 Rights clause in FAR 52.227-19.
  
 Gaussian, Inc.
 340 Quinnipiac St., Bldg. 40, Wallingford CT 06492
  
  
 ---------------------------------------------------------------
 Warning -- This program may not be used in any manner that
 competes with the business of Gaussian, Inc. or will provide
 assistance to any competitor of Gaussian, Inc.  The licensee
 of this program is prohibited from giving any competitor of
 Gaussian, Inc. access to this program.  By using this program,
 the user acknowledges that Gaussian, Inc. is engaged in the
 business of creating and licensing software in the field of
 computational chemistry and represents and warrants to the
 licensee that it is not a competitor of Gaussian, Inc. and that
 it will not use this program in any manner prohibited above.
 ---------------------------------------------------------------
  

 Cite this work as:
 Gaussian 16, Revision A.03,
 M. J. Frisch, G. W. Trucks, H. B. Schlegel, G. E. Scuseria, 
 M. A. Robb, J. R. Cheeseman, G. Scalmani, V. Barone, 
 G. A. Petersson, H. Nakatsuji, X. Li, M. Caricato, A. V. Marenich, 
 J. Bloino, B. G. Janesko, R. Gomperts, B. Mennucci, H. P. Hratchian, 
 J. V. Ortiz, A. F. Izmaylov, J. L. Sonnenberg, D. Williams-Young, 
 F. Ding, F. Lipparini, F. Egidi, J. Goings, B. Peng, A. Petrone, 
 T. Henderson, D. Ranasinghe, V. G. Zakrzewski, J. Gao, N. Rega, 
 G. Zheng, W. Liang, M. Hada, M. Ehara, K. Toyota, R. Fukuda, 
 J. Hasegawa, M. Ishida, T. Nakajima, Y. Honda, O. Kitao, H. Nakai, 
 T. Vreven, K. Throssell, J. A. Montgomery, Jr., J. E. Peralta, 
 F. Ogliaro, M. J. Bearpark, J. J. Heyd, E. N. Brothers, K. N. Kudin, 
 V. N. Staroverov, T. A. Keith, R. Kobayashi, J. Normand, 
 K. Raghavachari, A. P. Rendell, J. C. Burant, S. S. Iyengar, 
 J. Tomasi, M. Cossi, J. M. Millam, M. Klene, C. Adamo, R. Cammi, 
 J. W. Ochterski, R. L. Martin, K. Morokuma, O. Farkas, 
 J. B. Foresman, and D. J. Fox, Gaussian, Inc., Wallingford CT, 2016.
 
 ******************************************
 Gaussian 16:  ES64L-G16RevA.03 25-Dec-2016
                20-Nov-2023 
 ******************************************
 %NProcShared=4
 Will use up to    4 processors via shared memory.
 %Mem=1GB
 %Chk=H.chk
 ----------------------------------------------------
 # B3LYP/aug-cc-pVTZ EmpiricalDispersion=GD3 Pop=Full
 ----------------------------------------------------
 1/38=1,172=1/1;
 2/12=2,17=6,18=5,40=1/2;
 3/5=16,6=1,7=10,11=2,25=1,30=1,74=-5,124=31/1,2,3;
 4//1;
 5/5=2,38=5/2;
 6/7=3,28=1/1;
 99/5=1,9=1/99;
 --------
 Hydrogen
 --------
 Symbolic Z-matrix:
 Charge =  0 Multiplicity = 2
 H                     0.        0.        0. 
 
                          Input orientation:                          
 ---------------------------------------------------------------------
 Center     Atomic      Atomic             Coordinates (Angstroms)
 Number     Number       Type             X           Y           Z
 ---------------------------------------------------------------------
      1          1           0        0.000000    0.000000    0.000000
 ---------------------------------------------------------------------
 Stoichiometry    H(2)
 Framework group  OH[O(H)]
 Deg. of freedom     0
 Full point group                 OH      NOp  48
 Largest Abelian subgroup         D2H     NOp   8
 Largest concise Abelian subgroup C1      NOp   1
                         Standard orientation:                         
 ---------------------------------------------------------------------
 Center     Atomic      Atomic             Coordinates (Angstroms)
 Number     Number       Type             X           Y           Z
 ---------------------------------------------------------------------
      1          1           0        0.000000    0.000000    0.000000
 ---------------------------------------------------------------------
 Standard basis: Aug-CC-pVTZ (5D, 7F)
 There are    10 symmetry adapted cartesian basis functions of AG  symmetry.
 There are     2 symmetry adapted cartesian basis functions of B1G symmetry.
 There are     2 symmetry adapted cartesian basis functions of B2G symmetry.
 There are     2 symmetry adapted cartesian basis functions of B3G symmetry.
 There are     0 symmetry adapted cartesian basis functions of AU  symmetry.
 There are     3 symmetry adapted cartesian basis functions of B1U symmetry.
 There are     3 symmetry adapted cartesian basis functions of B2U symmetry.
 There are     3 symmetry adapted cartesian basis functions of B3U symmetry.
 There are     8 symmetry adapted basis functions of AG  symmetry.
 There are     2 symmetry adapted basis functions of B1G symmetry.
 There are     2 symmetry adapted basis functions of B2G symmetry.
 There are     2 symmetry adapted basis functions of B3G symmetry.
 There are     0 symmetry adapted basis functions of AU  symmetry.
 There are     3 symmetry adapted basis functions of B1U symmetry.
 There are     3 symmetry adapted basis functions of B2U symmetry.
 There are     3 symmetry adapted basis functions of B3U symmetry.
    23 basis functions,    27 primitive gaussians,    25 cartesian basis functions
     1 alpha electrons        0 beta electrons
       nuclear repulsion energy         0.0000000000 Hartrees.
 NAtoms=    1 NActive=    1 NUniq=    1 SFac= 1.00D+00 NAtFMM=   60 NAOKFM=F Big=F
 Integral buffers will be    131072 words long.
 Raffenetti 2 integral format.
 Two-electron integral symmetry is turned on.
 Nuclear repulsion after empirical dispersion term =        0.0000000000 Hartrees.
 One-electron integrals computed using PRISM.
 NBasis=    23 RedAO= T EigKep=  6.82D-02  NBF=     8     2     2     2     0     3     3     3
 NBsUse=    23 1.00D-06 EigRej= -1.00D+00 NBFU=     8     2     2     2     0     3     3     3
 ExpMin= 2.53D-02 ExpMax= 3.39D+01 ExpMxC= 3.39D+01 IAcc=3 IRadAn=         5 AccDes= 0.00D+00
 Harris functional with IExCor=  402 and IRadAn=       5 diagonalized for initial guess.
 HarFok:  IExCor=  402 AccDes= 0.00D+00 IRadAn=         5 IDoV= 1 UseB2=F ITyADJ=14
 ICtDFT=  3500011 ScaDFX=  1.000000  1.000000  1.000000  1.000000
 FoFCou: FMM=F IPFlag=           0 FMFlag=      100000 FMFlg1=           0
         NFxFlg=           0 DoJE=T BraDBF=F KetDBF=T FulRan=T
         wScrn=  0.000000 ICntrl=       500 IOpCl=  0 I1Cent=   200000004 NGrid=           0
         NMat0=    1 NMatS0=      1 NMatT0=    0 NMatD0=    1 NMtDS0=    0 NMtDT0=    0
 Petite list used in FoFCou.
 Initial guess orbital symmetries:
 Alpha Orbitals:
       Occupied  (A1G)
       Virtual   (A1G) (T1U) (T1U) (T1U) (A1G) (T2G) (T2G) (T2G)
                 (EG) (EG) (T1U) (T1U) (T1U) (A1G) (T2G) (T2G)
                 (T2G) (EG) (EG) (T1U) (T1U) (T1U)
 Beta  Orbitals:
       Virtual   (A1G) (A1G) (T1U) (T1U) (T1U) (A1G) (T2G) (T2G)
                 (T2G) (EG) (EG) (T1U) (T1U) (T1U) (A1G) (T2G)
                 (T2G) (T2G) (EG) (EG) (T1U) (T1U) (T1U)
 The electronic state of the initial guess is 2-A1G.
 Initial guess <Sx>= 0.0000 <Sy>= 0.0000 <Sz>= 0.5000 <S**2>= 0.7500 S= 0.5000
 Keep R1 and R2 ints in memory in symmetry-blocked form, NReq=3490121.
 Requested convergence on RMS density matrix=1.00D-08 within 128 cycles.
 Requested convergence on MAX density matrix=1.00D-06.
 Requested convergence on             energy=1.00D-06.
 No special actions if energy rises.
 SCF Done:  E(UB3LYP) = -0.502259675743     A.U. after    6 cycles
            NFock=  6  Conv=0.77D-09     -V/T= 2.0116
 <Sx>= 0.0000 <Sy>= 0.0000 <Sz>= 0.5000 <S**2>= 0.7500 S= 0.5000
 <L.S>= 0.000000000000E+00
 Annihilation of the first spin contaminant:
 S**2 before annihilation     0.7500,   after     0.7500

 **********************************************************************

            Population analysis using the SCF density.

 **********************************************************************

 Orbital symmetries:
 Alpha Orbitals:
       Occupied  (A1G)
       Virtual   (A1G) (T1U) (T1U) (T1U) (A1G) (T2G) (T2G) (T2G)
                 (EG) (EG) (T1U) (T1U) (T1U) (A1G) (T2G) (T2G)
                 (T2G) (EG) (EG) (T1U) (T1U) (T1U)
 Beta  Orbitals:
       Virtual   (A1G) (A1G) (T1U) (T1U) (T1U) (A1G) (T2G) (T2G)
                 (T2G) (EG) (EG) (T1U) (T1U) (T1U) (A1G) (T2G)
                 (T2G) (T2G) (EG) (EG) (T1U) (T1U) (T1U)
 The electronic state is 2-A1G.
 Alpha  occ. eigenvalues --   -0.32242
 Alpha virt. eigenvalues --    0.02514   0.12444   0.12444   0.12444   0.34491
 Alpha virt. eigenvalues --    0.67703   0.67703   0.67703   0.67703   0.67703
 Alpha virt. eigenvalues --    0.81854   0.81854   0.81854   2.24143   3.54826
 Alpha virt. eigenvalues --    3.54826   3.54826   3.54826   3.54826   3.71110
 Alpha virt. eigenvalues --    3.71110   3.71110
  Beta virt. eigenvalues --   -0.00083   0.10539   0.21584   0.21584   0.21584
  Beta virt. eigenvalues --    0.54854   0.80463   0.80463   0.80463   0.80463
  Beta virt. eigenvalues --    0.80463   1.03762   1.03762   1.03762   2.65643
  Beta virt. eigenvalues --    3.85169   3.85169   3.85169   3.85169   3.85169
  Beta virt. eigenvalues --    4.08890   4.08890   4.08890
     Alpha Molecular Orbital Coefficients:
                           1         2         3         4         5
                       (A1G)--O  (A1G)--V  (T1U)--V  (T1U)--V  (T1U)--V
     Eigenvalues --    -0.32242   0.02514   0.12444   0.12444   0.12444
   1 1   H  1S          0.24829  -0.08777   0.00000   0.00000   0.00000
   2        2S          0.47477  -0.10938   0.00000   0.00000   0.00000
   3        3S          0.39193  -0.57391   0.00000   0.00000   0.00000
   4        4S          0.02637   1.30524   0.00000   0.00000   0.00000
   5        5PX         0.00000   0.00000   0.00000   0.00000   0.02749
   6        5PY         0.00000   0.00000   0.00000   0.02749   0.00000
   7        5PZ         0.00000   0.00000   0.02749   0.00000   0.00000
   8        6PX         0.00000   0.00000   0.00000   0.00000  -0.03306
   9        6PY         0.00000   0.00000   0.00000  -0.03306   0.00000
  10        6PZ         0.00000   0.00000  -0.03306   0.00000   0.00000
  11        7PX         0.00000   0.00000   0.00000   0.00000   1.01448
  12        7PY         0.00000   0.00000   0.00000   1.01448   0.00000
  13        7PZ         0.00000   0.00000   1.01448   0.00000   0.00000
  14        8D 0        0.00000  -0.00000   0.00000   0.00000   0.00000
  15        8D+1        0.00000   0.00000   0.00000   0.00000   0.00000
  16        8D-1        0.00000   0.00000   0.00000   0.00000   0.00000
  17        8D+2       -0.00000  -0.00000   0.00000   0.00000   0.00000
  18        8D-2        0.00000   0.00000   0.00000   0.00000   0.00000
  19        9D 0       -0.00000   0.00000   0.00000   0.00000   0.00000
  20        9D+1        0.00000   0.00000   0.00000   0.00000   0.00000
  21        9D-1        0.00000   0.00000   0.00000   0.00000   0.00000
  22        9D+2        0.00000   0.00000   0.00000   0.00000   0.00000
  23        9D-2        0.00000   0.00000   0.00000   0.00000   0.00000
                           6         7         8         9        10
                       (A1G)--V  (T2G)--V  (T2G)--V  (T2G)--V   (EG)--V
     Eigenvalues --     0.34491   0.67703   0.67703   0.67703   0.67703
   1 1   H  1S         -0.14393   0.00000   0.00000   0.00000   0.00000
   2        2S         -1.42543   0.00000   0.00000   0.00000   0.00000
   3        3S          2.21224   0.00000   0.00000   0.00000  -0.00000
   4        4S         -0.88117   0.00000   0.00000   0.00000   0.00000
   5        5PX         0.00000   0.00000   0.00000   0.00000   0.00000
   6        5PY         0.00000   0.00000   0.00000   0.00000   0.00000
   7        5PZ         0.00000   0.00000   0.00000   0.00000   0.00000
   8        6PX         0.00000   0.00000   0.00000   0.00000   0.00000
   9        6PY         0.00000   0.00000   0.00000   0.00000   0.00000
  10        6PZ         0.00000   0.00000   0.00000   0.00000   0.00000
  11        7PX         0.00000   0.00000   0.00000   0.00000   0.00000
  12        7PY         0.00000   0.00000   0.00000   0.00000   0.00000
  13        7PZ         0.00000   0.00000   0.00000   0.00000   0.00000
  14        8D 0        0.00000   0.00000   0.00000   0.00000  -0.05653
  15        8D+1        0.00000  -0.05836   0.00000   0.00000   0.00000
  16        8D-1        0.00000   0.00000  -0.05836   0.00000   0.00000
  17        8D+2        0.00000   0.00000   0.00000   0.00000   0.01449
  18        8D-2        0.00000   0.00000   0.00000  -0.05836   0.00000
  19        9D 0        0.00000   0.00000   0.00000   0.00000   0.99142
  20        9D+1        0.00000   1.02347   0.00000   0.00000   0.00000
  21        9D-1        0.00000   0.00000   1.02347   0.00000   0.00000
  22        9D+2       -0.00000   0.00000   0.00000   0.00000  -0.25415
  23        9D-2        0.00000   0.00000   0.00000   1.02347   0.00000
                          11        12        13        14        15
                        (EG)--V  (T1U)--V  (T1U)--V  (T1U)--V  (A1G)--V
     Eigenvalues --     0.67703   0.81854   0.81854   0.81854   2.24143
   1 1   H  1S         -0.00000   0.00000   0.00000   0.00000  -1.56330
   2        2S          0.00000   0.00000   0.00000   0.00000   2.14729
   3        3S         -0.00000   0.00000   0.00000   0.00000  -1.26843
   4        4S         -0.00000   0.00000   0.00000   0.00000   0.34793
   5        5PX         0.00000   0.00000  -0.07173   0.00000   0.00000
   6        5PY         0.00000   0.00000   0.00000  -0.07173   0.00000
   7        5PZ         0.00000  -0.07173   0.00000   0.00000   0.00000
   8        6PX         0.00000   0.00000   1.29772   0.00000   0.00000
   9        6PY         0.00000   0.00000   0.00000   1.29772   0.00000
  10        6PZ         0.00000   1.29772   0.00000   0.00000   0.00000
  11        7PX         0.00000   0.00000  -0.74787   0.00000   0.00000
  12        7PY         0.00000   0.00000   0.00000  -0.74787   0.00000
  13        7PZ         0.00000  -0.74787   0.00000   0.00000   0.00000
  14        8D 0       -0.01449   0.00000   0.00000   0.00000   0.00000
  15        8D+1        0.00000   0.00000   0.00000   0.00000   0.00000
  16        8D-1        0.00000   0.00000   0.00000   0.00000   0.00000
  17        8D+2       -0.05653   0.00000   0.00000   0.00000   0.00000
  18        8D-2        0.00000   0.00000   0.00000   0.00000   0.00000
  19        9D 0        0.25415   0.00000   0.00000   0.00000  -0.00000
  20        9D+1        0.00000   0.00000   0.00000   0.00000   0.00000
  21        9D-1        0.00000   0.00000   0.00000   0.00000   0.00000
  22        9D+2        0.99142   0.00000   0.00000   0.00000  -0.00000
  23        9D-2        0.00000   0.00000   0.00000   0.00000   0.00000
                          16        17        18        19        20
                       (T2G)--V  (T2G)--V  (T2G)--V   (EG)--V   (EG)--V
     Eigenvalues --     3.54826   3.54826   3.54826   3.54826   3.54826
   1 1   H  1S          0.00000   0.00000   0.00000   0.00000   0.00000
   2        2S          0.00000   0.00000   0.00000  -0.00000  -0.00000
   3        3S          0.00000   0.00000   0.00000   0.00000   0.00000
   4        4S          0.00000   0.00000   0.00000  -0.00000  -0.00000
   5        5PX         0.00000   0.00000   0.00000   0.00000   0.00000
   6        5PY         0.00000   0.00000   0.00000   0.00000   0.00000
   7        5PZ         0.00000   0.00000   0.00000   0.00000   0.00000
   8        6PX         0.00000   0.00000   0.00000   0.00000   0.00000
   9        6PY         0.00000   0.00000   0.00000   0.00000   0.00000
  10        6PZ         0.00000   0.00000   0.00000   0.00000   0.00000
  11        7PX         0.00000   0.00000   0.00000   0.00000   0.00000
  12        7PY         0.00000   0.00000   0.00000   0.00000   0.00000
  13        7PZ         0.00000   0.00000   0.00000   0.00000   0.00000
  14        8D 0        0.00000   0.00000   0.00000  -0.22120   1.08142
  15        8D+1        1.10381   0.00000   0.00000   0.00000   0.00000
  16        8D-1        0.00000   1.10381   0.00000   0.00000   0.00000
  17        8D+2        0.00000   0.00000   0.00000   1.08142   0.22120
  18        8D-2        0.00000   0.00000   1.10381   0.00000   0.00000
  19        9D 0        0.00000   0.00000   0.00000   0.08367  -0.40904
  20        9D+1       -0.41751   0.00000   0.00000   0.00000   0.00000
  21        9D-1        0.00000  -0.41751   0.00000   0.00000   0.00000
  22        9D+2        0.00000   0.00000   0.00000  -0.40904  -0.08367
  23        9D-2        0.00000   0.00000  -0.41751   0.00000   0.00000
                          21        22        23
                       (T1U)--V  (T1U)--V  (T1U)--V
     Eigenvalues --     3.71110   3.71110   3.71110
   1 1   H  1S          0.00000   0.00000   0.00000
   2        2S          0.00000   0.00000   0.00000
   3        3S          0.00000   0.00000   0.00000
   4        4S          0.00000   0.00000   0.00000
   5        5PX         1.32464   0.00000   0.00000
   6        5PY         0.00000   1.32464   0.00000
   7        5PZ         0.00000   0.00000   1.32464
   8        6PX        -0.97420   0.00000   0.00000
   9        6PY         0.00000  -0.97420   0.00000
  10        6PZ         0.00000   0.00000  -0.97420
  11        7PX         0.32197   0.00000   0.00000
  12        7PY         0.00000   0.32197   0.00000
  13        7PZ         0.00000   0.00000   0.32197
  14        8D 0        0.00000   0.00000   0.00000
  15        8D+1        0.00000   0.00000   0.00000
  16        8D-1        0.00000   0.00000   0.00000
  17        8D+2        0.00000   0.00000   0.00000
  18        8D-2        0.00000   0.00000   0.00000
  19        9D 0        0.00000   0.00000   0.00000
  20        9D+1        0.00000   0.00000   0.00000
  21        9D-1        0.00000   0.00000   0.00000
  22        9D+2        0.00000   0.00000   0.00000
  23        9D-2        0.00000   0.00000   0.00000
     Beta Molecular Orbital Coefficients:
                           1         2         3         4         5
                       (A1G)--V  (A1G)--V  (T1U)--V  (T1U)--V  (T1U)--V
     Eigenvalues --    -0.00083   0.10539   0.21584   0.21584   0.21584
   1 1   H  1S          0.08576   0.13701   0.00000   0.00000   0.00000
   2        2S          0.14489  -0.00999   0.00000   0.00000   0.00000
   3        3S          0.16934   1.28946   0.00000   0.00000   0.00000
   4        4S          0.76790  -1.20888   0.00000   0.00000   0.00000
   5        5PX         0.00000   0.00000   0.00000   0.00000   0.03173
   6        5PY         0.00000   0.00000   0.00000   0.03173   0.00000
   7        5PZ         0.00000   0.00000   0.03173   0.00000   0.00000
   8        6PX         0.00000   0.00000   0.00000   0.00000  -0.13839
   9        6PY         0.00000   0.00000   0.00000  -0.13839   0.00000
  10        6PZ         0.00000   0.00000  -0.13839   0.00000   0.00000
  11        7PX         0.00000   0.00000   0.00000   0.00000   1.07209
  12        7PY         0.00000   0.00000   0.00000   1.07209   0.00000
  13        7PZ         0.00000   0.00000   1.07209   0.00000   0.00000
  14        8D 0        0.00000   0.00000   0.00000   0.00000   0.00000
  15        8D+1        0.00000   0.00000   0.00000   0.00000   0.00000
  16        8D-1        0.00000   0.00000   0.00000   0.00000   0.00000
  17        8D+2        0.00000   0.00000   0.00000   0.00000   0.00000
  18        8D-2        0.00000   0.00000   0.00000   0.00000   0.00000
  19        9D 0       -0.00000  -0.00000   0.00000   0.00000   0.00000
  20        9D+1        0.00000   0.00000   0.00000   0.00000   0.00000
  21        9D-1        0.00000   0.00000   0.00000   0.00000   0.00000
  22        9D+2       -0.00000  -0.00000   0.00000   0.00000   0.00000
  23        9D-2        0.00000   0.00000   0.00000   0.00000   0.00000
                           6         7         8         9        10
                       (A1G)--V  (T2G)--V  (T2G)--V  (T2G)--V   (EG)--V
     Eigenvalues --     0.54854   0.80463   0.80463   0.80463   0.80463
   1 1   H  1S         -0.10467   0.00000   0.00000   0.00000   0.00000
   2        2S         -1.65417   0.00000   0.00000   0.00000  -0.00000
   3        3S          1.98859   0.00000   0.00000   0.00000   0.00000
   4        4S         -0.67259   0.00000   0.00000   0.00000  -0.00000
   5        5PX         0.00000   0.00000   0.00000   0.00000   0.00000
   6        5PY         0.00000   0.00000   0.00000   0.00000   0.00000
   7        5PZ         0.00000   0.00000   0.00000   0.00000   0.00000
   8        6PX         0.00000   0.00000   0.00000   0.00000   0.00000
   9        6PY         0.00000   0.00000   0.00000   0.00000   0.00000
  10        6PZ         0.00000   0.00000   0.00000   0.00000   0.00000
  11        7PX         0.00000   0.00000   0.00000   0.00000   0.00000
  12        7PY         0.00000   0.00000   0.00000   0.00000   0.00000
  13        7PZ         0.00000   0.00000   0.00000   0.00000   0.00000
  14        8D 0       -0.00000   0.00000   0.00000   0.00000   0.04597
  15        8D+1        0.00000   0.00000  -0.07488   0.00000   0.00000
  16        8D-1        0.00000  -0.07488   0.00000   0.00000   0.00000
  17        8D+2        0.00000   0.00000   0.00000   0.00000  -0.05911
  18        8D-2        0.00000   0.00000   0.00000  -0.07488   0.00000
  19        9D 0        0.00000   0.00000   0.00000   0.00000  -0.63205
  20        9D+1        0.00000   0.00000   1.02961   0.00000   0.00000
  21        9D-1        0.00000   1.02961   0.00000   0.00000   0.00000
  22        9D+2       -0.00000   0.00000   0.00000   0.00000   0.81278
  23        9D-2        0.00000   0.00000   0.00000   1.02961   0.00000
                          11        12        13        14        15
                        (EG)--V  (T1U)--V  (T1U)--V  (T1U)--V  (A1G)--V
     Eigenvalues --     0.80463   1.03762   1.03762   1.03762   2.65643
   1 1   H  1S          0.00000   0.00000   0.00000   0.00000  -1.58015
   2        2S          0.00000   0.00000   0.00000   0.00000   2.03044
   3        3S         -0.00000   0.00000   0.00000   0.00000  -1.15758
   4        4S          0.00000   0.00000   0.00000   0.00000   0.31373
   5        5PX         0.00000   0.00000   0.00000  -0.10862   0.00000
   6        5PY         0.00000   0.00000  -0.10862   0.00000   0.00000
   7        5PZ         0.00000  -0.10862   0.00000   0.00000   0.00000
   8        6PX         0.00000   0.00000   0.00000   1.31905   0.00000
   9        6PY         0.00000   0.00000   1.31905   0.00000   0.00000
  10        6PZ         0.00000   1.31905   0.00000   0.00000   0.00000
  11        7PX         0.00000   0.00000   0.00000  -0.67135   0.00000
  12        7PY         0.00000   0.00000  -0.67135   0.00000   0.00000
  13        7PZ         0.00000  -0.67135   0.00000   0.00000   0.00000
  14        8D 0       -0.05911   0.00000   0.00000   0.00000   0.00000
  15        8D+1        0.00000   0.00000   0.00000   0.00000   0.00000
  16        8D-1        0.00000   0.00000   0.00000   0.00000   0.00000
  17        8D+2       -0.04597   0.00000   0.00000   0.00000   0.00000
  18        8D-2        0.00000   0.00000   0.00000   0.00000   0.00000
  19        9D 0        0.81278   0.00000   0.00000   0.00000  -0.00000
  20        9D+1        0.00000   0.00000   0.00000   0.00000   0.00000
  21        9D-1        0.00000   0.00000   0.00000   0.00000   0.00000
  22        9D+2        0.63205   0.00000   0.00000   0.00000  -0.00000
  23        9D-2        0.00000   0.00000   0.00000   0.00000   0.00000
                          16        17        18        19        20
                       (T2G)--V  (T2G)--V  (T2G)--V   (EG)--V   (EG)--V
     Eigenvalues --     3.85169   3.85169   3.85169   3.85169   3.85169
   1 1   H  1S          0.00000   0.00000   0.00000   0.00000   0.00000
   2        2S          0.00000   0.00000   0.00000  -0.00000  -0.00000
   3        3S          0.00000   0.00000   0.00000   0.00000   0.00000
   4        4S          0.00000   0.00000   0.00000  -0.00000   0.00000
   5        5PX         0.00000   0.00000   0.00000   0.00000   0.00000
   6        5PY         0.00000   0.00000   0.00000   0.00000   0.00000
   7        5PZ         0.00000   0.00000   0.00000   0.00000   0.00000
   8        6PX         0.00000   0.00000   0.00000   0.00000   0.00000
   9        6PY         0.00000   0.00000   0.00000   0.00000   0.00000
  10        6PZ         0.00000   0.00000   0.00000   0.00000   0.00000
  11        7PX         0.00000   0.00000   0.00000   0.00000   0.00000
  12        7PY         0.00000   0.00000   0.00000   0.00000   0.00000
  13        7PZ         0.00000   0.00000   0.00000   0.00000   0.00000
  14        8D 0        0.00000   0.00000   0.00000   0.97429  -0.51668
  15        8D+1        0.00000   1.10281   0.00000   0.00000   0.00000
  16        8D-1        1.10281   0.00000   0.00000   0.00000   0.00000
  17        8D+2        0.00000   0.00000   0.00000   0.51668   0.97429
  18        8D-2        0.00000   0.00000   1.10281   0.00000   0.00000
  19        9D 0        0.00000   0.00000   0.00000  -0.35527   0.18840
  20        9D+1        0.00000  -0.40213   0.00000   0.00000   0.00000
  21        9D-1       -0.40213   0.00000   0.00000   0.00000   0.00000
  22        9D+2        0.00000   0.00000   0.00000  -0.18840  -0.35527
  23        9D-2        0.00000   0.00000  -0.40213   0.00000   0.00000
                          21        22        23
                       (T1U)--V  (T1U)--V  (T1U)--V
     Eigenvalues --     4.08890   4.08890   4.08890
   1 1   H  1S          0.00000   0.00000   0.00000
   2        2S          0.00000   0.00000   0.00000
   3        3S          0.00000   0.00000   0.00000
   4        4S          0.00000   0.00000   0.00000
   5        5PX         1.32203   0.00000   0.00000
   6        5PY         0.00000   0.00000   1.32203
   7        5PZ         0.00000   1.32203   0.00000
   8        6PX        -0.93552   0.00000   0.00000
   9        6PY         0.00000   0.00000  -0.93552
  10        6PZ         0.00000  -0.93552   0.00000
  11        7PX         0.30339   0.00000   0.00000
  12        7PY         0.00000   0.00000   0.30339
  13        7PZ         0.00000   0.30339   0.00000
  14        8D 0        0.00000   0.00000   0.00000
  15        8D+1        0.00000   0.00000   0.00000
  16        8D-1        0.00000   0.00000   0.00000
  17        8D+2        0.00000   0.00000   0.00000
  18        8D-2        0.00000   0.00000   0.00000
  19        9D 0        0.00000   0.00000   0.00000
  20        9D+1        0.00000   0.00000   0.00000
  21        9D-1        0.00000   0.00000   0.00000
  22        9D+2        0.00000   0.00000   0.00000
  23        9D-2        0.00000   0.00000   0.00000
     Alpha Density Matrix:
                           1         2         3         4         5
   1 1   H  1S          0.06165
   2        2S          0.11788   0.22540
   3        3S          0.09731   0.18607   0.15361
   4        4S          0.00655   0.01252   0.01034   0.00070
   5        5PX         0.00000   0.00000   0.00000   0.00000   0.00000
   6        5PY         0.00000   0.00000   0.00000   0.00000   0.00000
   7        5PZ         0.00000   0.00000   0.00000   0.00000   0.00000
   8        6PX         0.00000   0.00000   0.00000   0.00000   0.00000
   9        6PY         0.00000   0.00000   0.00000   0.00000   0.00000
  10        6PZ         0.00000   0.00000   0.00000   0.00000   0.00000
  11        7PX         0.00000   0.00000   0.00000   0.00000   0.00000
  12        7PY         0.00000   0.00000   0.00000   0.00000   0.00000
  13        7PZ         0.00000   0.00000   0.00000   0.00000   0.00000
  14        8D 0        0.00000  -0.00000   0.00000  -0.00000   0.00000
  15        8D+1        0.00000   0.00000   0.00000   0.00000   0.00000
  16        8D-1       -0.00000  -0.00000  -0.00000  -0.00000   0.00000
  17        8D+2        0.00000   0.00000  -0.00000   0.00000   0.00000
  18        8D-2        0.00000   0.00000   0.00000   0.00000   0.00000
  19        9D 0        0.00000   0.00000   0.00000   0.00000   0.00000
  20        9D+1       -0.00000  -0.00000  -0.00000  -0.00000   0.00000
  21        9D-1        0.00000   0.00000   0.00000   0.00000   0.00000
  22        9D+2        0.00000  -0.00000  -0.00000  -0.00000   0.00000
  23        9D-2       -0.00000  -0.00000  -0.00000  -0.00000   0.00000
                           6         7         8         9        10
   6        5PY         0.00000
   7        5PZ         0.00000   0.00000
   8        6PX         0.00000   0.00000   0.00000
   9        6PY         0.00000   0.00000   0.00000   0.00000
  10        6PZ         0.00000   0.00000   0.00000   0.00000   0.00000
  11        7PX         0.00000   0.00000   0.00000   0.00000   0.00000
  12        7PY         0.00000   0.00000   0.00000   0.00000   0.00000
  13        7PZ         0.00000   0.00000   0.00000   0.00000   0.00000
  14        8D 0        0.00000   0.00000   0.00000   0.00000   0.00000
  15        8D+1        0.00000   0.00000   0.00000   0.00000   0.00000
  16        8D-1        0.00000   0.00000   0.00000   0.00000   0.00000
  17        8D+2        0.00000   0.00000   0.00000   0.00000   0.00000
  18        8D-2        0.00000   0.00000   0.00000   0.00000   0.00000
  19        9D 0        0.00000   0.00000   0.00000   0.00000   0.00000
  20        9D+1        0.00000   0.00000   0.00000   0.00000   0.00000
  21        9D-1        0.00000   0.00000   0.00000   0.00000   0.00000
  22        9D+2        0.00000   0.00000   0.00000   0.00000   0.00000
  23        9D-2        0.00000   0.00000   0.00000   0.00000   0.00000
                          11        12        13        14        15
  11        7PX         0.00000
  12        7PY         0.00000   0.00000
  13        7PZ         0.00000   0.00000   0.00000
  14        8D 0        0.00000   0.00000   0.00000   0.00000
  15        8D+1        0.00000   0.00000   0.00000   0.00000   0.00000
  16        8D-1        0.00000   0.00000   0.00000  -0.00000   0.00000
  17        8D+2        0.00000   0.00000   0.00000   0.00000  -0.00000
  18        8D-2        0.00000   0.00000   0.00000   0.00000  -0.00000
  19        9D 0        0.00000   0.00000   0.00000  -0.00000  -0.00000
  20        9D+1        0.00000   0.00000   0.00000  -0.00000  -0.00000
  21        9D-1        0.00000   0.00000   0.00000   0.00000  -0.00000
  22        9D+2        0.00000   0.00000   0.00000  -0.00000   0.00000
  23        9D-2        0.00000   0.00000   0.00000  -0.00000   0.00000
                          16        17        18        19        20
  16        8D-1        0.00000
  17        8D+2       -0.00000   0.00000
  18        8D-2        0.00000   0.00000   0.00000
  19        9D 0        0.00000  -0.00000   0.00000   0.00000
  20        9D+1       -0.00000   0.00000  -0.00000   0.00000   0.00000
  21        9D-1       -0.00000   0.00000   0.00000  -0.00000   0.00000
  22        9D+2        0.00000  -0.00000  -0.00000   0.00000  -0.00000
  23        9D-2        0.00000  -0.00000  -0.00000   0.00000   0.00000
                          21        22        23
  21        9D-1        0.00000
  22        9D+2       -0.00000   0.00000
  23        9D-2       -0.00000   0.00000   0.00000
     Beta Density Matrix:
                           1         2         3         4         5
   1 1   H  1S          0.00000
   2        2S          0.00000   0.00000
   3        3S          0.00000   0.00000   0.00000
   4        4S          0.00000   0.00000   0.00000   0.00000
   5        5PX         0.00000   0.00000   0.00000   0.00000   0.00000
   6        5PY         0.00000   0.00000   0.00000   0.00000   0.00000
   7        5PZ         0.00000   0.00000   0.00000   0.00000   0.00000
   8        6PX         0.00000   0.00000   0.00000   0.00000   0.00000
   9        6PY         0.00000   0.00000   0.00000   0.00000   0.00000
  10        6PZ         0.00000   0.00000   0.00000   0.00000   0.00000
  11        7PX         0.00000   0.00000   0.00000   0.00000   0.00000
  12        7PY         0.00000   0.00000   0.00000   0.00000   0.00000
  13        7PZ         0.00000   0.00000   0.00000   0.00000   0.00000
  14        8D 0        0.00000   0.00000   0.00000   0.00000   0.00000
  15        8D+1        0.00000   0.00000   0.00000   0.00000   0.00000
  16        8D-1        0.00000   0.00000   0.00000   0.00000   0.00000
  17        8D+2        0.00000   0.00000   0.00000   0.00000   0.00000
  18        8D-2        0.00000   0.00000   0.00000   0.00000   0.00000
  19        9D 0        0.00000   0.00000   0.00000   0.00000   0.00000
  20        9D+1        0.00000   0.00000   0.00000   0.00000   0.00000
  21        9D-1        0.00000   0.00000   0.00000   0.00000   0.00000
  22        9D+2        0.00000   0.00000   0.00000   0.00000   0.00000
  23        9D-2        0.00000   0.00000   0.00000   0.00000   0.00000
                           6         7         8         9        10
   6        5PY         0.00000
   7        5PZ         0.00000   0.00000
   8        6PX         0.00000   0.00000   0.00000
   9        6PY         0.00000   0.00000   0.00000   0.00000
  10        6PZ         0.00000   0.00000   0.00000   0.00000   0.00000
  11        7PX         0.00000   0.00000   0.00000   0.00000   0.00000
  12        7PY         0.00000   0.00000   0.00000   0.00000   0.00000
  13        7PZ         0.00000   0.00000   0.00000   0.00000   0.00000
  14        8D 0        0.00000   0.00000   0.00000   0.00000   0.00000
  15        8D+1        0.00000   0.00000   0.00000   0.00000   0.00000
  16        8D-1        0.00000   0.00000   0.00000   0.00000   0.00000
  17        8D+2        0.00000   0.00000   0.00000   0.00000   0.00000
  18        8D-2        0.00000   0.00000   0.00000   0.00000   0.00000
  19        9D 0        0.00000   0.00000   0.00000   0.00000   0.00000
  20        9D+1        0.00000   0.00000   0.00000   0.00000   0.00000
  21        9D-1        0.00000   0.00000   0.00000   0.00000   0.00000
  22        9D+2        0.00000   0.00000   0.00000   0.00000   0.00000
  23        9D-2        0.00000   0.00000   0.00000   0.00000   0.00000
                          11        12        13        14        15
  11        7PX         0.00000
  12        7PY         0.00000   0.00000
  13        7PZ         0.00000   0.00000   0.00000
  14        8D 0        0.00000   0.00000   0.00000   0.00000
  15        8D+1        0.00000   0.00000   0.00000   0.00000   0.00000
  16        8D-1        0.00000   0.00000   0.00000   0.00000   0.00000
  17        8D+2        0.00000   0.00000   0.00000   0.00000   0.00000
  18        8D-2        0.00000   0.00000   0.00000   0.00000   0.00000
  19        9D 0        0.00000   0.00000   0.00000   0.00000   0.00000
  20        9D+1        0.00000   0.00000   0.00000   0.00000   0.00000
  21        9D-1        0.00000   0.00000   0.00000   0.00000   0.00000
  22        9D+2        0.00000   0.00000   0.00000   0.00000   0.00000
  23        9D-2        0.00000   0.00000   0.00000   0.00000   0.00000
                          16        17        18        19        20
  16        8D-1        0.00000
  17        8D+2        0.00000   0.00000
  18        8D-2        0.00000   0.00000   0.00000
  19        9D 0        0.00000   0.00000   0.00000   0.00000
  20        9D+1        0.00000   0.00000   0.00000   0.00000   0.00000
  21        9D-1        0.00000   0.00000   0.00000   0.00000   0.00000
  22        9D+2        0.00000   0.00000   0.00000   0.00000   0.00000
  23        9D-2        0.00000   0.00000   0.00000   0.00000   0.00000
                          21        22        23
  21        9D-1        0.00000
  22        9D+2        0.00000   0.00000
  23        9D-2        0.00000   0.00000   0.00000
    Full Mulliken population analysis:
                           1         2         3         4         5
   1 1   H  1S          0.06165
   2        2S          0.08326   0.22540
   3        3S          0.03635   0.14679   0.15361
   4        4S          0.00093   0.00465   0.00734   0.00070
   5        5PX         0.00000   0.00000   0.00000   0.00000   0.00000
   6        5PY         0.00000   0.00000   0.00000   0.00000   0.00000
   7        5PZ         0.00000   0.00000   0.00000   0.00000   0.00000
   8        6PX         0.00000   0.00000   0.00000   0.00000   0.00000
   9        6PY         0.00000   0.00000   0.00000   0.00000   0.00000
  10        6PZ         0.00000   0.00000   0.00000   0.00000   0.00000
  11        7PX         0.00000   0.00000   0.00000   0.00000   0.00000
  12        7PY         0.00000   0.00000   0.00000   0.00000   0.00000
  13        7PZ         0.00000   0.00000   0.00000   0.00000   0.00000
  14        8D 0        0.00000  -0.00000   0.00000   0.00000   0.00000
  15        8D+1        0.00000  -0.00000  -0.00000   0.00000   0.00000
  16        8D-1       -0.00000  -0.00000  -0.00000   0.00000   0.00000
  17        8D+2        0.00000   0.00000  -0.00000  -0.00000   0.00000
  18        8D-2       -0.00000  -0.00000  -0.00000  -0.00000   0.00000
  19        9D 0       -0.00000   0.00000   0.00000   0.00000   0.00000
  20        9D+1        0.00000   0.00000   0.00000   0.00000   0.00000
  21        9D-1        0.00000   0.00000   0.00000   0.00000   0.00000
  22        9D+2        0.00000  -0.00000   0.00000  -0.00000   0.00000
  23        9D-2        0.00000   0.00000   0.00000   0.00000   0.00000
                           6         7         8         9        10
   6        5PY         0.00000
   7        5PZ         0.00000   0.00000
   8        6PX         0.00000   0.00000   0.00000
   9        6PY         0.00000   0.00000   0.00000   0.00000
  10        6PZ         0.00000   0.00000   0.00000   0.00000   0.00000
  11        7PX         0.00000   0.00000   0.00000   0.00000   0.00000
  12        7PY         0.00000   0.00000   0.00000   0.00000   0.00000
  13        7PZ         0.00000   0.00000   0.00000   0.00000   0.00000
  14        8D 0        0.00000   0.00000   0.00000   0.00000   0.00000
  15        8D+1        0.00000   0.00000   0.00000   0.00000   0.00000
  16        8D-1        0.00000   0.00000   0.00000   0.00000   0.00000
  17        8D+2        0.00000   0.00000   0.00000   0.00000   0.00000
  18        8D-2        0.00000   0.00000   0.00000   0.00000   0.00000
  19        9D 0        0.00000   0.00000   0.00000   0.00000   0.00000
  20        9D+1        0.00000   0.00000   0.00000   0.00000   0.00000
  21        9D-1        0.00000   0.00000   0.00000   0.00000   0.00000
  22        9D+2        0.00000   0.00000   0.00000   0.00000   0.00000
  23        9D-2        0.00000   0.00000   0.00000   0.00000   0.00000
                          11        12        13        14        15
  11        7PX         0.00000
  12        7PY         0.00000   0.00000
  13        7PZ         0.00000   0.00000   0.00000
  14        8D 0        0.00000   0.00000   0.00000   0.00000
  15        8D+1        0.00000   0.00000   0.00000   0.00000   0.00000
  16        8D-1        0.00000   0.00000   0.00000   0.00000   0.00000
  17        8D+2        0.00000   0.00000   0.00000   0.00000   0.00000
  18        8D-2        0.00000   0.00000   0.00000   0.00000  -0.00000
  19        9D 0        0.00000   0.00000   0.00000  -0.00000   0.00000
  20        9D+1        0.00000   0.00000   0.00000  -0.00000  -0.00000
  21        9D-1        0.00000   0.00000   0.00000  -0.00000  -0.00000
  22        9D+2        0.00000   0.00000   0.00000  -0.00000   0.00000
  23        9D-2        0.00000   0.00000   0.00000  -0.00000   0.00000
                          16        17        18        19        20
  16        8D-1        0.00000
  17        8D+2        0.00000   0.00000
  18        8D-2       -0.00000   0.00000   0.00000
  19        9D 0       -0.00000  -0.00000   0.00000   0.00000
  20        9D+1        0.00000  -0.00000  -0.00000  -0.00000   0.00000
  21        9D-1       -0.00000  -0.00000   0.00000  -0.00000   0.00000
  22        9D+2       -0.00000  -0.00000  -0.00000  -0.00000  -0.00000
  23        9D-2       -0.00000  -0.00000  -0.00000   0.00000   0.00000
                          21        22        23
  21        9D-1        0.00000
  22        9D+2        0.00000   0.00000
  23        9D-2        0.00000   0.00000   0.00000
     Gross orbital populations:
                         Total     Alpha     Beta      Spin
   1 1   H  1S          0.18219   0.18219   0.00000   0.18219
   2        2S          0.46010   0.46010   0.00000   0.46010
   3        3S          0.34409   0.34409   0.00000   0.34409
   4        4S          0.01362   0.01362   0.00000   0.01362
   5        5PX         0.00000   0.00000   0.00000   0.00000
   6        5PY         0.00000   0.00000   0.00000   0.00000
   7        5PZ         0.00000   0.00000   0.00000   0.00000
   8        6PX         0.00000   0.00000   0.00000   0.00000
   9        6PY         0.00000   0.00000   0.00000   0.00000
  10        6PZ         0.00000   0.00000   0.00000   0.00000
  11        7PX         0.00000   0.00000   0.00000   0.00000
  12        7PY         0.00000   0.00000   0.00000   0.00000
  13        7PZ         0.00000   0.00000   0.00000   0.00000
  14        8D 0        0.00000   0.00000   0.00000   0.00000
  15        8D+1        0.00000   0.00000   0.00000   0.00000
  16        8D-1        0.00000   0.00000   0.00000   0.00000
  17        8D+2        0.00000   0.00000   0.00000   0.00000
  18        8D-2        0.00000   0.00000   0.00000   0.00000
  19        9D 0        0.00000   0.00000   0.00000   0.00000
  20        9D+1        0.00000   0.00000   0.00000   0.00000
  21        9D-1        0.00000   0.00000   0.00000   0.00000
  22        9D+2        0.00000   0.00000   0.00000   0.00000
  23        9D-2        0.00000   0.00000   0.00000   0.00000
          Condensed to atoms (all electrons):
               1
     1  H    1.000000
          Atomic-Atomic Spin Densities.
               1
     1  H    1.000000
 Mulliken charges and spin densities:
               1          2
     1  H   -0.000000   1.000000
 Sum of Mulliken charges =  -0.00000   1.00000
 Mulliken charges and spin densities with hydrogens summed into heavy atoms:
               1          2
 Electronic spatial extent (au):  <R**2>=              3.1740
 Charge=             -0.0000 electrons
 Dipole moment (field-independent basis, Debye):
    X=              0.0000    Y=              0.0000    Z=              0.0000  Tot=              0.0000
 Quadrupole moment (field-independent basis, Debye-Ang):
   XX=             -1.4230   YY=             -1.4230   ZZ=             -1.4230
   XY=              0.0000   XZ=              0.0000   YZ=             -0.0000
 Traceless Quadrupole moment (field-independent basis, Debye-Ang):
   XX=              0.0000   YY=              0.0000   ZZ=              0.0000
   XY=              0.0000   XZ=              0.0000   YZ=             -0.0000
 Octapole moment (field-independent basis, Debye-Ang**2):
  XXX=              0.0000  YYY=              0.0000  ZZZ=              0.0000  XYY=              0.0000
  XXY=              0.0000  XXZ=              0.0000  XZZ=              0.0000  YZZ=              0.0000
  YYZ=              0.0000  XYZ=              0.0000
 Hexadecapole moment (field-independent basis, Debye-Ang**3):
 XXXX=             -2.0161 YYYY=             -2.0161 ZZZZ=             -2.0161 XXXY=              0.0000
 XXXZ=              0.0000 YYYX=              0.0000 YYYZ=             -0.0000 ZZZX=              0.0000
 ZZZY=             -0.0000 XXYY=             -0.6720 XXZZ=             -0.6720 YYZZ=             -0.6720
 XXYZ=             -0.0000 YYXZ=              0.0000 ZZXY=              0.0000
 N-N= 0.000000000000D+00 E-N=-9.959323730904D-01  KE= 4.964991759662D-01
 Symmetry AG   KE= 4.964991759662D-01
 Symmetry B1G  KE= 3.254371989100D-63
 Symmetry B2G  KE= 2.705105454112D-63
 Symmetry B3G  KE= 3.698523488455D-63
 Symmetry AU   KE= 0.000000000000D+00
 Symmetry B1U  KE= 0.000000000000D+00
 Symmetry B2U  KE= 0.000000000000D+00
 Symmetry B3U  KE= 0.000000000000D+00
 Symmetry AG   SP= 1.000000000000D+00
 Symmetry B1G  SP= 2.812981322600D-63
 Symmetry B2G  SP= 2.207682919745D-63
 Symmetry B3G  SP= 3.005776709933D-63
 Symmetry AU   SP= 0.000000000000D+00
 Symmetry B1U  SP= 0.000000000000D+00
 Symmetry B2U  SP= 0.000000000000D+00
 Symmetry B3U  SP= 0.000000000000D+00
 Orbital energies and kinetic energies (alpha):
                                 1                 2
   1         (A1G)--O         -0.322420          0.496499
   2         (A1G)--V          0.025143          0.108730
   3         (T1U)--V          0.124438          0.253098
   4         (T1U)--V          0.124438          0.253098
   5         (T1U)--V          0.124438          0.253098
   6         (A1G)--V          0.344907          0.716053
   7         (T2G)--V          0.677025          0.846823
   8         (T2G)--V          0.677025          0.846823
   9         (T2G)--V          0.677025          0.846823
  10         (EG)--V           0.677025          0.846823
  11         (EG)--V           0.677025          0.846823
  12         (T1U)--V          0.818537          1.163596
  13         (T1U)--V          0.818537          1.163596
  14         (T1U)--V          0.818537          1.163596
  15         (A1G)--V          2.241431          3.856428
  16         (T2G)--V          3.548257          4.107776
  17         (T2G)--V          3.548257          4.107776
  18         (T2G)--V          3.548257          4.107776
  19         (EG)--V           3.548257          4.107776
  20         (EG)--V           3.548257          4.107776
  21         (T1U)--V          3.711098          4.627660
  22         (T1U)--V          3.711098          4.627660
  23         (T1U)--V          3.711098          4.627660
 Orbital energies and kinetic energies (beta):
                                 1                 2
   1         (A1G)--V         -0.000832          0.098214
   2         (A1G)--V          0.105386          0.248549
   3         (T1U)--V          0.215838          0.241584
   4         (T1U)--V          0.215838          0.241584
   5         (T1U)--V          0.215838          0.241584
   6         (A1G)--V          0.548535          0.862956
   7         (T2G)--V          0.804634          0.845116
   8         (T2G)--V          0.804634          0.845116
   9         (T2G)--V          0.804634          0.845116
  10         (EG)--V           0.804634          0.845116
  11         (EG)--V           0.804634          0.845116
  12         (T1U)--V          1.037622          1.163624
  13         (T1U)--V          1.037622          1.163624
  14         (T1U)--V          1.037622          1.163624
  15         (A1G)--V          2.656428          3.967990
  16         (T2G)--V          3.851691          4.109483
  17         (T2G)--V          3.851691          4.109483
  18         (T2G)--V          3.851691          4.109483
  19         (EG)--V           3.851691          4.109483
  20         (EG)--V           3.851691          4.109483
  21         (T1U)--V          4.088898          4.639146
  22         (T1U)--V          4.088898          4.639146
  23         (T1U)--V          4.088898          4.639146
 Total kinetic energy from orbitals= 4.964991759662D-01
                          Isotropic Fermi Contact Couplings
        Atom                 a.u.       MegaHertz       Gauss      10(-4) cm-1
     1  H(1)               0.29572    1321.84348     471.66663     440.91953
 --------------------------------------------------------
       Center         ----  Spin Dipole Couplings  ----
                      3XX-RR        3YY-RR        3ZZ-RR
 --------------------------------------------------------
     1   Atom        0.000000      0.000000      0.000000
 --------------------------------------------------------
                        XY            XZ            YZ
 --------------------------------------------------------
     1   Atom        0.000000      0.000000      0.000000
 --------------------------------------------------------


 ---------------------------------------------------------------------------------
              Anisotropic Spin Dipole Couplings in Principal Axis System
 ---------------------------------------------------------------------------------

       Atom             a.u.   MegaHertz   Gauss  10(-4) cm-1        Axes

              Baa     0.0000     0.000     0.000     0.000  1.0000  0.0000  0.0000
     1 H(1)   Bbb     0.0000     0.000     0.000     0.000 -0.0000  1.0000  0.0000
              Bcc     0.0000     0.000     0.000     0.000  0.0000  0.0000  1.0000
 

 ---------------------------------------------------------------------------------

 1\1\GINC-LOGIN\SP\UB3LYP\Aug-CC-pVTZ\H1(2)\C7441090\20-Nov-2023\0\\# B
 3LYP/aug-cc-pVTZ EmpiricalDispersion=GD3 Pop=Full\\Hydrogen\\0,2\H,0,0
 .,0.,0.\\Version=ES64L-G16RevA.03\State=2-A1G\HF=-0.5022597\S2=0.75\S2
 -1=0.\S2A=0.75\RMSD=7.739e-10\Dipole=0.,0.,0.\Quadrupole=0.,0.,0.,0.,0
 .,0.\PG=OH [O(H1)]\\@


 IF YOU'RE NOT PART OF THE SOLUTION,
 THEN YOU'RE PART OF THE PRECIPITATE.
 Job cpu time:       0 days  0 hours  0 minutes  8.4 seconds.
 Elapsed time:       0 days  0 hours  0 minutes  4.1 seconds.
 File lengths (MBytes):  RWF=      5 Int=      0 D2E=      0 Chk=      1 Scr=      1
 Normal termination of Gaussian 16 at Mon Nov 20 23:51:49 2023.
