Lithium                                                                 
SP        UB3LYP                                                      Aug-CC-pVTZ         
Number of atoms                            I                1
Info1-9                                    I   N=           9
          12          11           0           0           0         110
           1          18        -502
Full Title                                 C   N=           1
Lithium     
Route                                      C   N=           5
# B3LYP/aug-cc-pVTZ EmpiricalDispersion=GD3 Pop=Full        
Charge                                     I                0
Multiplicity                               I                2
Number of electrons                        I                3
Number of alpha electrons                  I                2
Number of beta electrons                   I                1
Number of basis functions                  I               46
Number of independent functions            I               46
Number of point charges in /Mol/           I                0
Number of translation vectors              I                0
Atomic numbers                             I   N=           1
           3
Nuclear charges                            R   N=           1
  3.00000000E+00
Current cartesian coordinates              R   N=           3
  0.00000000E+00  0.00000000E+00  0.00000000E+00
Number of symbols in /Mol/                 I                0
Force Field                                I                0
Atom Types                                 C   N=           1
            
Int Atom Types                             I   N=           1
           0
MM charges                                 R   N=           1
  0.00000000E+00
Integer atomic weights                     I   N=           1
           7
Real atomic weights                        R   N=           1
  7.01600450E+00
Atom fragment info                         I   N=           1
           0
Atom residue num                           I   N=           1
           0
Nuclear spins                              I   N=           1
           3
Nuclear ZEff                               R   N=           1
 -1.35000000E+00
Nuclear ZNuc                               R   N=           1
  3.00000000E+00
Nuclear QMom                               R   N=           1
 -4.01000000E+00
Nuclear GFac                               R   N=           1
  3.25642400E+00
MicOpt                                     I   N=           1
          -1
Number of residues                         I                0
Number of secondary structures             I                0
SymInf integers                            I   N=          26
           1           8           1           1           1           1
          -1          -1          -1           1          -1          -1
          -1           1          -1          -1          -1          -1
           1           1           1          -1           1           1
           1          -1
RotTr to input orientation                 R   N=          12
  0.00000000E+00  0.00000000E+00 -1.00000000E+00  0.00000000E+00  1.00000000E+00
  0.00000000E+00  1.00000000E+00  0.00000000E+00  0.00000000E+00  0.00000000E+00
  0.00000000E+00  0.00000000E+00
Number of contracted shells                I               14
Number of primitive shells                 I               29
Pure/Cartesian d shells                    I                0
Pure/Cartesian f shells                    I                0
Highest angular momentum                   I                3
Largest degree of contraction              I                8
Shell types                                I   N=          14
           0           0           0           0           0           1
           1           1           1          -2          -2          -2
          -3          -3
Number of primitives per shell             I   N=          14
           8           7           1           1           1           3
           1           1           1           1           1           1
           1           1
Shell to atom map                          I   N=          14
           1           1           1           1           1           1
           1           1           1           1           1           1
           1           1
Primitive exponents                        R   N=          29
  5.98800000E+03  8.98900000E+02  2.05900000E+02  5.92400000E+01  1.98700000E+01
  7.40600000E+00  2.93000000E+00  1.18900000E+00  2.05900000E+02  5.92400000E+01
  1.98700000E+01  7.40600000E+00  2.93000000E+00  1.18900000E+00  4.79800000E-01
  7.50900000E-02  2.83200000E-02  7.59492000E-03  3.26600000E+00  6.51100000E-01
  1.69600000E-01  5.57800000E-02  2.05000000E-02  9.10149000E-03  1.87400000E-01
  8.01000000E-02  3.67677600E-02  1.82900000E-01  8.07895000E-02
Contraction coefficients                   R   N=          29
  1.74666562E-04  1.34868710E-03  6.96157101E-03  2.74202469E-02  8.69879327E-02
  2.11837719E-01  3.94813885E-01  4.03461558E-01  6.65735550E-05 -3.17781944E-04
 -8.12780251E-04 -1.69376387E-02 -5.30957179E-02 -3.07984761E-01 -6.76523284E-01
  1.00000000E+00  1.00000000E+00  1.00000000E+00  3.55446886E-02  1.95796455E-01
  8.63995412E-01  1.00000000E+00  1.00000000E+00  1.00000000E+00  1.00000000E+00
  1.00000000E+00  1.00000000E+00  1.00000000E+00  1.00000000E+00
Coordinates of each shell                  R   N=          42
  0.00000000E+00  0.00000000E+00  0.00000000E+00  0.00000000E+00  0.00000000E+00
  0.00000000E+00  0.00000000E+00  0.00000000E+00  0.00000000E+00  0.00000000E+00
  0.00000000E+00  0.00000000E+00  0.00000000E+00  0.00000000E+00  0.00000000E+00
  0.00000000E+00  0.00000000E+00  0.00000000E+00  0.00000000E+00  0.00000000E+00
  0.00000000E+00  0.00000000E+00  0.00000000E+00  0.00000000E+00  0.00000000E+00
  0.00000000E+00  0.00000000E+00  0.00000000E+00  0.00000000E+00  0.00000000E+00
  0.00000000E+00  0.00000000E+00  0.00000000E+00  0.00000000E+00  0.00000000E+00
  0.00000000E+00  0.00000000E+00  0.00000000E+00  0.00000000E+00  0.00000000E+00
  0.00000000E+00  0.00000000E+00
Num ILSW                                   I              100
ILSW                                       I   N=         100
           1           0           0           0           2           0
           0           0           0           0         402          -1
           5           0           0           0           0           0
           0           0           1           0           0           0
           1           0           0           0           0           0
           0           0      100000           0          -1           0
           0           0           0           0           0           0
           0           0           0           1           0           0
           0 -2000000000           1           0           0           0
           0           0         131          52           0           0
           0           0           5           0           0           0
           0           0           0           0           0           1
           0           0           0           0           0           0
           0           0           0           0           0           0
           0           0           0           0           0           0
           0           0           0           0           0           0
           0           0           0           0
Num RLSW                                   I               52
RLSW                                       R   N=          52
  8.00000000E-01  7.20000000E-01  1.00000000E+00  8.10000000E-01  2.00000000E-01
  0.00000000E+00  0.00000000E+00  1.00000000E+00  0.00000000E+00  0.00000000E+00
  0.00000000E+00  0.00000000E+00  1.00000000E+00  0.00000000E+00  0.00000000E+00
  0.00000000E+00  0.00000000E+00  1.00000000E+00  0.00000000E+00  0.00000000E+00
  0.00000000E+00  0.00000000E+00  1.00000000E+00  0.00000000E+00  0.00000000E+00
  0.00000000E+00  0.00000000E+00  1.00000000E+00  0.00000000E+00  0.00000000E+00
  0.00000000E+00  0.00000000E+00  1.00000000E+00  0.00000000E+00  0.00000000E+00
  0.00000000E+00  0.00000000E+00  0.00000000E+00  1.00000000E+00  1.00000000E+00
  0.00000000E+00  1.00000000E+00  0.00000000E+00  0.00000000E+00  0.00000000E+00
  0.00000000E+00  0.00000000E+00  0.00000000E+00  0.00000000E+00  0.00000000E+00
  0.00000000E+00  0.00000000E+00
MxBond                                     I                1
NBond                                      I   N=           1
           0
IBond                                      I   N=           1
           0
RBond                                      R   N=           1
  0.00000000E+00
Virial Ratio                               R      2.012105685465980E+00
SCF Energy                                 R     -7.492054411542005E+00
Total Energy                               R     -7.492054411542005E+00
S**2                                       R      7.500070042079524E-01
S**2 after annihilation                    R      7.499999999999991E-01
RMS Density                                R      8.377685905667772E-09
Job Status                                 I                1
Nuclear derivative order                   I                0
External E-field                           R   N=          35
  0.00000000E+00  0.00000000E+00  0.00000000E+00  0.00000000E+00  0.00000000E+00
  0.00000000E+00  0.00000000E+00  0.00000000E+00  0.00000000E+00  0.00000000E+00
  0.00000000E+00  0.00000000E+00  0.00000000E+00  0.00000000E+00  0.00000000E+00
  0.00000000E+00  0.00000000E+00  0.00000000E+00  0.00000000E+00  0.00000000E+00
  0.00000000E+00  0.00000000E+00  0.00000000E+00  0.00000000E+00  0.00000000E+00
  0.00000000E+00  0.00000000E+00  0.00000000E+00  0.00000000E+00  0.00000000E+00
  0.00000000E+00  0.00000000E+00  0.00000000E+00  0.00000000E+00  0.00000000E+00
IOpCl                                      I                1
IROHF                                      I                0
Alpha Orbital Energies                     R   N=          46
 -2.03170449E+00 -1.34105520E-01 -3.19112153E-02 -3.19112153E-02 -3.19112153E-02
  1.21680518E-03  1.36356660E-02  1.36356660E-02  1.36356660E-02  5.91134637E-02
  5.91134637E-02  5.91134637E-02  5.91134637E-02  5.91134637E-02  7.97386531E-02
  7.97386531E-02  7.97386531E-02  9.89212045E-02  2.30697698E-01  2.30697698E-01
  2.30697698E-01  2.30697698E-01  2.30697698E-01  2.48810919E-01  2.48810919E-01
  2.48810919E-01  2.48810919E-01  2.48810919E-01  2.48810919E-01  2.48810919E-01
  3.36233280E-01  3.36233280E-01  3.36233280E-01  6.76889523E-01  6.76889523E-01
  6.76889523E-01  6.76889523E-01  6.76889523E-01  8.06282476E-01  8.06282476E-01
  8.06282476E-01  8.06282476E-01  8.06282476E-01  8.06282476E-01  8.06282476E-01
  2.30325263E+00
Beta Orbital Energies                      R   N=          46
 -2.02246186E+00 -5.46719165E-02 -3.32094636E-03 -3.32094636E-03 -3.32094636E-03
  8.59273060E-03  2.30879713E-02  2.30879713E-02  2.30879713E-02  7.46755777E-02
  7.46755777E-02  7.46755777E-02  7.46755777E-02  7.46755777E-02  9.54906004E-02
  9.54906004E-02  9.54906004E-02  1.19494160E-01  2.65034726E-01  2.65034726E-01
  2.65034726E-01  2.65034726E-01  2.65034726E-01  2.81207765E-01  2.81207765E-01
  2.81207765E-01  2.81207765E-01  2.81207765E-01  2.81207765E-01  2.81207765E-01
  3.49303939E-01  3.49303939E-01  3.49303939E-01  7.08411637E-01  7.08411637E-01
  7.08411637E-01  7.08411637E-01  7.08411637E-01  8.49454678E-01  8.49454678E-01
  8.49454678E-01  8.49454678E-01  8.49454678E-01  8.49454678E-01  8.49454678E-01
  2.31422078E+00
Alpha MO coefficients                      R   N=        2116
  7.57891895E-01 -2.79528241E-01  2.56866197E-02 -1.52253297E-02  4.01692027E-03
  0.00000000E+00  0.00000000E+00  0.00000000E+00  0.00000000E+00  0.00000000E+00
  0.00000000E+00  0.00000000E+00  0.00000000E+00  0.00000000E+00  0.00000000E+00
  0.00000000E+00  0.00000000E+00  2.98667584E-16  0.00000000E+00  0.00000000E+00
 -1.75362186E-16  0.00000000E+00 -3.95123205E-16  0.00000000E+00  0.00000000E+00
  1.90556553E-16  0.00000000E+00  2.25254465E-16  0.00000000E+00  0.00000000E+00
 -9.57410687E-17  0.00000000E+00  0.00000000E+00  0.00000000E+00  0.00000000E+00
  0.00000000E+00  0.00000000E+00  0.00000000E+00  0.00000000E+00  0.00000000E+00
  0.00000000E+00  0.00000000E+00  0.00000000E+00  0.00000000E+00  0.00000000E+00
  0.00000000E+00 -1.42006674E-01  1.58836046E-01  6.30433505E-01  4.55387707E-01
  1.85886227E-02  0.00000000E+00  0.00000000E+00  0.00000000E+00  0.00000000E+00
  0.00000000E+00  0.00000000E+00  0.00000000E+00  0.00000000E+00  0.00000000E+00
  0.00000000E+00  0.00000000E+00  0.00000000E+00  4.64681093E-16  0.00000000E+00
  0.00000000E+00  4.66447497E-16  0.00000000E+00 -1.18965816E-15  0.00000000E+00
  0.00000000E+00 -1.08386186E-15  0.00000000E+00  8.62604024E-16  0.00000000E+00
  0.00000000E+00  7.26607486E-16  0.00000000E+00  0.00000000E+00  0.00000000E+00
  0.00000000E+00  0.00000000E+00  0.00000000E+00  0.00000000E+00  0.00000000E+00
  0.00000000E+00  0.00000000E+00  0.00000000E+00  0.00000000E+00  0.00000000E+00
  0.00000000E+00  0.00000000E+00  0.00000000E+00  0.00000000E+00  0.00000000E+00
  0.00000000E+00  0.00000000E+00  0.00000000E+00  0.00000000E+00  2.38970457E-01
  0.00000000E+00  0.00000000E+00  4.65322799E-01  0.00000000E+00  0.00000000E+00
  3.66233606E-01  0.00000000E+00  0.00000000E+00  1.28813966E-01  0.00000000E+00
  0.00000000E+00  0.00000000E+00  0.00000000E+00  0.00000000E+00  0.00000000E+00
  0.00000000E+00  0.00000000E+00  0.00000000E+00  0.00000000E+00  0.00000000E+00
  0.00000000E+00  0.00000000E+00  0.00000000E+00  0.00000000E+00 -2.66472444E-12
  0.00000000E+00  0.00000000E+00  9.37399171E-17  0.00000000E+00  0.00000000E+00
  0.00000000E+00 -2.02927455E-11  0.00000000E+00  0.00000000E+00  1.13982668E-16
  0.00000000E+00  0.00000000E+00  0.00000000E+00  0.00000000E+00  0.00000000E+00
  0.00000000E+00  0.00000000E+00  0.00000000E+00  2.38970457E-01  0.00000000E+00
  0.00000000E+00  4.65322799E-01  0.00000000E+00  0.00000000E+00  3.66233606E-01
  0.00000000E+00  0.00000000E+00  1.28813966E-01  0.00000000E+00  0.00000000E+00
  0.00000000E+00  0.00000000E+00  0.00000000E+00  0.00000000E+00  0.00000000E+00
  0.00000000E+00  0.00000000E+00  0.00000000E+00  0.00000000E+00  0.00000000E+00
  0.00000000E+00  0.00000000E+00  0.00000000E+00  0.00000000E+00  0.00000000E+00
  0.00000000E+00  1.63132201E-12  0.00000000E+00  0.00000000E+00  0.00000000E+00
 -2.10629401E-12  0.00000000E+00  0.00000000E+00  1.24275075E-11  0.00000000E+00
  0.00000000E+00  0.00000000E+00 -1.60434789E-11  0.00000000E+00  0.00000000E+00
  0.00000000E+00  0.00000000E+00  0.00000000E+00  0.00000000E+00  0.00000000E+00
  2.38970457E-01  0.00000000E+00  0.00000000E+00  4.65322799E-01  0.00000000E+00
  0.00000000E+00  3.66233606E-01  0.00000000E+00  0.00000000E+00  1.28813966E-01
  0.00000000E+00  0.00000000E+00  0.00000000E+00  0.00000000E+00  0.00000000E+00
  0.00000000E+00  0.00000000E+00  0.00000000E+00  0.00000000E+00  0.00000000E+00
  0.00000000E+00  0.00000000E+00  0.00000000E+00  0.00000000E+00  0.00000000E+00
  0.00000000E+00  0.00000000E+00  0.00000000E+00  1.63186926E-12  0.00000000E+00
  0.00000000E+00  0.00000000E+00  2.10601508E-12  0.00000000E+00  0.00000000E+00
  1.24261016E-11  0.00000000E+00  0.00000000E+00  0.00000000E+00  1.60447378E-11
  4.84817959E-02 -5.27220691E-02 -2.12161846E-01 -6.93431900E-01  1.38259200E+00
  0.00000000E+00  0.00000000E+00  0.00000000E+00  0.00000000E+00  0.00000000E+00
  0.00000000E+00  0.00000000E+00  0.00000000E+00  0.00000000E+00  0.00000000E+00
  0.00000000E+00  0.00000000E+00 -6.48078261E-16  0.00000000E+00  0.00000000E+00
 -3.18284771E-16  0.00000000E+00  3.48384315E-15  0.00000000E+00  0.00000000E+00
 -1.52018013E-15  0.00000000E+00 -4.28034536E-15  0.00000000E+00  0.00000000E+00
  4.27157750E-16  0.00000000E+00  0.00000000E+00  0.00000000E+00  0.00000000E+00
  0.00000000E+00  0.00000000E+00  0.00000000E+00  0.00000000E+00  0.00000000E+00
  0.00000000E+00  0.00000000E+00  0.00000000E+00  0.00000000E+00  0.00000000E+00
  0.00000000E+00  0.00000000E+00  0.00000000E+00  0.00000000E+00  0.00000000E+00
  0.00000000E+00  0.00000000E+00  0.00000000E+00 -1.51206535E-01  0.00000000E+00
  0.00000000E+00 -1.45173452E-01  0.00000000E+00  0.00000000E+00 -8.30411303E-01
  0.00000000E+00  0.00000000E+00  1.50451022E+00  0.00000000E+00  0.00000000E+00
  0.00000000E+00  0.00000000E+00  0.00000000E+00  0.00000000E+00  0.00000000E+00
  0.00000000E+00  0.00000000E+00  0.00000000E+00  0.00000000E+00  0.00000000E+00
  0.00000000E+00  0.00000000E+00  0.00000000E+00  2.51093235E-12  0.00000000E+00
  0.00000000E+00 -2.41718421E-16  0.00000000E+00  0.00000000E+00  0.00000000E+00
  5.91831169E-12  0.00000000E+00  0.00000000E+00  8.09334086E-16  0.00000000E+00
  0.00000000E+00  0.00000000E+00  0.00000000E+00  0.00000000E+00  0.00000000E+00
  0.00000000E+00  0.00000000E+00 -1.51206535E-01  0.00000000E+00  0.00000000E+00
 -1.45173452E-01  0.00000000E+00  0.00000000E+00 -8.30411303E-01  0.00000000E+00
  0.00000000E+00  1.50451022E+00  0.00000000E+00  0.00000000E+00  0.00000000E+00
  0.00000000E+00  0.00000000E+00  0.00000000E+00  0.00000000E+00  0.00000000E+00
  0.00000000E+00  0.00000000E+00  0.00000000E+00  0.00000000E+00  0.00000000E+00
  0.00000000E+00  0.00000000E+00  0.00000000E+00  0.00000000E+00  0.00000000E+00
 -1.53729062E-12  0.00000000E+00  0.00000000E+00  0.00000000E+00  1.98496157E-12
  0.00000000E+00  0.00000000E+00 -3.62443053E-12  0.00000000E+00  0.00000000E+00
  0.00000000E+00  4.67915148E-12  0.00000000E+00  0.00000000E+00  0.00000000E+00
  0.00000000E+00  0.00000000E+00  0.00000000E+00  0.00000000E+00 -1.51206535E-01
  0.00000000E+00  0.00000000E+00 -1.45173452E-01  0.00000000E+00  0.00000000E+00
 -8.30411303E-01  0.00000000E+00  0.00000000E+00  1.50451022E+00  0.00000000E+00
  0.00000000E+00  0.00000000E+00  0.00000000E+00  0.00000000E+00  0.00000000E+00
  0.00000000E+00  0.00000000E+00  0.00000000E+00  0.00000000E+00  0.00000000E+00
  0.00000000E+00  0.00000000E+00  0.00000000E+00  0.00000000E+00  0.00000000E+00
  0.00000000E+00  0.00000000E+00 -1.53737412E-12  0.00000000E+00  0.00000000E+00
  0.00000000E+00 -1.98507183E-12  0.00000000E+00  0.00000000E+00 -3.62445533E-12
  0.00000000E+00  0.00000000E+00  0.00000000E+00 -4.67900665E-12  0.00000000E+00
  0.00000000E+00  0.00000000E+00  0.00000000E+00  0.00000000E+00  0.00000000E+00
  0.00000000E+00  0.00000000E+00  0.00000000E+00  0.00000000E+00  0.00000000E+00
  0.00000000E+00  0.00000000E+00  0.00000000E+00  0.00000000E+00  0.00000000E+00
  0.00000000E+00  0.00000000E+00  1.03878081E-01  0.00000000E+00  0.00000000E+00
  0.00000000E+00  0.00000000E+00 -2.65118357E-01  0.00000000E+00  0.00000000E+00
  0.00000000E+00  0.00000000E+00  1.16222442E+00  0.00000000E+00  0.00000000E+00
  0.00000000E+00  0.00000000E+00  0.00000000E+00  0.00000000E+00  0.00000000E+00
  0.00000000E+00  0.00000000E+00  0.00000000E+00  0.00000000E+00  0.00000000E+00
  0.00000000E+00  0.00000000E+00  0.00000000E+00  0.00000000E+00  0.00000000E+00
  0.00000000E+00  0.00000000E+00  0.00000000E+00  0.00000000E+00  0.00000000E+00
  0.00000000E+00  0.00000000E+00  0.00000000E+00  0.00000000E+00  0.00000000E+00
  0.00000000E+00  0.00000000E+00  0.00000000E+00  0.00000000E+00  0.00000000E+00
  0.00000000E+00  0.00000000E+00  0.00000000E+00  0.00000000E+00  1.03878081E-01
  0.00000000E+00  0.00000000E+00  0.00000000E+00  0.00000000E+00 -2.65118357E-01
  0.00000000E+00  0.00000000E+00  0.00000000E+00  0.00000000E+00  1.16222442E+00
  0.00000000E+00  0.00000000E+00  0.00000000E+00  0.00000000E+00  0.00000000E+00
  0.00000000E+00  0.00000000E+00  0.00000000E+00  0.00000000E+00  0.00000000E+00
  0.00000000E+00  0.00000000E+00  0.00000000E+00  0.00000000E+00  0.00000000E+00
  0.00000000E+00  0.00000000E+00  0.00000000E+00  0.00000000E+00  0.00000000E+00
  0.00000000E+00  0.00000000E+00  0.00000000E+00  0.00000000E+00  0.00000000E+00
  0.00000000E+00  0.00000000E+00  0.00000000E+00  0.00000000E+00  0.00000000E+00
  0.00000000E+00  0.00000000E+00  0.00000000E+00  0.00000000E+00  0.00000000E+00
  0.00000000E+00  0.00000000E+00  1.03878081E-01  0.00000000E+00  0.00000000E+00
  0.00000000E+00  0.00000000E+00 -2.65118357E-01  0.00000000E+00  0.00000000E+00
  0.00000000E+00  0.00000000E+00  1.16222442E+00  0.00000000E+00  0.00000000E+00
  0.00000000E+00  0.00000000E+00  0.00000000E+00  0.00000000E+00  0.00000000E+00
  0.00000000E+00  0.00000000E+00  0.00000000E+00  0.00000000E+00  0.00000000E+00
  0.00000000E+00  0.00000000E+00  4.00257030E-16 -6.58085761E-16 -5.83415387E-15
  5.39395708E-15 -1.67401868E-16  0.00000000E+00  0.00000000E+00  0.00000000E+00
  0.00000000E+00  0.00000000E+00  0.00000000E+00  0.00000000E+00  0.00000000E+00
  0.00000000E+00  0.00000000E+00  0.00000000E+00  0.00000000E+00  5.07400324E-02
  0.00000000E+00  0.00000000E+00  9.06427314E-02  0.00000000E+00 -1.29499062E-01
  0.00000000E+00  0.00000000E+00 -2.31339007E-01  0.00000000E+00  5.67697290E-01
  0.00000000E+00  0.00000000E+00  1.01414269E+00  0.00000000E+00  0.00000000E+00
  0.00000000E+00  0.00000000E+00  0.00000000E+00  0.00000000E+00  0.00000000E+00
  0.00000000E+00  0.00000000E+00  0.00000000E+00  0.00000000E+00  0.00000000E+00
  0.00000000E+00  0.00000000E+00  0.00000000E+00  2.89430760E-16 -4.80742430E-16
 -4.14097702E-15  3.60493609E-15  2.12017493E-16 -0.00000000E+00 -0.00000000E+00
 -0.00000000E+00 -0.00000000E+00 -0.00000000E+00 -0.00000000E+00 -0.00000000E+00
 -0.00000000E+00 -0.00000000E+00 -0.00000000E+00 -0.00000000E+00 -0.00000000E+00
  9.06427314E-02 -0.00000000E+00 -0.00000000E+00 -5.07400324E-02 -0.00000000E+00
 -2.31339007E-01 -0.00000000E+00 -0.00000000E+00  1.29499062E-01 -0.00000000E+00
  1.01414269E+00 -0.00000000E+00 -0.00000000E+00 -5.67697290E-01 -0.00000000E+00
 -0.00000000E+00 -0.00000000E+00 -0.00000000E+00 -0.00000000E+00 -0.00000000E+00
 -0.00000000E+00 -0.00000000E+00 -0.00000000E+00 -0.00000000E+00 -0.00000000E+00
 -0.00000000E+00 -0.00000000E+00 -0.00000000E+00 -0.00000000E+00  0.00000000E+00
  0.00000000E+00  0.00000000E+00  0.00000000E+00  0.00000000E+00  0.00000000E+00
  0.00000000E+00 -2.25850500E-01  0.00000000E+00  0.00000000E+00 -1.24848020E+00
  0.00000000E+00  0.00000000E+00  2.47846264E+00  0.00000000E+00  0.00000000E+00
 -1.34177317E+00  0.00000000E+00  0.00000000E+00  0.00000000E+00  0.00000000E+00
  0.00000000E+00  0.00000000E+00  0.00000000E+00  0.00000000E+00  0.00000000E+00
  0.00000000E+00  0.00000000E+00  0.00000000E+00  0.00000000E+00  0.00000000E+00
  0.00000000E+00  8.71326247E-12  0.00000000E+00  0.00000000E+00  6.92483116E-16
  0.00000000E+00  0.00000000E+00  0.00000000E+00 -2.88786740E-12  0.00000000E+00
  0.00000000E+00 -2.41657917E-15  0.00000000E+00  0.00000000E+00  0.00000000E+00
  0.00000000E+00  0.00000000E+00  0.00000000E+00  0.00000000E+00  0.00000000E+00
  0.00000000E+00 -2.25850500E-01  0.00000000E+00  0.00000000E+00 -1.24848020E+00
  0.00000000E+00  0.00000000E+00  2.47846264E+00  0.00000000E+00  0.00000000E+00
 -1.34177317E+00  0.00000000E+00  0.00000000E+00  0.00000000E+00  0.00000000E+00
  0.00000000E+00  0.00000000E+00  0.00000000E+00  0.00000000E+00  0.00000000E+00
  0.00000000E+00  0.00000000E+00  0.00000000E+00  0.00000000E+00  0.00000000E+00
  0.00000000E+00  0.00000000E+00  0.00000000E+00  0.00000000E+00 -5.33389240E-12
  0.00000000E+00  0.00000000E+00  0.00000000E+00 -6.88563683E-12  0.00000000E+00
  0.00000000E+00  1.76274494E-12  0.00000000E+00  0.00000000E+00  0.00000000E+00
  2.27551228E-12  0.00000000E+00  0.00000000E+00  0.00000000E+00  0.00000000E+00
  0.00000000E+00 -2.25850500E-01  0.00000000E+00  0.00000000E+00 -1.24848020E+00
  0.00000000E+00  0.00000000E+00  2.47846264E+00  0.00000000E+00  0.00000000E+00
 -1.34177317E+00  0.00000000E+00  0.00000000E+00  0.00000000E+00  0.00000000E+00
  0.00000000E+00  0.00000000E+00  0.00000000E+00  0.00000000E+00  0.00000000E+00
  0.00000000E+00  0.00000000E+00  0.00000000E+00  0.00000000E+00  0.00000000E+00
  0.00000000E+00  0.00000000E+00  0.00000000E+00  0.00000000E+00 -5.33388066E-12
  0.00000000E+00  0.00000000E+00  0.00000000E+00  6.88663555E-12  0.00000000E+00
  0.00000000E+00  1.76355288E-12  0.00000000E+00  0.00000000E+00  0.00000000E+00
 -2.27907635E-12  0.00000000E+00  1.24742230E-01 -2.22171230E-01 -2.27663435E+00
  2.84756657E+00 -1.03901026E+00  0.00000000E+00  0.00000000E+00  0.00000000E+00
  0.00000000E+00  0.00000000E+00  0.00000000E+00  0.00000000E+00  0.00000000E+00
  0.00000000E+00  0.00000000E+00  0.00000000E+00  0.00000000E+00 -2.57804535E-15
  0.00000000E+00  0.00000000E+00 -2.88738841E-15  0.00000000E+00  6.59886842E-15
  0.00000000E+00  0.00000000E+00  1.85878323E-15  0.00000000E+00 -5.99951986E-15
  0.00000000E+00  0.00000000E+00 -1.66394108E-15  0.00000000E+00  0.00000000E+00
  0.00000000E+00  0.00000000E+00  0.00000000E+00  0.00000000E+00  0.00000000E+00
  0.00000000E+00  0.00000000E+00  0.00000000E+00  0.00000000E+00  0.00000000E+00
  0.00000000E+00  0.00000000E+00  0.00000000E+00  0.00000000E+00  0.00000000E+00
  0.00000000E+00  0.00000000E+00  0.00000000E+00  0.00000000E+00  0.00000000E+00
  0.00000000E+00  0.00000000E+00  0.00000000E+00  0.00000000E+00  0.00000000E+00
  0.00000000E+00  0.00000000E+00  0.00000000E+00  0.00000000E+00  0.00000000E+00
  0.00000000E+00 -1.61619039E-01  0.00000000E+00  0.00000000E+00  0.00000000E+00
  0.00000000E+00  1.74486864E+00  0.00000000E+00  0.00000000E+00  0.00000000E+00
  0.00000000E+00 -1.19261577E+00  0.00000000E+00  0.00000000E+00  0.00000000E+00
  0.00000000E+00  0.00000000E+00  0.00000000E+00  0.00000000E+00  0.00000000E+00
  0.00000000E+00  0.00000000E+00  0.00000000E+00  0.00000000E+00  0.00000000E+00
  0.00000000E+00  0.00000000E+00  0.00000000E+00  0.00000000E+00  0.00000000E+00
  0.00000000E+00  0.00000000E+00  0.00000000E+00  0.00000000E+00  0.00000000E+00
  0.00000000E+00  0.00000000E+00  0.00000000E+00  0.00000000E+00  0.00000000E+00
  0.00000000E+00  0.00000000E+00  0.00000000E+00  0.00000000E+00  0.00000000E+00
  0.00000000E+00  0.00000000E+00  0.00000000E+00 -1.61619039E-01  0.00000000E+00
  0.00000000E+00  0.00000000E+00  0.00000000E+00  1.74486864E+00  0.00000000E+00
  0.00000000E+00  0.00000000E+00  0.00000000E+00 -1.19261577E+00  0.00000000E+00
  0.00000000E+00  0.00000000E+00  0.00000000E+00  0.00000000E+00  0.00000000E+00
  0.00000000E+00  0.00000000E+00  0.00000000E+00  0.00000000E+00  0.00000000E+00
  0.00000000E+00  0.00000000E+00  0.00000000E+00  0.00000000E+00  0.00000000E+00
  0.00000000E+00  0.00000000E+00  0.00000000E+00  0.00000000E+00  0.00000000E+00
  0.00000000E+00  0.00000000E+00  0.00000000E+00  0.00000000E+00  0.00000000E+00
  0.00000000E+00  0.00000000E+00  0.00000000E+00  0.00000000E+00  0.00000000E+00
  0.00000000E+00  0.00000000E+00  0.00000000E+00  0.00000000E+00  0.00000000E+00
  0.00000000E+00 -1.61619039E-01  0.00000000E+00  0.00000000E+00  0.00000000E+00
  0.00000000E+00  1.74486864E+00  0.00000000E+00  0.00000000E+00  0.00000000E+00
  0.00000000E+00 -1.19261577E+00  0.00000000E+00  0.00000000E+00  0.00000000E+00
  0.00000000E+00  0.00000000E+00  0.00000000E+00  0.00000000E+00  0.00000000E+00
  0.00000000E+00  0.00000000E+00  0.00000000E+00  0.00000000E+00  0.00000000E+00
  0.00000000E+00 -6.43304812E-16  6.00705637E-16  6.74836921E-15 -5.96450947E-15
 -1.30480718E-16  0.00000000E+00  0.00000000E+00  0.00000000E+00  0.00000000E+00
  0.00000000E+00  0.00000000E+00  0.00000000E+00  0.00000000E+00  0.00000000E+00
  0.00000000E+00  0.00000000E+00  0.00000000E+00 -1.59083115E-01  0.00000000E+00
  0.00000000E+00 -2.85179993E-02  0.00000000E+00  1.71749034E+00  0.00000000E+00
  0.00000000E+00  3.07885524E-01  0.00000000E+00 -1.17390273E+00  0.00000000E+00
  0.00000000E+00 -2.10439412E-01  0.00000000E+00  0.00000000E+00  0.00000000E+00
  0.00000000E+00  0.00000000E+00  0.00000000E+00  0.00000000E+00  0.00000000E+00
  0.00000000E+00  0.00000000E+00  0.00000000E+00  0.00000000E+00  0.00000000E+00
  0.00000000E+00  0.00000000E+00  2.26118925E-16 -2.07972152E-16 -2.08080478E-15
  8.02364409E-16  1.87658573E-15  0.00000000E+00  0.00000000E+00  0.00000000E+00
  0.00000000E+00  0.00000000E+00  0.00000000E+00  0.00000000E+00  0.00000000E+00
  0.00000000E+00  0.00000000E+00  0.00000000E+00  0.00000000E+00  2.85179993E-02
  0.00000000E+00  0.00000000E+00 -1.59083115E-01  0.00000000E+00 -3.07885524E-01
  0.00000000E+00  0.00000000E+00  1.71749034E+00  0.00000000E+00  2.10439412E-01
  0.00000000E+00  0.00000000E+00 -1.17390273E+00  0.00000000E+00  0.00000000E+00
  0.00000000E+00  0.00000000E+00  0.00000000E+00  0.00000000E+00  0.00000000E+00
  0.00000000E+00  0.00000000E+00  0.00000000E+00  0.00000000E+00  0.00000000E+00
  0.00000000E+00  0.00000000E+00  0.00000000E+00  0.00000000E+00  0.00000000E+00
  0.00000000E+00  0.00000000E+00  0.00000000E+00 -1.12828819E-14  0.00000000E+00
  0.00000000E+00  1.40930474E-14  0.00000000E+00  0.00000000E+00 -8.97305841E-15
  0.00000000E+00  0.00000000E+00  2.29859614E-15  0.00000000E+00  0.00000000E+00
  0.00000000E+00  0.00000000E+00  0.00000000E+00  0.00000000E+00  0.00000000E+00
  0.00000000E+00  0.00000000E+00  0.00000000E+00  0.00000000E+00  0.00000000E+00
  0.00000000E+00  0.00000000E+00  0.00000000E+00  0.00000000E+00  0.00000000E+00
  0.00000000E+00 -1.65890842E-01  0.00000000E+00  0.00000000E+00  0.00000000E+00
 -1.28496744E-01  0.00000000E+00  0.00000000E+00  8.96593206E-01  0.00000000E+00
  0.00000000E+00  0.00000000E+00  6.94488657E-01  0.00000000E+00  0.00000000E+00
  0.00000000E+00  0.00000000E+00  0.00000000E+00  0.00000000E+00  0.00000000E+00
  6.06671490E-15  0.00000000E+00  0.00000000E+00 -7.36477483E-15  0.00000000E+00
  0.00000000E+00  8.69217296E-15  0.00000000E+00  0.00000000E+00 -3.40255917E-15
  0.00000000E+00  0.00000000E+00  0.00000000E+00  0.00000000E+00  0.00000000E+00