 Entering Gaussian System, Link 0=g16
 Input=Li.com
 Output=Li.log
 Initial command:
 /usr/site/hpc/x86_64/glibc-2.17/broadwell/gaussian/g16_a.03/pgi-16.5/g16/l1.exe "/home/c744/c7441090/data/Gau-3858554.inp" -scrdir="/home/c744/c7441090/data/"
 Entering Link 1 = /usr/site/hpc/x86_64/glibc-2.17/broadwell/gaussian/g16_a.03/pgi-16.5/g16/l1.exe PID=   3858555.
  
 Copyright (c) 1988,1990,1992,1993,1995,1998,2003,2009,2016,
            Gaussian, Inc.  All Rights Reserved.
  
 This is part of the Gaussian(R) 16 program.  It is based on
 the Gaussian(R) 09 system (copyright 2009, Gaussian, Inc.),
 the Gaussian(R) 03 system (copyright 2003, Gaussian, Inc.),
 the Gaussian(R) 98 system (copyright 1998, Gaussian, Inc.),
 the Gaussian(R) 94 system (copyright 1995, Gaussian, Inc.),
 the Gaussian 92(TM) system (copyright 1992, Gaussian, Inc.),
 the Gaussian 90(TM) system (copyright 1990, Gaussian, Inc.),
 the Gaussian 88(TM) system (copyright 1988, Gaussian, Inc.),
 the Gaussian 86(TM) system (copyright 1986, Carnegie Mellon
 University), and the Gaussian 82(TM) system (copyright 1983,
 Carnegie Mellon University). Gaussian is a federally registered
 trademark of Gaussian, Inc.
  
 This software contains proprietary and confidential information,
 including trade secrets, belonging to Gaussian, Inc.
  
 This software is provided under written license and may be
 used, copied, transmitted, or stored only in accord with that
 written license.
  
 The following legend is applicable only to US Government
 contracts under FAR:
  
                    RESTRICTED RIGHTS LEGEND
  
 Use, reproduction and disclosure by the US Government is
 subject to restrictions as set forth in subparagraphs (a)
 and (c) of the Commercial Computer Software - Restricted
 Rights clause in FAR 52.227-19.
  
 Gaussian, Inc.
 340 Quinnipiac St., Bldg. 40, Wallingford CT 06492
  
  
 ---------------------------------------------------------------
 Warning -- This program may not be used in any manner that
 competes with the business of Gaussian, Inc. or will provide
 assistance to any competitor of Gaussian, Inc.  The licensee
 of this program is prohibited from giving any competitor of
 Gaussian, Inc. access to this program.  By using this program,
 the user acknowledges that Gaussian, Inc. is engaged in the
 business of creating and licensing software in the field of
 computational chemistry and represents and warrants to the
 licensee that it is not a competitor of Gaussian, Inc. and that
 it will not use this program in any manner prohibited above.
 ---------------------------------------------------------------
  

 Cite this work as:
 Gaussian 16, Revision A.03,
 M. J. Frisch, G. W. Trucks, H. B. Schlegel, G. E. Scuseria, 
 M. A. Robb, J. R. Cheeseman, G. Scalmani, V. Barone, 
 G. A. Petersson, H. Nakatsuji, X. Li, M. Caricato, A. V. Marenich, 
 J. Bloino, B. G. Janesko, R. Gomperts, B. Mennucci, H. P. Hratchian, 
 J. V. Ortiz, A. F. Izmaylov, J. L. Sonnenberg, D. Williams-Young, 
 F. Ding, F. Lipparini, F. Egidi, J. Goings, B. Peng, A. Petrone, 
 T. Henderson, D. Ranasinghe, V. G. Zakrzewski, J. Gao, N. Rega, 
 G. Zheng, W. Liang, M. Hada, M. Ehara, K. Toyota, R. Fukuda, 
 J. Hasegawa, M. Ishida, T. Nakajima, Y. Honda, O. Kitao, H. Nakai, 
 T. Vreven, K. Throssell, J. A. Montgomery, Jr., J. E. Peralta, 
 F. Ogliaro, M. J. Bearpark, J. J. Heyd, E. N. Brothers, K. N. Kudin, 
 V. N. Staroverov, T. A. Keith, R. Kobayashi, J. Normand, 
 K. Raghavachari, A. P. Rendell, J. C. Burant, S. S. Iyengar, 
 J. Tomasi, M. Cossi, J. M. Millam, M. Klene, C. Adamo, R. Cammi, 
 J. W. Ochterski, R. L. Martin, K. Morokuma, O. Farkas, 
 J. B. Foresman, and D. J. Fox, Gaussian, Inc., Wallingford CT, 2016.
 
 ******************************************
 Gaussian 16:  ES64L-G16RevA.03 25-Dec-2016
                20-Nov-2023 
 ******************************************
 %NProcShared=4
 Will use up to    4 processors via shared memory.
 %Mem=1GB
 %Chk=Li.chk
 ----------------------------------------------------
 # B3LYP/aug-cc-pVTZ EmpiricalDispersion=GD3 Pop=Full
 ----------------------------------------------------
 1/38=1,172=1/1;
 2/12=2,17=6,18=5,40=1/2;
 3/5=16,6=1,7=10,11=2,25=1,30=1,74=-5,124=31/1,2,3;
 4//1;
 5/5=2,38=5/2;
 6/7=3,28=1/1;
 99/5=1,9=1/99;
 -------
 Lithium
 -------
 Symbolic Z-matrix:
 Charge =  0 Multiplicity = 2
 Li                    0.        0.        0. 
 
                          Input orientation:                          
 ---------------------------------------------------------------------
 Center     Atomic      Atomic             Coordinates (Angstroms)
 Number     Number       Type             X           Y           Z
 ---------------------------------------------------------------------
      1          3           0        0.000000    0.000000    0.000000
 ---------------------------------------------------------------------
 Stoichiometry    Li(2)
 Framework group  OH[O(Li)]
 Deg. of freedom     0
 Full point group                 OH      NOp  48
 Largest Abelian subgroup         D2H     NOp   8
 Largest concise Abelian subgroup C1      NOp   1
                         Standard orientation:                         
 ---------------------------------------------------------------------
 Center     Atomic      Atomic             Coordinates (Angstroms)
 Number     Number       Type             X           Y           Z
 ---------------------------------------------------------------------
      1          3           0        0.000000    0.000000    0.000000
 ---------------------------------------------------------------------
 Standard basis: Aug-CC-pVTZ (5D, 7F)
 There are    14 symmetry adapted cartesian basis functions of AG  symmetry.
 There are     3 symmetry adapted cartesian basis functions of B1G symmetry.
 There are     3 symmetry adapted cartesian basis functions of B2G symmetry.
 There are     3 symmetry adapted cartesian basis functions of B3G symmetry.
 There are     2 symmetry adapted cartesian basis functions of AU  symmetry.
 There are    10 symmetry adapted cartesian basis functions of B1U symmetry.
 There are    10 symmetry adapted cartesian basis functions of B2U symmetry.
 There are    10 symmetry adapted cartesian basis functions of B3U symmetry.
 There are    11 symmetry adapted basis functions of AG  symmetry.
 There are     3 symmetry adapted basis functions of B1G symmetry.
 There are     3 symmetry adapted basis functions of B2G symmetry.
 There are     3 symmetry adapted basis functions of B3G symmetry.
 There are     2 symmetry adapted basis functions of AU  symmetry.
 There are     8 symmetry adapted basis functions of B1U symmetry.
 There are     8 symmetry adapted basis functions of B2U symmetry.
 There are     8 symmetry adapted basis functions of B3U symmetry.
    46 basis functions,    74 primitive gaussians,    55 cartesian basis functions
     2 alpha electrons        1 beta electrons
       nuclear repulsion energy         0.0000000000 Hartrees.
 NAtoms=    1 NActive=    1 NUniq=    1 SFac= 1.00D+00 NAtFMM=   60 NAOKFM=F Big=F
 Integral buffers will be    131072 words long.
 Raffenetti 2 integral format.
 Two-electron integral symmetry is turned on.
 Nuclear repulsion after empirical dispersion term =        0.0000000000 Hartrees.
 One-electron integrals computed using PRISM.
 NBasis=    46 RedAO= T EigKep=  5.38D-02  NBF=    11     3     3     3     2     8     8     8
 NBsUse=    46 1.00D-06 EigRej= -1.00D+00 NBFU=    11     3     3     3     2     8     8     8
 ExpMin= 7.59D-03 ExpMax= 5.99D+03 ExpMxC= 5.92D+01 IAcc=3 IRadAn=         5 AccDes= 0.00D+00
 Harris functional with IExCor=  402 and IRadAn=       5 diagonalized for initial guess.
 HarFok:  IExCor=  402 AccDes= 0.00D+00 IRadAn=         5 IDoV= 1 UseB2=F ITyADJ=14
 ICtDFT=  3500011 ScaDFX=  1.000000  1.000000  1.000000  1.000000
 FoFCou: FMM=F IPFlag=           0 FMFlag=      100000 FMFlg1=           0
         NFxFlg=           0 DoJE=T BraDBF=F KetDBF=T FulRan=T
         wScrn=  0.000000 ICntrl=       500 IOpCl=  0 I1Cent=   200000004 NGrid=           0
         NMat0=    1 NMatS0=      1 NMatT0=    0 NMatD0=    1 NMtDS0=    0 NMtDT0=    0
 Petite list used in FoFCou.
 Initial guess orbital symmetries:
 Alpha Orbitals:
       Occupied  (A1G) (A1G)
       Virtual   (T1U) (T1U) (T1U) (A1G) (T1U) (T1U) (T1U) (T2G)
                 (T2G) (T2G) (EG) (EG) (T1U) (T1U) (T1U) (A1G)
                 (T2G) (T2G) (T2G) (EG) (EG) (T2U) (T2U) (T2U)
                 (A2U) (T1U) (T1U) (T1U) (T1U) (T1U) (T1U) (T2G)
                 (T2G) (T2G) (EG) (EG) (T2U) (T2U) (T2U) (A2U)
                 (T1U) (T1U) (T1U) (A1G)
 Beta  Orbitals:
       Occupied  (A1G)
       Virtual   (A1G) (T1U) (T1U) (T1U) (A1G) (T1U) (T1U) (T1U)
                 (T2G) (T2G) (T2G) (EG) (EG) (T1U) (T1U) (T1U)
                 (A1G) (T2G) (T2G) (T2G) (EG) (EG) (T2U) (T2U)
                 (T2U) (A2U) (T1U) (T1U) (T1U) (T1U) (T1U) (T1U)
                 (T2G) (T2G) (T2G) (EG) (EG) (T2U) (T2U) (T2U)
                 (A2U) (T1U) (T1U) (T1U) (A1G)
 The electronic state of the initial guess is 2-A1G.
 Initial guess <Sx>= 0.0000 <Sy>= 0.0000 <Sz>= 0.5000 <S**2>= 0.7500 S= 0.5000
 Keep R1 and R2 ints in memory in symmetry-blocked form, NReq=4095399.
 Requested convergence on RMS density matrix=1.00D-08 within 128 cycles.
 Requested convergence on MAX density matrix=1.00D-06.
 Requested convergence on             energy=1.00D-06.
 No special actions if energy rises.
 SCF Done:  E(UB3LYP) =  -7.49205441154     A.U. after    6 cycles
            NFock=  6  Conv=0.84D-08     -V/T= 2.0121
 <Sx>= 0.0000 <Sy>= 0.0000 <Sz>= 0.5000 <S**2>= 0.7500 S= 0.5000
 <L.S>= 0.000000000000E+00
 Annihilation of the first spin contaminant:
 S**2 before annihilation     0.7500,   after     0.7500

 **********************************************************************

            Population analysis using the SCF density.

 **********************************************************************

 Orbital symmetries:
 Alpha Orbitals:
       Occupied  (A1G) (A1G)
       Virtual   (T1U) (T1U) (T1U) (A1G) (T1U) (T1U) (T1U) (T2G)
                 (T2G) (T2G) (EG) (EG) (T1U) (T1U) (T1U) (A1G)
                 (T2G) (T2G) (T2G) (EG) (EG) (T2U) (T2U) (T2U)
                 (A2U) (T1U) (T1U) (T1U) (T1U) (T1U) (T1U) (T2G)
                 (T2G) (T2G) (EG) (EG) (T2U) (T2U) (T2U) (A2U)
                 (T1U) (T1U) (T1U) (A1G)
 Beta  Orbitals:
       Occupied  (A1G)
       Virtual   (A1G) (T1U) (T1U) (T1U) (A1G) (T1U) (T1U) (T1U)
                 (T2G) (T2G) (T2G) (EG) (EG) (T1U) (T1U) (T1U)
                 (A1G) (T2G) (T2G) (T2G) (EG) (EG) (T2U) (T2U)
                 (T2U) (A2U) (T1U) (T1U) (T1U) (T1U) (T1U) (T1U)
                 (T2G) (T2G) (T2G) (EG) (EG) (T2U) (T2U) (T2U)
                 (A2U) (T1U) (T1U) (T1U) (A1G)
 The electronic state is 2-A1G.
 Alpha  occ. eigenvalues --   -2.03170  -0.13411
 Alpha virt. eigenvalues --   -0.03191  -0.03191  -0.03191   0.00122   0.01364
 Alpha virt. eigenvalues --    0.01364   0.01364   0.05911   0.05911   0.05911
 Alpha virt. eigenvalues --    0.05911   0.05911   0.07974   0.07974   0.07974
 Alpha virt. eigenvalues --    0.09892   0.23070   0.23070   0.23070   0.23070
 Alpha virt. eigenvalues --    0.23070   0.24881   0.24881   0.24881   0.24881
 Alpha virt. eigenvalues --    0.24881   0.24881   0.24881   0.33623   0.33623
 Alpha virt. eigenvalues --    0.33623   0.67689   0.67689   0.67689   0.67689
 Alpha virt. eigenvalues --    0.67689   0.80628   0.80628   0.80628   0.80628
 Alpha virt. eigenvalues --    0.80628   0.80628   0.80628   2.30325
  Beta  occ. eigenvalues --   -2.02246
  Beta virt. eigenvalues --   -0.05467  -0.00332  -0.00332  -0.00332   0.00859
  Beta virt. eigenvalues --    0.02309   0.02309   0.02309   0.07468   0.07468
  Beta virt. eigenvalues --    0.07468   0.07468   0.07468   0.09549   0.09549
  Beta virt. eigenvalues --    0.09549   0.11949   0.26503   0.26503   0.26503
  Beta virt. eigenvalues --    0.26503   0.26503   0.28121   0.28121   0.28121
  Beta virt. eigenvalues --    0.28121   0.28121   0.28121   0.28121   0.34930
  Beta virt. eigenvalues --    0.34930   0.34930   0.70841   0.70841   0.70841
  Beta virt. eigenvalues --    0.70841   0.70841   0.84945   0.84945   0.84945
  Beta virt. eigenvalues --    0.84945   0.84945   0.84945   0.84945   2.31422
     Alpha Molecular Orbital Coefficients:
                           1         2         3         4         5
                       (A1G)--O  (A1G)--O  (T1U)--V  (T1U)--V  (T1U)--V
     Eigenvalues --    -2.03170  -0.13411  -0.03191  -0.03191  -0.03191
   1 1   Li 1S          0.75789  -0.14201   0.00000   0.00000   0.00000
   2        2S         -0.27953   0.15884   0.00000   0.00000   0.00000
   3        3S          0.02569   0.63043   0.00000   0.00000   0.00000
   4        4S         -0.01523   0.45539   0.00000   0.00000   0.00000
   5        5S          0.00402   0.01859   0.00000   0.00000   0.00000
   6        6PX         0.00000   0.00000   0.00000   0.23897   0.00000
   7        6PY         0.00000   0.00000   0.00000   0.00000   0.23897
   8        6PZ         0.00000   0.00000   0.23897   0.00000   0.00000
   9        7PX         0.00000   0.00000   0.00000   0.46532   0.00000
  10        7PY         0.00000   0.00000   0.00000   0.00000   0.46532
  11        7PZ         0.00000   0.00000   0.46532   0.00000   0.00000
  12        8PX         0.00000   0.00000   0.00000   0.36623   0.00000
  13        8PY         0.00000   0.00000   0.00000   0.00000   0.36623
  14        8PZ         0.00000   0.00000   0.36623   0.00000   0.00000
  15        9PX         0.00000   0.00000   0.00000   0.12881   0.00000
  16        9PY         0.00000   0.00000   0.00000   0.00000   0.12881
  17        9PZ         0.00000   0.00000   0.12881   0.00000   0.00000
  18       10D 0        0.00000   0.00000   0.00000   0.00000   0.00000
  19       10D+1        0.00000   0.00000   0.00000   0.00000   0.00000
  20       10D-1        0.00000   0.00000   0.00000   0.00000   0.00000
  21       10D+2       -0.00000   0.00000   0.00000   0.00000   0.00000
  22       10D-2        0.00000   0.00000   0.00000   0.00000   0.00000
  23       11D 0       -0.00000  -0.00000   0.00000   0.00000   0.00000
  24       11D+1        0.00000   0.00000   0.00000   0.00000   0.00000
  25       11D-1        0.00000   0.00000   0.00000   0.00000   0.00000
  26       11D+2        0.00000  -0.00000   0.00000   0.00000   0.00000
  27       11D-2        0.00000   0.00000   0.00000   0.00000   0.00000
  28       12D 0        0.00000   0.00000   0.00000   0.00000   0.00000
  29       12D+1        0.00000   0.00000   0.00000   0.00000   0.00000
  30       12D-1        0.00000   0.00000   0.00000   0.00000   0.00000
  31       12D+2       -0.00000   0.00000   0.00000   0.00000   0.00000
  32       12D-2        0.00000   0.00000   0.00000   0.00000   0.00000
  33       13F 0        0.00000   0.00000  -0.00000   0.00000   0.00000
  34       13F+1        0.00000   0.00000   0.00000   0.00000   0.00000
  35       13F-1        0.00000   0.00000   0.00000   0.00000   0.00000
  36       13F+2        0.00000   0.00000   0.00000   0.00000   0.00000
  37       13F-2        0.00000   0.00000   0.00000   0.00000   0.00000
  38       13F+3        0.00000   0.00000   0.00000  -0.00000   0.00000
  39       13F-3        0.00000   0.00000   0.00000   0.00000   0.00000
  40       14F 0        0.00000   0.00000  -0.00000   0.00000   0.00000
  41       14F+1        0.00000   0.00000   0.00000   0.00000   0.00000
  42       14F-1        0.00000   0.00000   0.00000   0.00000   0.00000
  43       14F+2        0.00000   0.00000   0.00000   0.00000   0.00000
  44       14F-2        0.00000   0.00000   0.00000   0.00000   0.00000
  45       14F+3        0.00000   0.00000   0.00000  -0.00000   0.00000
  46       14F-3        0.00000   0.00000   0.00000   0.00000   0.00000
                           6         7         8         9        10
                       (A1G)--V  (T1U)--V  (T1U)--V  (T1U)--V  (T2G)--V
     Eigenvalues --     0.00122   0.01364   0.01364   0.01364   0.05911
   1 1   Li 1S          0.04848   0.00000   0.00000   0.00000   0.00000
   2        2S         -0.05272   0.00000   0.00000   0.00000   0.00000
   3        3S         -0.21216   0.00000   0.00000   0.00000   0.00000
   4        4S         -0.69343   0.00000   0.00000   0.00000   0.00000
   5        5S          1.38259   0.00000   0.00000   0.00000   0.00000
   6        6PX         0.00000   0.00000  -0.15121   0.00000   0.00000
   7        6PY         0.00000   0.00000   0.00000  -0.15121   0.00000
   8        6PZ         0.00000  -0.15121   0.00000   0.00000   0.00000
   9        7PX         0.00000   0.00000  -0.14517   0.00000   0.00000
  10        7PY         0.00000   0.00000   0.00000  -0.14517   0.00000
  11        7PZ         0.00000  -0.14517   0.00000   0.00000   0.00000
  12        8PX         0.00000   0.00000  -0.83041   0.00000   0.00000
  13        8PY         0.00000   0.00000   0.00000  -0.83041   0.00000
  14        8PZ         0.00000  -0.83041   0.00000   0.00000   0.00000
  15        9PX         0.00000   0.00000   1.50451   0.00000   0.00000
  16        9PY         0.00000   0.00000   0.00000   1.50451   0.00000
  17        9PZ         0.00000   1.50451   0.00000   0.00000   0.00000
  18       10D 0       -0.00000   0.00000   0.00000   0.00000   0.00000
  19       10D+1        0.00000   0.00000   0.00000   0.00000   0.10388
  20       10D-1        0.00000   0.00000   0.00000   0.00000   0.00000
  21       10D+2       -0.00000   0.00000   0.00000   0.00000   0.00000
  22       10D-2        0.00000   0.00000   0.00000   0.00000   0.00000
  23       11D 0        0.00000   0.00000   0.00000   0.00000   0.00000
  24       11D+1        0.00000   0.00000   0.00000   0.00000  -0.26512
  25       11D-1        0.00000   0.00000   0.00000   0.00000   0.00000
  26       11D+2       -0.00000   0.00000   0.00000   0.00000   0.00000
  27       11D-2        0.00000   0.00000   0.00000   0.00000   0.00000
  28       12D 0       -0.00000   0.00000   0.00000   0.00000   0.00000
  29       12D+1        0.00000   0.00000   0.00000   0.00000   1.16222
  30       12D-1        0.00000   0.00000   0.00000   0.00000   0.00000
  31       12D+2        0.00000   0.00000   0.00000   0.00000   0.00000
  32       12D-2        0.00000   0.00000   0.00000   0.00000   0.00000
  33       13F 0        0.00000   0.00000   0.00000   0.00000   0.00000
  34       13F+1        0.00000   0.00000  -0.00000   0.00000   0.00000
  35       13F-1        0.00000   0.00000   0.00000  -0.00000   0.00000
  36       13F+2        0.00000  -0.00000   0.00000   0.00000   0.00000
  37       13F-2        0.00000   0.00000   0.00000   0.00000   0.00000
  38       13F+3        0.00000   0.00000   0.00000   0.00000   0.00000
  39       13F-3        0.00000   0.00000   0.00000  -0.00000   0.00000
  40       14F 0        0.00000   0.00000   0.00000   0.00000   0.00000
  41       14F+1        0.00000   0.00000  -0.00000   0.00000   0.00000
  42       14F-1        0.00000   0.00000   0.00000  -0.00000   0.00000
  43       14F+2        0.00000   0.00000   0.00000   0.00000   0.00000
  44       14F-2        0.00000   0.00000   0.00000   0.00000   0.00000
  45       14F+3        0.00000   0.00000   0.00000   0.00000   0.00000
  46       14F-3        0.00000   0.00000   0.00000  -0.00000   0.00000
                          11        12        13        14        15
                       (T2G)--V  (T2G)--V   (EG)--V   (EG)--V  (T1U)--V
     Eigenvalues --     0.05911   0.05911   0.05911   0.05911   0.07974
   1 1   Li 1S          0.00000   0.00000   0.00000   0.00000   0.00000
   2        2S          0.00000   0.00000  -0.00000  -0.00000   0.00000
   3        3S          0.00000   0.00000  -0.00000  -0.00000   0.00000
   4        4S          0.00000   0.00000   0.00000   0.00000   0.00000
   5        5S          0.00000   0.00000  -0.00000   0.00000   0.00000
   6        6PX         0.00000   0.00000   0.00000  -0.00000   0.00000
   7        6PY         0.00000   0.00000   0.00000  -0.00000   0.00000
   8        6PZ         0.00000   0.00000   0.00000  -0.00000  -0.22585
   9        7PX         0.00000   0.00000   0.00000  -0.00000   0.00000
  10        7PY         0.00000   0.00000   0.00000  -0.00000   0.00000
  11        7PZ         0.00000   0.00000   0.00000  -0.00000  -1.24848
  12        8PX         0.00000   0.00000   0.00000  -0.00000   0.00000
  13        8PY         0.00000   0.00000   0.00000  -0.00000   0.00000
  14        8PZ         0.00000   0.00000   0.00000  -0.00000   2.47846
  15        9PX         0.00000   0.00000   0.00000  -0.00000   0.00000
  16        9PY         0.00000   0.00000   0.00000  -0.00000   0.00000
  17        9PZ         0.00000   0.00000   0.00000  -0.00000  -1.34177
  18       10D 0        0.00000   0.00000   0.05074   0.09064   0.00000
  19       10D+1        0.00000   0.00000   0.00000  -0.00000   0.00000
  20       10D-1        0.10388   0.00000   0.00000  -0.00000   0.00000
  21       10D+2        0.00000   0.00000   0.09064  -0.05074   0.00000
  22       10D-2        0.00000   0.10388   0.00000  -0.00000   0.00000
  23       11D 0        0.00000   0.00000  -0.12950  -0.23134   0.00000
  24       11D+1        0.00000   0.00000   0.00000  -0.00000   0.00000
  25       11D-1       -0.26512   0.00000   0.00000  -0.00000   0.00000
  26       11D+2        0.00000   0.00000  -0.23134   0.12950   0.00000
  27       11D-2        0.00000  -0.26512   0.00000  -0.00000   0.00000
  28       12D 0        0.00000   0.00000   0.56770   1.01414   0.00000
  29       12D+1        0.00000   0.00000   0.00000  -0.00000   0.00000
  30       12D-1        1.16222   0.00000   0.00000  -0.00000   0.00000
  31       12D+2        0.00000   0.00000   1.01414  -0.56770   0.00000
  32       12D-2        0.00000   1.16222   0.00000  -0.00000   0.00000
  33       13F 0        0.00000   0.00000   0.00000  -0.00000   0.00000
  34       13F+1        0.00000   0.00000   0.00000  -0.00000   0.00000
  35       13F-1        0.00000   0.00000   0.00000  -0.00000   0.00000
  36       13F+2        0.00000   0.00000   0.00000  -0.00000   0.00000
  37       13F-2        0.00000   0.00000   0.00000  -0.00000   0.00000
  38       13F+3        0.00000   0.00000   0.00000  -0.00000   0.00000
  39       13F-3        0.00000   0.00000   0.00000  -0.00000   0.00000
  40       14F 0        0.00000   0.00000   0.00000  -0.00000  -0.00000
  41       14F+1        0.00000   0.00000   0.00000  -0.00000   0.00000
  42       14F-1        0.00000   0.00000   0.00000  -0.00000   0.00000
  43       14F+2        0.00000   0.00000   0.00000  -0.00000  -0.00000
  44       14F-2        0.00000   0.00000   0.00000  -0.00000   0.00000
  45       14F+3        0.00000   0.00000   0.00000  -0.00000   0.00000
  46       14F-3        0.00000   0.00000   0.00000  -0.00000   0.00000
                          16        17        18        19        20
                       (T1U)--V  (T1U)--V  (A1G)--V  (T2G)--V  (T2G)--V
     Eigenvalues --     0.07974   0.07974   0.09892   0.23070   0.23070
   1 1   Li 1S          0.00000   0.00000   0.12474   0.00000   0.00000
   2        2S          0.00000   0.00000  -0.22217   0.00000   0.00000
   3        3S          0.00000   0.00000  -2.27663   0.00000   0.00000
   4        4S          0.00000   0.00000   2.84757   0.00000   0.00000
   5        5S          0.00000   0.00000  -1.03901   0.00000   0.00000
   6        6PX         0.00000  -0.22585   0.00000   0.00000   0.00000
   7        6PY        -0.22585   0.00000   0.00000   0.00000   0.00000
   8        6PZ         0.00000   0.00000   0.00000   0.00000   0.00000
   9        7PX         0.00000  -1.24848   0.00000   0.00000   0.00000
  10        7PY        -1.24848   0.00000   0.00000   0.00000   0.00000
  11        7PZ         0.00000   0.00000   0.00000   0.00000   0.00000
  12        8PX         0.00000   2.47846   0.00000   0.00000   0.00000
  13        8PY         2.47846   0.00000   0.00000   0.00000   0.00000
  14        8PZ         0.00000   0.00000   0.00000   0.00000   0.00000
  15        9PX         0.00000  -1.34177   0.00000   0.00000   0.00000
  16        9PY        -1.34177   0.00000   0.00000   0.00000   0.00000
  17        9PZ         0.00000   0.00000   0.00000   0.00000   0.00000
  18       10D 0        0.00000   0.00000  -0.00000   0.00000   0.00000
  19       10D+1        0.00000   0.00000   0.00000  -0.16162   0.00000
  20       10D-1        0.00000   0.00000   0.00000   0.00000  -0.16162
  21       10D+2        0.00000   0.00000  -0.00000   0.00000   0.00000
  22       10D-2        0.00000   0.00000   0.00000   0.00000   0.00000
  23       11D 0        0.00000   0.00000   0.00000   0.00000   0.00000
  24       11D+1        0.00000   0.00000   0.00000   1.74487   0.00000
  25       11D-1        0.00000   0.00000   0.00000   0.00000   1.74487
  26       11D+2        0.00000   0.00000   0.00000   0.00000   0.00000
  27       11D-2        0.00000   0.00000   0.00000   0.00000   0.00000
  28       12D 0        0.00000   0.00000  -0.00000   0.00000   0.00000
  29       12D+1        0.00000   0.00000   0.00000  -1.19262   0.00000
  30       12D-1        0.00000   0.00000   0.00000   0.00000  -1.19262
  31       12D+2        0.00000   0.00000  -0.00000   0.00000   0.00000
  32       12D-2        0.00000   0.00000   0.00000   0.00000   0.00000
  33       13F 0        0.00000   0.00000   0.00000   0.00000   0.00000
  34       13F+1        0.00000  -0.00000   0.00000   0.00000   0.00000
  35       13F-1       -0.00000   0.00000   0.00000   0.00000   0.00000
  36       13F+2        0.00000   0.00000   0.00000   0.00000   0.00000
  37       13F-2        0.00000   0.00000   0.00000   0.00000   0.00000
  38       13F+3        0.00000   0.00000   0.00000   0.00000   0.00000
  39       13F-3       -0.00000   0.00000   0.00000   0.00000   0.00000
  40       14F 0        0.00000   0.00000   0.00000   0.00000   0.00000
  41       14F+1        0.00000   0.00000   0.00000   0.00000   0.00000
  42       14F-1        0.00000   0.00000   0.00000   0.00000   0.00000
  43       14F+2        0.00000   0.00000   0.00000   0.00000   0.00000
  44       14F-2        0.00000   0.00000   0.00000   0.00000   0.00000
  45       14F+3        0.00000  -0.00000   0.00000   0.00000   0.00000
  46       14F-3        0.00000   0.00000   0.00000   0.00000   0.00000
                          21        22        23        24        25
                       (T2G)--V   (EG)--V   (EG)--V  (T2U)--V  (T2U)--V
     Eigenvalues --     0.23070   0.23070   0.23070   0.24881   0.24881
   1 1   Li 1S          0.00000  -0.00000   0.00000   0.00000   0.00000
   2        2S          0.00000   0.00000  -0.00000   0.00000   0.00000
   3        3S          0.00000   0.00000  -0.00000   0.00000   0.00000
   4        4S          0.00000  -0.00000   0.00000   0.00000   0.00000
   5        5S          0.00000  -0.00000   0.00000   0.00000   0.00000
   6        6PX         0.00000   0.00000   0.00000  -0.00000   0.00000
   7        6PY         0.00000   0.00000   0.00000   0.00000   0.00000
   8        6PZ         0.00000   0.00000   0.00000   0.00000   0.00000
   9        7PX         0.00000   0.00000   0.00000   0.00000   0.00000
  10        7PY         0.00000   0.00000   0.00000   0.00000  -0.00000
  11        7PZ         0.00000   0.00000   0.00000   0.00000   0.00000
  12        8PX         0.00000   0.00000   0.00000  -0.00000   0.00000
  13        8PY         0.00000   0.00000   0.00000   0.00000   0.00000
  14        8PZ         0.00000   0.00000   0.00000   0.00000   0.00000
  15        9PX         0.00000   0.00000   0.00000   0.00000   0.00000
  16        9PY         0.00000   0.00000   0.00000   0.00000  -0.00000
  17        9PZ         0.00000   0.00000   0.00000   0.00000   0.00000
  18       10D 0        0.00000  -0.15908   0.02852   0.00000   0.00000
  19       10D+1        0.00000   0.00000   0.00000   0.00000   0.00000
  20       10D-1        0.00000   0.00000   0.00000   0.00000   0.00000
  21       10D+2        0.00000  -0.02852  -0.15908   0.00000   0.00000
  22       10D-2       -0.16162   0.00000   0.00000   0.00000   0.00000
  23       11D 0        0.00000   1.71749  -0.30789   0.00000   0.00000
  24       11D+1        0.00000   0.00000   0.00000   0.00000   0.00000
  25       11D-1        0.00000   0.00000   0.00000   0.00000   0.00000
  26       11D+2        0.00000   0.30789   1.71749   0.00000   0.00000
  27       11D-2        1.74487   0.00000   0.00000   0.00000   0.00000
  28       12D 0        0.00000  -1.17390   0.21044   0.00000   0.00000
  29       12D+1        0.00000   0.00000   0.00000   0.00000   0.00000
  30       12D-1        0.00000   0.00000   0.00000   0.00000   0.00000
  31       12D+2        0.00000  -0.21044  -1.17390   0.00000   0.00000
  32       12D-2       -1.19262   0.00000   0.00000   0.00000   0.00000
  33       13F 0        0.00000   0.00000   0.00000   0.00000   0.00000
  34       13F+1        0.00000   0.00000   0.00000  -0.16589   0.00000
  35       13F-1        0.00000   0.00000   0.00000   0.00000  -0.16589
  36       13F+2        0.00000   0.00000   0.00000   0.00000   0.00000
  37       13F-2        0.00000   0.00000   0.00000   0.00000   0.00000
  38       13F+3        0.00000   0.00000   0.00000  -0.12850   0.00000
  39       13F-3        0.00000   0.00000   0.00000   0.00000   0.12850
  40       14F 0        0.00000   0.00000   0.00000   0.00000   0.00000
  41       14F+1        0.00000   0.00000   0.00000   0.89659   0.00000
  42       14F-1        0.00000   0.00000   0.00000   0.00000   0.89657
  43       14F+2        0.00000   0.00000   0.00000   0.00000   0.00000
  44       14F-2        0.00000   0.00000   0.00000   0.00000   0.00000
  45       14F+3        0.00000   0.00000   0.00000   0.69449   0.00000
  46       14F-3        0.00000   0.00000   0.00000   0.00000  -0.69452
                          26        27        28        29        30
                       (T2U)--V  (A2U)--V  (T1U)--V  (T1U)--V  (T1U)--V
     Eigenvalues --     0.24881   0.24881   0.24881   0.24881   0.24881
   1 1   Li 1S          0.00000   0.00000   0.00000   0.00000   0.00000
   2        2S          0.00000   0.00000   0.00000   0.00000   0.00000
   3        3S          0.00000   0.00000   0.00000   0.00000   0.00000
   4        4S          0.00000   0.00000   0.00000   0.00000   0.00000
   5        5S          0.00000   0.00000   0.00000   0.00000   0.00000
   6        6PX         0.00000   0.00000   0.00000   0.00000   0.00000
   7        6PY         0.00000   0.00000   0.00000  -0.00000   0.00000
   8        6PZ        -0.00000   0.00000   0.00000   0.00000   0.00000
   9        7PX         0.00000   0.00000  -0.00000   0.00000   0.00000
  10        7PY         0.00000   0.00000   0.00000   0.00000   0.00000
  11        7PZ         0.00000   0.00000   0.00000   0.00000  -0.00000
  12        8PX         0.00000   0.00000   0.00000   0.00000   0.00000
  13        8PY         0.00000   0.00000   0.00000  -0.00000   0.00000
  14        8PZ        -0.00000   0.00000   0.00000   0.00000   0.00000
  15        9PX         0.00000   0.00000  -0.00000   0.00000   0.00000
  16        9PY         0.00000   0.00000   0.00000   0.00000   0.00000
  17        9PZ         0.00000   0.00000   0.00000   0.00000  -0.00000
  18       10D 0        0.00000   0.00000   0.00000   0.00000   0.00000
  19       10D+1        0.00000   0.00000   0.00000   0.00000   0.00000
  20       10D-1        0.00000   0.00000   0.00000   0.00000   0.00000
  21       10D+2        0.00000   0.00000   0.00000   0.00000   0.00000
  22       10D-2        0.00000   0.00000   0.00000   0.00000   0.00000
  23       11D 0        0.00000   0.00000   0.00000   0.00000   0.00000
  24       11D+1        0.00000   0.00000   0.00000   0.00000   0.00000
  25       11D-1        0.00000   0.00000   0.00000   0.00000   0.00000
  26       11D+2        0.00000   0.00000   0.00000   0.00000   0.00000
  27       11D-2        0.00000   0.00000   0.00000   0.00000   0.00000
  28       12D 0        0.00000   0.00000   0.00000   0.00000   0.00000
  29       12D+1        0.00000   0.00000   0.00000   0.00000   0.00000
  30       12D-1        0.00000   0.00000   0.00000   0.00000   0.00000
  31       12D+2        0.00000   0.00000   0.00000   0.00000   0.00000
  32       12D-2        0.00000   0.00000   0.00000   0.00000   0.00000
  33       13F 0        0.00000   0.00000   0.00000   0.00000  -0.20984
  34       13F+1        0.00000   0.00000   0.12850   0.00000   0.00000
  35       13F-1        0.00000   0.00000   0.00000  -0.12850   0.00000
  36       13F+2       -0.20984   0.00000   0.00000   0.00000  -0.00000
  37       13F-2        0.00000  -0.20984   0.00000   0.00000   0.00000
  38       13F+3        0.00000   0.00000  -0.16589   0.00000   0.00000
  39       13F-3        0.00000   0.00000   0.00000  -0.16589   0.00000
  40       14F 0       -0.00001   0.00000   0.00000   0.00000   1.13410
  41       14F+1        0.00000   0.00000  -0.69449   0.00000   0.00000
  42       14F-1        0.00000   0.00000   0.00000   0.69452   0.00000
  43       14F+2        1.13410   0.00000   0.00000   0.00000   0.00001
  44       14F-2        0.00000   1.13410   0.00000   0.00000   0.00000
  45       14F+3        0.00000   0.00000   0.89659   0.00000   0.00000
  46       14F-3        0.00000   0.00000   0.00000   0.89657   0.00000
                          31        32        33        34        35
                       (T1U)--V  (T1U)--V  (T1U)--V  (T2G)--V  (T2G)--V
     Eigenvalues --     0.33623   0.33623   0.33623   0.67689   0.67689
   1 1   Li 1S          0.00000   0.00000   0.00000   0.00000   0.00000
   2        2S          0.00000   0.00000   0.00000   0.00000   0.00000
   3        3S          0.00000   0.00000   0.00000   0.00000   0.00000
   4        4S          0.00000   0.00000   0.00000   0.00000   0.00000
   5        5S          0.00000   0.00000   0.00000   0.00000   0.00000
   6        6PX        -1.41272   0.00000   0.00000   0.00000   0.00000
   7        6PY         0.00000  -1.41272   0.00000   0.00000   0.00000
   8        6PZ         0.00000   0.00000  -1.41272   0.00000   0.00000
   9        7PX         1.99535   0.00000   0.00000   0.00000   0.00000
  10        7PY         0.00000   1.99535   0.00000   0.00000   0.00000
  11        7PZ         0.00000   0.00000   1.99535   0.00000   0.00000
  12        8PX        -1.53860   0.00000   0.00000   0.00000   0.00000
  13        8PY         0.00000  -1.53860   0.00000   0.00000   0.00000
  14        8PZ         0.00000   0.00000  -1.53860   0.00000   0.00000
  15        9PX         0.62404   0.00000   0.00000   0.00000   0.00000
  16        9PY         0.00000   0.62404   0.00000   0.00000   0.00000
  17        9PZ         0.00000   0.00000   0.62404   0.00000   0.00000
  18       10D 0        0.00000   0.00000   0.00000   0.00000   0.00000
  19       10D+1        0.00000   0.00000   0.00000   0.00000   0.00000
  20       10D-1        0.00000   0.00000   0.00000   0.00000  -1.70212
  21       10D+2        0.00000   0.00000   0.00000   0.00000   0.00000
  22       10D-2        0.00000   0.00000   0.00000  -1.70212   0.00000
  23       11D 0        0.00000   0.00000   0.00000   0.00000   0.00000
  24       11D+1        0.00000   0.00000   0.00000   0.00000   0.00000
  25       11D-1        0.00000   0.00000   0.00000   0.00000   1.80535
  26       11D+2        0.00000   0.00000   0.00000   0.00000   0.00000
  27       11D-2        0.00000   0.00000   0.00000   1.80535   0.00000
  28       12D 0        0.00000   0.00000   0.00000   0.00000   0.00000
  29       12D+1        0.00000   0.00000   0.00000   0.00000   0.00000
  30       12D-1        0.00000   0.00000   0.00000   0.00000  -0.74733
  31       12D+2        0.00000   0.00000   0.00000   0.00000   0.00000
  32       12D-2        0.00000   0.00000   0.00000  -0.74733   0.00000
  33       13F 0        0.00000   0.00000  -0.00000   0.00000   0.00000
  34       13F+1        0.00000   0.00000   0.00000   0.00000   0.00000
  35       13F-1        0.00000   0.00000   0.00000   0.00000   0.00000
  36       13F+2        0.00000   0.00000   0.00000   0.00000   0.00000
  37       13F-2        0.00000   0.00000   0.00000   0.00000   0.00000
  38       13F+3       -0.00000   0.00000   0.00000   0.00000   0.00000
  39       13F-3        0.00000   0.00000   0.00000   0.00000   0.00000
  40       14F 0        0.00000   0.00000   0.00000   0.00000   0.00000
  41       14F+1       -0.00000   0.00000   0.00000   0.00000   0.00000
  42       14F-1        0.00000  -0.00000   0.00000   0.00000   0.00000
  43       14F+2        0.00000   0.00000  -0.00000   0.00000   0.00000
  44       14F-2        0.00000   0.00000   0.00000   0.00000   0.00000
  45       14F+3        0.00000   0.00000   0.00000   0.00000   0.00000
  46       14F-3        0.00000  -0.00000   0.00000   0.00000   0.00000
                          36        37        38        39        40
                       (T2G)--V   (EG)--V   (EG)--V  (T2U)--V  (T2U)--V
     Eigenvalues --     0.67689   0.67689   0.67689   0.80628   0.80628
   1 1   Li 1S          0.00000  -0.00000   0.00000   0.00000   0.00000
   2        2S          0.00000  -0.00000  -0.00000   0.00000   0.00000
   3        3S          0.00000   0.00000  -0.00000   0.00000   0.00000
   4        4S          0.00000  -0.00000   0.00000   0.00000   0.00000
   5        5S          0.00000   0.00000   0.00000   0.00000   0.00000
   6        6PX         0.00000   0.00000   0.00000   0.00000   0.00000
   7        6PY         0.00000   0.00000   0.00000   0.00000   0.00000
   8        6PZ         0.00000   0.00000   0.00000   0.00000   0.00000
   9        7PX         0.00000   0.00000   0.00000   0.00000  -0.00000
  10        7PY         0.00000   0.00000   0.00000  -0.00000   0.00000
  11        7PZ         0.00000   0.00000   0.00000   0.00000   0.00000
  12        8PX         0.00000   0.00000   0.00000   0.00000  -0.00000
  13        8PY         0.00000   0.00000   0.00000   0.00000   0.00000
  14        8PZ         0.00000   0.00000   0.00000   0.00000   0.00000
  15        9PX         0.00000   0.00000   0.00000   0.00000  -0.00000
  16        9PY         0.00000   0.00000   0.00000  -0.00000   0.00000
  17        9PZ         0.00000   0.00000   0.00000   0.00000   0.00000
  18       10D 0        0.00000  -0.89217  -1.44956   0.00000   0.00000
  19       10D+1       -1.70212   0.00000   0.00000   0.00000   0.00000
  20       10D-1        0.00000   0.00000   0.00000   0.00000   0.00000
  21       10D+2        0.00000  -1.44956   0.89217   0.00000   0.00000
  22       10D-2        0.00000   0.00000   0.00000   0.00000   0.00000
  23       11D 0        0.00000   0.94628   1.53748   0.00000   0.00000
  24       11D+1        1.80535   0.00000   0.00000   0.00000   0.00000
  25       11D-1        0.00000   0.00000   0.00000   0.00000   0.00000
  26       11D+2        0.00000   1.53748  -0.94628   0.00000   0.00000
  27       11D-2        0.00000   0.00000   0.00000   0.00000   0.00000
  28       12D 0        0.00000  -0.39171  -0.63644   0.00000   0.00000
  29       12D+1       -0.74733   0.00000   0.00000   0.00000   0.00000
  30       12D-1        0.00000   0.00000   0.00000   0.00000   0.00000
  31       12D+2        0.00000  -0.63644   0.39171   0.00000   0.00000
  32       12D-2        0.00000   0.00000   0.00000   0.00000   0.00000
  33       13F 0        0.00000   0.00000   0.00000   0.00000   0.00000
  34       13F+1        0.00000   0.00000   0.00000   0.00000   1.08517
  35       13F-1        0.00000   0.00000   0.00000   1.08515   0.00000
  36       13F+2        0.00000   0.00000   0.00000   0.00000   0.00000
  37       13F-2        0.00000   0.00000   0.00000   0.00000   0.00000
  38       13F+3        0.00000   0.00000   0.00000   0.00000   0.84059
  39       13F-3        0.00000   0.00000   0.00000  -0.84061   0.00000
  40       14F 0        0.00000   0.00000   0.00000   0.00000   0.00000
  41       14F+1        0.00000   0.00000   0.00000   0.00000  -0.63345
  42       14F-1        0.00000   0.00000   0.00000  -0.63344   0.00000
  43       14F+2        0.00000   0.00000   0.00000   0.00000   0.00000
  44       14F-2        0.00000   0.00000   0.00000   0.00000   0.00000
  45       14F+3        0.00000   0.00000   0.00000   0.00000  -0.49068
  46       14F-3        0.00000   0.00000   0.00000   0.49069   0.00000
                          41        42        43        44        45
                       (T2U)--V  (A2U)--V  (T1U)--V  (T1U)--V  (T1U)--V
     Eigenvalues --     0.80628   0.80628   0.80628   0.80628   0.80628
   1 1   Li 1S          0.00000   0.00000   0.00000   0.00000   0.00000
   2        2S          0.00000   0.00000   0.00000   0.00000   0.00000
   3        3S          0.00000   0.00000   0.00000   0.00000   0.00000
   4        4S          0.00000   0.00000   0.00000   0.00000   0.00000
   5        5S          0.00000   0.00000   0.00000   0.00000   0.00000
   6        6PX         0.00000   0.00000   0.00000   0.00000   0.00000
   7        6PY         0.00000   0.00000   0.00000  -0.00000   0.00000
   8        6PZ         0.00000   0.00000   0.00000   0.00000   0.00000
   9        7PX         0.00000   0.00000   0.00000   0.00000   0.00000
  10        7PY         0.00000   0.00000   0.00000  -0.00000   0.00000
  11        7PZ        -0.00000   0.00000   0.00000   0.00000   0.00000
  12        8PX         0.00000   0.00000   0.00000   0.00000  -0.00000
  13        8PY         0.00000   0.00000   0.00000   0.00000   0.00000
  14        8PZ         0.00000   0.00000  -0.00000   0.00000   0.00000
  15        9PX         0.00000   0.00000   0.00000   0.00000   0.00000
  16        9PY         0.00000   0.00000   0.00000  -0.00000   0.00000
  17        9PZ        -0.00000   0.00000   0.00000   0.00000   0.00000
  18       10D 0        0.00000   0.00000   0.00000   0.00000   0.00000
  19       10D+1        0.00000   0.00000   0.00000   0.00000   0.00000
  20       10D-1        0.00000   0.00000   0.00000   0.00000   0.00000
  21       10D+2        0.00000   0.00000   0.00000   0.00000   0.00000
  22       10D-2        0.00000   0.00000   0.00000   0.00000   0.00000
  23       11D 0        0.00000   0.00000   0.00000   0.00000   0.00000
  24       11D+1        0.00000   0.00000   0.00000   0.00000   0.00000
  25       11D-1        0.00000   0.00000   0.00000   0.00000   0.00000
  26       11D+2        0.00000   0.00000   0.00000   0.00000   0.00000
  27       11D-2        0.00000   0.00000   0.00000   0.00000   0.00000
  28       12D 0        0.00000   0.00000   0.00000   0.00000   0.00000
  29       12D+1        0.00000   0.00000   0.00000   0.00000   0.00000
  30       12D-1        0.00000   0.00000   0.00000   0.00000   0.00000
  31       12D+2        0.00000   0.00000   0.00000   0.00000   0.00000
  32       12D-2        0.00000   0.00000   0.00000   0.00000   0.00000
  33       13F 0       -0.00002   0.00000   1.37266   0.00000   0.00000
  34       13F+1        0.00000   0.00000   0.00000   0.00000  -0.84059
  35       13F-1        0.00000   0.00000   0.00000   0.84061   0.00000
  36       13F+2        1.37266   0.00000   0.00002   0.00000   0.00000
  37       13F-2        0.00000   1.37266   0.00000   0.00000   0.00000
  38       13F+3        0.00000   0.00000   0.00000   0.00000   1.08517
  39       13F-3        0.00000   0.00000   0.00000   1.08515   0.00000
  40       14F 0        0.00001   0.00000  -0.80126   0.00000   0.00000
  41       14F+1        0.00000   0.00000   0.00000   0.00000   0.49068
  42       14F-1        0.00000   0.00000   0.00000  -0.49069   0.00000
  43       14F+2       -0.80126   0.00000  -0.00001   0.00000   0.00000
  44       14F-2        0.00000  -0.80126   0.00000   0.00000   0.00000
  45       14F+3        0.00000   0.00000   0.00000   0.00000  -0.63345
  46       14F-3        0.00000   0.00000   0.00000  -0.63344   0.00000
                          46
                       (A1G)--V
     Eigenvalues --     2.30325
   1 1   Li 1S          1.59076
   2        2S          2.05883
   3        3S          1.22752
   4        4S         -0.85442
   5        5S          0.23200
   6        6PX         0.00000
   7        6PY         0.00000
   8        6PZ         0.00000
   9        7PX         0.00000
  10        7PY         0.00000
  11        7PZ         0.00000
  12        8PX         0.00000
  13        8PY         0.00000
  14        8PZ         0.00000
  15        9PX         0.00000
  16        9PY         0.00000
  17        9PZ         0.00000
  18       10D 0       -0.00000
  19       10D+1        0.00000
  20       10D-1        0.00000
  21       10D+2       -0.00000
  22       10D-2        0.00000
  23       11D 0        0.00000
  24       11D+1        0.00000
  25       11D-1        0.00000
  26       11D+2        0.00000
  27       11D-2        0.00000
  28       12D 0       -0.00000
  29       12D+1        0.00000
  30       12D-1        0.00000
  31       12D+2       -0.00000
  32       12D-2        0.00000
  33       13F 0        0.00000
  34       13F+1        0.00000
  35       13F-1        0.00000
  36       13F+2        0.00000
  37       13F-2        0.00000
  38       13F+3        0.00000
  39       13F-3        0.00000
  40       14F 0        0.00000
  41       14F+1        0.00000
  42       14F-1        0.00000
  43       14F+2        0.00000
  44       14F-2        0.00000
  45       14F+3        0.00000
  46       14F-3        0.00000
     Beta Molecular Orbital Coefficients:
                           1         2         3         4         5
                       (A1G)--O  (A1G)--V  (T1U)--V  (T1U)--V  (T1U)--V
     Eigenvalues --    -2.02246  -0.05467  -0.00332  -0.00332  -0.00332
   1 1   Li 1S          0.75384  -0.13639   0.00000   0.00000   0.00000
   2        2S         -0.28392   0.12910   0.00000   0.00000   0.00000
   3        3S          0.02619   0.48563   0.00000   0.00000   0.00000
   4        4S         -0.01578   0.47379   0.00000   0.00000   0.00000
   5        5S          0.00419   0.17957   0.00000   0.00000   0.00000
   6        6PX         0.00000   0.00000   0.17018   0.00000   0.00000
   7        6PY         0.00000   0.00000   0.00000   0.17018   0.00000
   8        6PZ         0.00000   0.00000   0.00000   0.00000   0.17018
   9        7PX         0.00000   0.00000   0.22637   0.00000   0.00000
  10        7PY         0.00000   0.00000   0.00000   0.22637   0.00000
  11        7PZ         0.00000   0.00000   0.00000   0.00000   0.22637
  12        8PX         0.00000   0.00000   0.20965   0.00000   0.00000
  13        8PY         0.00000   0.00000   0.00000   0.20965   0.00000
  14        8PZ         0.00000   0.00000   0.00000   0.00000   0.20965
  15        9PX         0.00000   0.00000   0.62115   0.00000   0.00000
  16        9PY         0.00000   0.00000   0.00000   0.62115   0.00000
  17        9PZ         0.00000   0.00000   0.00000   0.00000   0.62115
  18       10D 0        0.00000   0.00000   0.00000   0.00000   0.00000
  19       10D+1        0.00000   0.00000   0.00000   0.00000   0.00000
  20       10D-1        0.00000   0.00000   0.00000   0.00000   0.00000
  21       10D+2        0.00000  -0.00000   0.00000   0.00000   0.00000
  22       10D-2        0.00000   0.00000   0.00000   0.00000   0.00000
  23       11D 0       -0.00000  -0.00000   0.00000   0.00000   0.00000
  24       11D+1        0.00000   0.00000   0.00000   0.00000   0.00000
  25       11D-1        0.00000   0.00000   0.00000   0.00000   0.00000
  26       11D+2        0.00000   0.00000   0.00000   0.00000   0.00000
  27       11D-2        0.00000   0.00000   0.00000   0.00000   0.00000
  28       12D 0        0.00000   0.00000   0.00000   0.00000   0.00000
  29       12D+1        0.00000   0.00000   0.00000   0.00000   0.00000
  30       12D-1        0.00000   0.00000   0.00000   0.00000   0.00000
  31       12D+2       -0.00000  -0.00000   0.00000   0.00000   0.00000
  32       12D-2        0.00000   0.00000   0.00000   0.00000   0.00000
  33       13F 0        0.00000   0.00000   0.00000   0.00000  -0.00000
  34       13F+1        0.00000   0.00000   0.00000   0.00000   0.00000
  35       13F-1        0.00000   0.00000   0.00000   0.00000   0.00000
  36       13F+2        0.00000   0.00000   0.00000   0.00000  -0.00000
  37       13F-2        0.00000   0.00000   0.00000   0.00000   0.00000
  38       13F+3        0.00000   0.00000  -0.00000   0.00000   0.00000
  39       13F-3        0.00000   0.00000   0.00000   0.00000   0.00000
  40       14F 0        0.00000   0.00000   0.00000   0.00000  -0.00000
  41       14F+1        0.00000   0.00000   0.00000   0.00000   0.00000
  42       14F-1        0.00000   0.00000   0.00000   0.00000   0.00000
  43       14F+2        0.00000   0.00000   0.00000   0.00000   0.00000
  44       14F-2        0.00000   0.00000   0.00000   0.00000   0.00000
  45       14F+3        0.00000   0.00000  -0.00000   0.00000   0.00000
  46       14F-3        0.00000   0.00000   0.00000   0.00000   0.00000
                           6         7         8         9        10
                       (A1G)--V  (T1U)--V  (T1U)--V  (T1U)--V  (T2G)--V
     Eigenvalues --     0.00859   0.02309   0.02309   0.02309   0.07468
   1 1   Li 1S          0.06410   0.00000   0.00000   0.00000   0.00000
   2        2S         -0.05584   0.00000   0.00000   0.00000   0.00000
   3        3S         -0.14459   0.00000   0.00000   0.00000   0.00000
   4        4S         -0.94660   0.00000   0.00000   0.00000   0.00000
   5        5S          1.43273   0.00000   0.00000   0.00000   0.00000
   6        6PX         0.00000  -0.22876   0.00000   0.00000   0.00000
   7        6PY         0.00000   0.00000  -0.22876   0.00000   0.00000
   8        6PZ         0.00000   0.00000   0.00000  -0.22876   0.00000
   9        7PX         0.00000  -0.05560   0.00000   0.00000   0.00000
  10        7PY         0.00000   0.00000  -0.05560   0.00000   0.00000
  11        7PZ         0.00000   0.00000   0.00000  -0.05560   0.00000
  12        8PX         0.00000  -1.34701   0.00000   0.00000   0.00000
  13        8PY         0.00000   0.00000  -1.34701   0.00000   0.00000
  14        8PZ         0.00000   0.00000   0.00000  -1.34701   0.00000
  15        9PX         0.00000   1.54844   0.00000   0.00000   0.00000
  16        9PY         0.00000   0.00000   1.54844   0.00000   0.00000
  17        9PZ         0.00000   0.00000   0.00000   1.54844   0.00000
  18       10D 0       -0.00000   0.00000   0.00000   0.00000   0.00000
  19       10D+1        0.00000   0.00000   0.00000   0.00000   0.00000
  20       10D-1        0.00000   0.00000   0.00000   0.00000   0.12831
  21       10D+2       -0.00000   0.00000   0.00000   0.00000   0.00000
  22       10D-2        0.00000   0.00000   0.00000   0.00000   0.00000
  23       11D 0        0.00000   0.00000   0.00000   0.00000   0.00000
  24       11D+1        0.00000   0.00000   0.00000   0.00000   0.00000
  25       11D-1        0.00000   0.00000   0.00000   0.00000  -0.42370
  26       11D+2        0.00000   0.00000   0.00000   0.00000   0.00000
  27       11D-2        0.00000   0.00000   0.00000   0.00000   0.00000
  28       12D 0       -0.00000   0.00000   0.00000   0.00000   0.00000
  29       12D+1        0.00000   0.00000   0.00000   0.00000   0.00000
  30       12D-1        0.00000   0.00000   0.00000   0.00000   1.26389
  31       12D+2       -0.00000   0.00000   0.00000   0.00000   0.00000
  32       12D-2        0.00000   0.00000   0.00000   0.00000   0.00000
  33       13F 0        0.00000   0.00000   0.00000   0.00000   0.00000
  34       13F+1        0.00000  -0.00000   0.00000   0.00000   0.00000
  35       13F-1        0.00000   0.00000  -0.00000   0.00000   0.00000
  36       13F+2        0.00000   0.00000   0.00000  -0.00000   0.00000
  37       13F-2        0.00000   0.00000   0.00000   0.00000   0.00000
  38       13F+3        0.00000   0.00000   0.00000   0.00000   0.00000
  39       13F-3        0.00000   0.00000  -0.00000   0.00000   0.00000
  40       14F 0        0.00000   0.00000   0.00000   0.00000   0.00000
  41       14F+1        0.00000  -0.00000   0.00000   0.00000   0.00000
  42       14F-1        0.00000   0.00000  -0.00000   0.00000   0.00000
  43       14F+2        0.00000   0.00000   0.00000   0.00000   0.00000
  44       14F-2        0.00000   0.00000   0.00000   0.00000   0.00000
  45       14F+3        0.00000   0.00000   0.00000   0.00000   0.00000
  46       14F-3        0.00000   0.00000  -0.00000   0.00000   0.00000
                          11        12        13        14        15
                       (T2G)--V  (T2G)--V   (EG)--V   (EG)--V  (T1U)--V
     Eigenvalues --     0.07468   0.07468   0.07468   0.07468   0.09549
   1 1   Li 1S          0.00000   0.00000   0.00000   0.00000   0.00000
   2        2S          0.00000   0.00000  -0.00000  -0.00000   0.00000
   3        3S          0.00000   0.00000  -0.00000  -0.00000   0.00000
   4        4S          0.00000   0.00000   0.00000   0.00000   0.00000
   5        5S          0.00000   0.00000  -0.00000   0.00000   0.00000
   6        6PX         0.00000   0.00000   0.00000   0.00000   0.00000
   7        6PY         0.00000   0.00000   0.00000   0.00000   0.00000
   8        6PZ         0.00000   0.00000   0.00000   0.00000  -0.27782
   9        7PX         0.00000   0.00000   0.00000   0.00000   0.00000
  10        7PY         0.00000   0.00000   0.00000   0.00000   0.00000
  11        7PZ         0.00000   0.00000   0.00000   0.00000  -1.30120
  12        8PX         0.00000   0.00000   0.00000   0.00000   0.00000
  13        8PY         0.00000   0.00000   0.00000   0.00000   0.00000
  14        8PZ         0.00000   0.00000   0.00000   0.00000   2.28019
  15        9PX         0.00000   0.00000   0.00000   0.00000   0.00000
  16        9PY         0.00000   0.00000   0.00000   0.00000   0.00000
  17        9PZ         0.00000   0.00000   0.00000   0.00000  -1.15003
  18       10D 0        0.00000   0.00000  -0.00896   0.12800   0.00000
  19       10D+1        0.12831   0.00000   0.00000   0.00000   0.00000
  20       10D-1        0.00000   0.00000   0.00000   0.00000   0.00000
  21       10D+2        0.00000   0.00000   0.12800   0.00896   0.00000
  22       10D-2        0.00000   0.12831   0.00000   0.00000   0.00000
  23       11D 0        0.00000   0.00000   0.02960  -0.42267   0.00000
  24       11D+1       -0.42370   0.00000   0.00000   0.00000   0.00000
  25       11D-1        0.00000   0.00000   0.00000   0.00000   0.00000
  26       11D+2        0.00000   0.00000  -0.42267  -0.02960   0.00000
  27       11D-2        0.00000  -0.42370   0.00000   0.00000   0.00000
  28       12D 0        0.00000   0.00000  -0.08829   1.26080   0.00000
  29       12D+1        1.26389   0.00000   0.00000   0.00000   0.00000
  30       12D-1        0.00000   0.00000   0.00000   0.00000   0.00000
  31       12D+2        0.00000   0.00000   1.26080   0.08829   0.00000
  32       12D-2        0.00000   1.26389   0.00000   0.00000   0.00000
  33       13F 0        0.00000   0.00000   0.00000   0.00000   0.00000
  34       13F+1        0.00000   0.00000   0.00000   0.00000   0.00000
  35       13F-1        0.00000   0.00000   0.00000   0.00000   0.00000
  36       13F+2        0.00000   0.00000   0.00000   0.00000  -0.00000
  37       13F-2        0.00000   0.00000   0.00000   0.00000   0.00000
  38       13F+3        0.00000   0.00000   0.00000   0.00000   0.00000
  39       13F-3        0.00000   0.00000   0.00000   0.00000   0.00000
  40       14F 0        0.00000   0.00000   0.00000   0.00000  -0.00000
  41       14F+1        0.00000   0.00000   0.00000   0.00000   0.00000
  42       14F-1        0.00000   0.00000   0.00000   0.00000   0.00000
  43       14F+2        0.00000   0.00000   0.00000   0.00000   0.00000
  44       14F-2        0.00000   0.00000   0.00000   0.00000   0.00000
  45       14F+3        0.00000   0.00000   0.00000   0.00000   0.00000
  46       14F-3        0.00000   0.00000   0.00000   0.00000   0.00000
                          16        17        18        19        20
                       (T1U)--V  (T1U)--V  (A1G)--V  (T2G)--V  (T2G)--V
     Eigenvalues --     0.09549   0.09549   0.11949   0.26503   0.26503
   1 1   Li 1S          0.00000   0.00000   0.14062   0.00000   0.00000
   2        2S          0.00000   0.00000  -0.22713   0.00000   0.00000
   3        3S          0.00000   0.00000  -2.31176   0.00000   0.00000
   4        4S          0.00000   0.00000   2.76938   0.00000   0.00000
   5        5S          0.00000   0.00000  -0.95194   0.00000   0.00000
   6        6PX         0.00000  -0.27782   0.00000   0.00000   0.00000
   7        6PY        -0.27782   0.00000   0.00000   0.00000   0.00000
   8        6PZ         0.00000   0.00000   0.00000   0.00000   0.00000
   9        7PX         0.00000  -1.30120   0.00000   0.00000   0.00000
  10        7PY        -1.30120   0.00000   0.00000   0.00000   0.00000
  11        7PZ         0.00000   0.00000   0.00000   0.00000   0.00000
  12        8PX         0.00000   2.28019   0.00000   0.00000   0.00000
  13        8PY         2.28019   0.00000   0.00000   0.00000   0.00000
  14        8PZ         0.00000   0.00000   0.00000   0.00000   0.00000
  15        9PX         0.00000  -1.15003   0.00000   0.00000   0.00000
  16        9PY        -1.15003   0.00000   0.00000   0.00000   0.00000
  17        9PZ         0.00000   0.00000   0.00000   0.00000   0.00000
  18       10D 0        0.00000   0.00000  -0.00000   0.00000   0.00000
  19       10D+1        0.00000   0.00000   0.00000   0.00000  -0.18064
  20       10D-1        0.00000   0.00000   0.00000  -0.18064   0.00000
  21       10D+2        0.00000   0.00000  -0.00000   0.00000   0.00000
  22       10D-2        0.00000   0.00000   0.00000   0.00000   0.00000
  23       11D 0        0.00000   0.00000   0.00000   0.00000   0.00000
  24       11D+1        0.00000   0.00000   0.00000   0.00000   1.74602
  25       11D-1        0.00000   0.00000   0.00000   1.74602   0.00000
  26       11D+2        0.00000   0.00000  -0.00000   0.00000   0.00000
  27       11D-2        0.00000   0.00000   0.00000   0.00000   0.00000
  28       12D 0        0.00000   0.00000  -0.00000   0.00000   0.00000
  29       12D+1        0.00000   0.00000   0.00000   0.00000  -1.10212
  30       12D-1        0.00000   0.00000   0.00000  -1.10212   0.00000
  31       12D+2        0.00000   0.00000  -0.00000   0.00000   0.00000
  32       12D-2        0.00000   0.00000   0.00000   0.00000   0.00000
  33       13F 0        0.00000   0.00000   0.00000   0.00000   0.00000
  34       13F+1        0.00000  -0.00000   0.00000   0.00000   0.00000
  35       13F-1       -0.00000   0.00000   0.00000   0.00000   0.00000
  36       13F+2        0.00000   0.00000   0.00000   0.00000   0.00000
  37       13F-2        0.00000   0.00000   0.00000   0.00000   0.00000
  38       13F+3        0.00000   0.00000   0.00000   0.00000   0.00000
  39       13F-3       -0.00000   0.00000   0.00000   0.00000   0.00000
  40       14F 0        0.00000   0.00000   0.00000   0.00000   0.00000
  41       14F+1        0.00000   0.00000   0.00000   0.00000   0.00000
  42       14F-1        0.00000   0.00000   0.00000   0.00000   0.00000
  43       14F+2        0.00000   0.00000   0.00000   0.00000   0.00000
  44       14F-2        0.00000   0.00000   0.00000   0.00000   0.00000
  45       14F+3        0.00000  -0.00000   0.00000   0.00000   0.00000
  46       14F-3        0.00000   0.00000   0.00000   0.00000   0.00000
                          21        22        23        24        25
                       (T2G)--V   (EG)--V   (EG)--V  (T2U)--V  (T2U)--V
     Eigenvalues --     0.26503   0.26503   0.26503   0.28121   0.28121
   1 1   Li 1S          0.00000   0.00000  -0.00000   0.00000   0.00000
   2        2S          0.00000  -0.00000   0.00000   0.00000   0.00000
   3        3S          0.00000  -0.00000   0.00000   0.00000   0.00000
   4        4S          0.00000   0.00000  -0.00000   0.00000   0.00000
   5        5S          0.00000  -0.00000   0.00000   0.00000   0.00000
   6        6PX         0.00000   0.00000  -0.00000   0.00000  -0.00000
   7        6PY         0.00000   0.00000  -0.00000  -0.00000   0.00000
   8        6PZ         0.00000   0.00000  -0.00000   0.00000   0.00000
   9        7PX         0.00000   0.00000  -0.00000   0.00000   0.00000
  10        7PY         0.00000   0.00000  -0.00000   0.00000   0.00000
  11        7PZ         0.00000   0.00000  -0.00000   0.00000   0.00000
  12        8PX         0.00000   0.00000  -0.00000   0.00000  -0.00000
  13        8PY         0.00000   0.00000  -0.00000  -0.00000   0.00000
  14        8PZ         0.00000   0.00000  -0.00000   0.00000   0.00000
  15        9PX         0.00000   0.00000  -0.00000   0.00000   0.00000
  16        9PY         0.00000   0.00000  -0.00000  -0.00000   0.00000
  17        9PZ         0.00000   0.00000  -0.00000   0.00000   0.00000
  18       10D 0        0.00000  -0.08792  -0.15780   0.00000   0.00000
  19       10D+1        0.00000   0.00000  -0.00000   0.00000   0.00000
  20       10D-1        0.00000   0.00000  -0.00000   0.00000   0.00000
  21       10D+2        0.00000  -0.15780   0.08792   0.00000   0.00000
  22       10D-2       -0.18064   0.00000  -0.00000   0.00000   0.00000
  23       11D 0        0.00000   0.84984   1.52524   0.00000   0.00000
  24       11D+1        0.00000   0.00000  -0.00000   0.00000   0.00000
  25       11D-1        0.00000   0.00000  -0.00000   0.00000   0.00000
  26       11D+2        0.00000   1.52524  -0.84984   0.00000   0.00000
  27       11D-2        1.74602   0.00000  -0.00000   0.00000   0.00000
  28       12D 0        0.00000  -0.53643  -0.96276   0.00000   0.00000
  29       12D+1        0.00000   0.00000  -0.00000   0.00000   0.00000
  30       12D-1        0.00000   0.00000  -0.00000   0.00000   0.00000
  31       12D+2        0.00000  -0.96276   0.53643   0.00000   0.00000
  32       12D-2       -1.10212   0.00000  -0.00000   0.00000   0.00000
  33       13F 0        0.00000   0.00000  -0.00000   0.00000   0.00000
  34       13F+1        0.00000   0.00000  -0.00000   0.00000  -0.17963
  35       13F-1        0.00000   0.00000  -0.00000  -0.17963   0.00000
  36       13F+2        0.00000   0.00000  -0.00000   0.00000   0.00000
  37       13F-2        0.00000   0.00000  -0.00000   0.00000   0.00000
  38       13F+3        0.00000   0.00000  -0.00000   0.00000  -0.13914
  39       13F-3        0.00000   0.00000  -0.00000   0.13915   0.00000
  40       14F 0        0.00000   0.00000  -0.00000   0.00000   0.00000
  41       14F+1        0.00000   0.00000  -0.00000   0.00000   0.90454
  42       14F-1        0.00000   0.00000  -0.00000   0.90452   0.00000
  43       14F+2        0.00000   0.00000  -0.00000   0.00000   0.00000
  44       14F-2        0.00000   0.00000  -0.00000   0.00000   0.00000
  45       14F+3        0.00000   0.00000  -0.00000   0.00000   0.70066
  46       14F-3        0.00000   0.00000  -0.00000  -0.70069   0.00000
                          26        27        28        29        30
                       (T2U)--V  (A2U)--V  (T1U)--V  (T1U)--V  (T1U)--V
     Eigenvalues --     0.28121   0.28121   0.28121   0.28121   0.28121
   1 1   Li 1S          0.00000   0.00000   0.00000   0.00000   0.00000
   2        2S          0.00000   0.00000   0.00000   0.00000   0.00000
   3        3S          0.00000   0.00000   0.00000   0.00000   0.00000
   4        4S          0.00000   0.00000   0.00000   0.00000   0.00000
   5        5S          0.00000   0.00000   0.00000   0.00000   0.00000
   6        6PX         0.00000   0.00000   0.00000   0.00000   0.00000
   7        6PY         0.00000   0.00000  -0.00000   0.00000   0.00000
   8        6PZ        -0.00000   0.00000   0.00000   0.00000   0.00000
   9        7PX         0.00000   0.00000   0.00000   0.00000  -0.00000
  10        7PY         0.00000   0.00000   0.00000   0.00000   0.00000
  11        7PZ         0.00000   0.00000   0.00000  -0.00000   0.00000
  12        8PX         0.00000   0.00000   0.00000   0.00000   0.00000
  13        8PY         0.00000   0.00000  -0.00000   0.00000   0.00000
  14        8PZ        -0.00000   0.00000   0.00000   0.00000   0.00000
  15        9PX         0.00000   0.00000   0.00000   0.00000  -0.00000
  16        9PY         0.00000   0.00000   0.00000   0.00000   0.00000
  17        9PZ         0.00000   0.00000   0.00000  -0.00000   0.00000
  18       10D 0        0.00000   0.00000   0.00000   0.00000   0.00000
  19       10D+1        0.00000   0.00000   0.00000   0.00000   0.00000
  20       10D-1        0.00000   0.00000   0.00000   0.00000   0.00000
  21       10D+2        0.00000   0.00000   0.00000   0.00000   0.00000
  22       10D-2        0.00000   0.00000   0.00000   0.00000   0.00000
  23       11D 0        0.00000   0.00000   0.00000   0.00000   0.00000
  24       11D+1        0.00000   0.00000   0.00000   0.00000   0.00000
  25       11D-1        0.00000   0.00000   0.00000   0.00000   0.00000
  26       11D+2        0.00000   0.00000   0.00000   0.00000   0.00000
  27       11D-2        0.00000   0.00000   0.00000   0.00000   0.00000
  28       12D 0        0.00000   0.00000   0.00000   0.00000   0.00000
  29       12D+1        0.00000   0.00000   0.00000   0.00000   0.00000
  30       12D-1        0.00000   0.00000   0.00000   0.00000   0.00000
  31       12D+2        0.00000   0.00000   0.00000   0.00000   0.00000
  32       12D-2        0.00000   0.00000   0.00000   0.00000   0.00000
  33       13F 0        0.00000   0.00000   0.00000  -0.22722   0.00000
  34       13F+1        0.00000   0.00000   0.00000   0.00000   0.13914
  35       13F-1        0.00000   0.00000  -0.13915   0.00000   0.00000
  36       13F+2       -0.22722   0.00000   0.00000  -0.00000   0.00000
  37       13F-2        0.00000  -0.22722   0.00000   0.00000   0.00000
  38       13F+3        0.00000   0.00000   0.00000   0.00000  -0.17963
  39       13F-3        0.00000   0.00000  -0.17963   0.00000   0.00000
  40       14F 0       -0.00001   0.00000   0.00000   1.14417   0.00000
  41       14F+1        0.00000   0.00000   0.00000   0.00000  -0.70066
  42       14F-1        0.00000   0.00000   0.70069   0.00000   0.00000
  43       14F+2        1.14417   0.00000   0.00000   0.00001   0.00000
  44       14F-2        0.00000   1.14417   0.00000   0.00000   0.00000
  45       14F+3        0.00000   0.00000   0.00000   0.00000   0.90454
  46       14F-3        0.00000   0.00000   0.90452   0.00000   0.00000
                          31        32        33        34        35
                       (T1U)--V  (T1U)--V  (T1U)--V  (T2G)--V  (T2G)--V
     Eigenvalues --     0.34930   0.34930   0.34930   0.70841   0.70841
   1 1   Li 1S          0.00000   0.00000   0.00000   0.00000   0.00000
   2        2S          0.00000   0.00000   0.00000   0.00000   0.00000
   3        3S          0.00000   0.00000   0.00000   0.00000   0.00000
   4        4S          0.00000   0.00000   0.00000   0.00000   0.00000
   5        5S          0.00000   0.00000   0.00000   0.00000   0.00000
   6        6PX         0.00000  -1.40295   0.00000   0.00000   0.00000
   7        6PY         0.00000   0.00000  -1.40295   0.00000   0.00000
   8        6PZ        -1.40295   0.00000   0.00000   0.00000   0.00000
   9        7PX         0.00000   2.00755   0.00000   0.00000   0.00000
  10        7PY         0.00000   0.00000   2.00755   0.00000   0.00000
  11        7PZ         2.00755   0.00000   0.00000   0.00000   0.00000
  12        8PX         0.00000  -1.50868   0.00000   0.00000   0.00000
  13        8PY         0.00000   0.00000  -1.50868   0.00000   0.00000
  14        8PZ        -1.50868   0.00000   0.00000   0.00000   0.00000
  15        9PX         0.00000   0.60319   0.00000   0.00000   0.00000
  16        9PY         0.00000   0.00000   0.60319   0.00000   0.00000
  17        9PZ         0.60319   0.00000   0.00000   0.00000   0.00000
  18       10D 0        0.00000   0.00000   0.00000   0.00000   0.00000
  19       10D+1        0.00000   0.00000   0.00000   0.00000   0.00000
  20       10D-1        0.00000   0.00000   0.00000  -1.69853   0.00000
  21       10D+2        0.00000   0.00000   0.00000   0.00000   0.00000
  22       10D-2        0.00000   0.00000   0.00000   0.00000  -1.69853
  23       11D 0        0.00000   0.00000   0.00000   0.00000   0.00000
  24       11D+1        0.00000   0.00000   0.00000   0.00000   0.00000
  25       11D-1        0.00000   0.00000   0.00000   1.77371   0.00000
  26       11D+2        0.00000   0.00000   0.00000   0.00000   0.00000
  27       11D-2        0.00000   0.00000   0.00000   0.00000   1.77371
  28       12D 0        0.00000   0.00000   0.00000   0.00000   0.00000
  29       12D+1        0.00000   0.00000   0.00000   0.00000   0.00000
  30       12D-1        0.00000   0.00000   0.00000  -0.72077   0.00000
  31       12D+2        0.00000   0.00000   0.00000   0.00000   0.00000
  32       12D-2        0.00000   0.00000   0.00000   0.00000  -0.72077
  33       13F 0       -0.00000   0.00000   0.00000   0.00000   0.00000
  34       13F+1        0.00000   0.00000   0.00000   0.00000   0.00000
  35       13F-1        0.00000   0.00000   0.00000   0.00000   0.00000
  36       13F+2        0.00000   0.00000   0.00000   0.00000   0.00000
  37       13F-2        0.00000   0.00000   0.00000   0.00000   0.00000
  38       13F+3        0.00000  -0.00000   0.00000   0.00000   0.00000
  39       13F-3        0.00000   0.00000   0.00000   0.00000   0.00000
  40       14F 0        0.00000   0.00000   0.00000   0.00000   0.00000
  41       14F+1        0.00000  -0.00000   0.00000   0.00000   0.00000
  42       14F-1        0.00000   0.00000  -0.00000   0.00000   0.00000
  43       14F+2       -0.00000   0.00000   0.00000   0.00000   0.00000
  44       14F-2        0.00000   0.00000   0.00000   0.00000   0.00000
  45       14F+3        0.00000   0.00000   0.00000   0.00000   0.00000
  46       14F-3        0.00000   0.00000  -0.00000   0.00000   0.00000
                          36        37        38        39        40
                       (T2G)--V   (EG)--V   (EG)--V  (T2U)--V  (T2U)--V
     Eigenvalues --     0.70841   0.70841   0.70841   0.84945   0.84945
   1 1   Li 1S          0.00000  -0.00000  -0.00000   0.00000   0.00000
   2        2S          0.00000   0.00000  -0.00000   0.00000   0.00000
   3        3S          0.00000   0.00000   0.00000   0.00000   0.00000
   4        4S          0.00000  -0.00000  -0.00000   0.00000   0.00000
   5        5S          0.00000   0.00000   0.00000   0.00000   0.00000
   6        6PX         0.00000   0.00000   0.00000   0.00000   0.00000
   7        6PY         0.00000   0.00000   0.00000   0.00000   0.00000
   8        6PZ         0.00000   0.00000   0.00000  -0.00000   0.00000
   9        7PX         0.00000   0.00000   0.00000   0.00000  -0.00000
  10        7PY         0.00000   0.00000   0.00000   0.00000   0.00000
  11        7PZ         0.00000   0.00000   0.00000   0.00000   0.00000
  12        8PX         0.00000   0.00000   0.00000   0.00000   0.00000
  13        8PY         0.00000   0.00000   0.00000   0.00000   0.00000
  14        8PZ         0.00000   0.00000   0.00000  -0.00000   0.00000
  15        9PX         0.00000   0.00000   0.00000   0.00000  -0.00000
  16        9PY         0.00000   0.00000   0.00000   0.00000   0.00000
  17        9PZ         0.00000   0.00000   0.00000   0.00000   0.00000
  18       10D 0        0.00000  -1.62050   0.50892   0.00000   0.00000
  19       10D+1       -1.69853   0.00000   0.00000   0.00000   0.00000
  20       10D-1        0.00000   0.00000   0.00000   0.00000   0.00000
  21       10D+2        0.00000  -0.50892  -1.62050   0.00000   0.00000
  22       10D-2        0.00000   0.00000   0.00000   0.00000   0.00000
  23       11D 0        0.00000   1.69222  -0.53145   0.00000   0.00000
  24       11D+1        1.77371   0.00000   0.00000   0.00000   0.00000
  25       11D-1        0.00000   0.00000   0.00000   0.00000   0.00000
  26       11D+2        0.00000   0.53145   1.69222   0.00000   0.00000
  27       11D-2        0.00000   0.00000   0.00000   0.00000   0.00000
  28       12D 0        0.00000  -0.68766   0.21596   0.00000   0.00000
  29       12D+1       -0.72077   0.00000   0.00000   0.00000   0.00000
  30       12D-1        0.00000   0.00000   0.00000   0.00000   0.00000
  31       12D+2        0.00000  -0.21596  -0.68766   0.00000   0.00000
  32       12D-2        0.00000   0.00000   0.00000   0.00000   0.00000
  33       13F 0        0.00000   0.00000   0.00000  -0.00002   0.00000
  34       13F+1        0.00000   0.00000   0.00000   0.00000   1.08295
  35       13F-1        0.00000   0.00000   0.00000   0.00000   0.00000
  36       13F+2        0.00000   0.00000   0.00000   1.36989   0.00000
  37       13F-2        0.00000   0.00000   0.00000   0.00000   0.00000
  38       13F+3        0.00000   0.00000   0.00000   0.00000   0.83893
  39       13F-3        0.00000   0.00000   0.00000   0.00000   0.00000
  40       14F 0        0.00000   0.00000   0.00000   0.00001   0.00000
  41       14F+1        0.00000   0.00000   0.00000   0.00000  -0.62202
  42       14F-1        0.00000   0.00000   0.00000   0.00000   0.00000
  43       14F+2        0.00000   0.00000   0.00000  -0.78682   0.00000
  44       14F-2        0.00000   0.00000   0.00000   0.00000   0.00000
  45       14F+3        0.00000   0.00000   0.00000   0.00000  -0.48186
  46       14F-3        0.00000   0.00000   0.00000   0.00000   0.00000
                          41        42        43        44        45
                       (T2U)--V  (A2U)--V  (T1U)--V  (T1U)--V  (T1U)--V
     Eigenvalues --     0.84945   0.84945   0.84945   0.84945   0.84945
   1 1   Li 1S          0.00000   0.00000   0.00000   0.00000   0.00000
   2        2S          0.00000   0.00000   0.00000   0.00000   0.00000
   3        3S          0.00000   0.00000   0.00000   0.00000   0.00000
   4        4S          0.00000   0.00000   0.00000   0.00000   0.00000
   5        5S          0.00000   0.00000   0.00000   0.00000   0.00000
   6        6PX         0.00000   0.00000   0.00000   0.00000   0.00000
   7        6PY         0.00000   0.00000   0.00000  -0.00000   0.00000
   8        6PZ         0.00000   0.00000   0.00000   0.00000   0.00000
   9        7PX         0.00000   0.00000   0.00000   0.00000   0.00000
  10        7PY         0.00000   0.00000   0.00000  -0.00000   0.00000
  11        7PZ         0.00000   0.00000   0.00000   0.00000   0.00000
  12        8PX         0.00000   0.00000   0.00000   0.00000  -0.00000
  13        8PY        -0.00000   0.00000   0.00000   0.00000   0.00000
  14        8PZ         0.00000   0.00000  -0.00000   0.00000   0.00000
  15        9PX         0.00000   0.00000   0.00000   0.00000   0.00000
  16        9PY         0.00000   0.00000   0.00000  -0.00000   0.00000
  17        9PZ         0.00000   0.00000   0.00000   0.00000   0.00000
  18       10D 0        0.00000   0.00000   0.00000   0.00000   0.00000
  19       10D+1        0.00000   0.00000   0.00000   0.00000   0.00000
  20       10D-1        0.00000   0.00000   0.00000   0.00000   0.00000
  21       10D+2        0.00000   0.00000   0.00000   0.00000   0.00000
  22       10D-2        0.00000   0.00000   0.00000   0.00000   0.00000
  23       11D 0        0.00000   0.00000   0.00000   0.00000   0.00000
  24       11D+1        0.00000   0.00000   0.00000   0.00000   0.00000
  25       11D-1        0.00000   0.00000   0.00000   0.00000   0.00000
  26       11D+2        0.00000   0.00000   0.00000   0.00000   0.00000
  27       11D-2        0.00000   0.00000   0.00000   0.00000   0.00000
  28       12D 0        0.00000   0.00000   0.00000   0.00000   0.00000
  29       12D+1        0.00000   0.00000   0.00000   0.00000   0.00000
  30       12D-1        0.00000   0.00000   0.00000   0.00000   0.00000
  31       12D+2        0.00000   0.00000   0.00000   0.00000   0.00000
  32       12D-2        0.00000   0.00000   0.00000   0.00000   0.00000
  33       13F 0        0.00000   0.00000   1.36989   0.00000   0.00000
  34       13F+1        0.00000   0.00000   0.00000   0.00000  -0.83893
  35       13F-1        1.08294   0.00000   0.00000   0.83895   0.00000
  36       13F+2        0.00000   0.00000   0.00002   0.00000   0.00000
  37       13F-2        0.00000   1.36989   0.00000   0.00000   0.00000
  38       13F+3        0.00000   0.00000   0.00000   0.00000   1.08295
  39       13F-3       -0.83895   0.00000   0.00000   1.08294   0.00000
  40       14F 0        0.00000   0.00000  -0.78682   0.00000   0.00000
  41       14F+1        0.00000   0.00000   0.00000   0.00000   0.48186
  42       14F-1       -0.62201   0.00000   0.00000  -0.48187   0.00000
  43       14F+2        0.00000   0.00000  -0.00001   0.00000   0.00000
  44       14F-2        0.00000  -0.78682   0.00000   0.00000   0.00000
  45       14F+3        0.00000   0.00000   0.00000   0.00000  -0.62202
  46       14F-3        0.48187   0.00000   0.00000  -0.62201   0.00000
                          46
                       (A1G)--V
     Eigenvalues --     2.31422
   1 1   Li 1S          1.59130
   2        2S          2.05969
   3        3S          1.23747
   4        4S         -0.85843
   5        5S          0.23266
   6        6PX         0.00000
   7        6PY         0.00000
   8        6PZ         0.00000
   9        7PX         0.00000
  10        7PY         0.00000
  11        7PZ         0.00000
  12        8PX         0.00000
  13        8PY         0.00000
  14        8PZ         0.00000
  15        9PX         0.00000
  16        9PY         0.00000
  17        9PZ         0.00000
  18       10D 0       -0.00000
  19       10D+1        0.00000
  20       10D-1        0.00000
  21       10D+2       -0.00000
  22       10D-2        0.00000
  23       11D 0        0.00000
  24       11D+1        0.00000
  25       11D-1        0.00000
  26       11D+2        0.00000
  27       11D-2        0.00000
  28       12D 0       -0.00000
  29       12D+1        0.00000
  30       12D-1        0.00000
  31       12D+2       -0.00000
  32       12D-2        0.00000
  33       13F 0        0.00000
  34       13F+1        0.00000
  35       13F-1        0.00000
  36       13F+2        0.00000
  37       13F-2        0.00000
  38       13F+3        0.00000
  39       13F-3        0.00000
  40       14F 0        0.00000
  41       14F+1        0.00000
  42       14F-1        0.00000
  43       14F+2        0.00000
  44       14F-2        0.00000
  45       14F+3        0.00000
  46       14F-3        0.00000
     Alpha Density Matrix:
                           1         2         3         4         5
   1 1   Li 1S          0.59457
   2        2S         -0.23441   0.10336
   3        3S         -0.07006   0.09296   0.39811
   4        4S         -0.07621   0.07659   0.28670   0.20761
   5        5S          0.00040   0.00183   0.01182   0.00840   0.00036
   6        6PX         0.00000   0.00000   0.00000   0.00000   0.00000
   7        6PY         0.00000   0.00000   0.00000   0.00000   0.00000
   8        6PZ         0.00000   0.00000   0.00000   0.00000   0.00000
   9        7PX         0.00000   0.00000   0.00000   0.00000   0.00000
  10        7PY         0.00000   0.00000   0.00000   0.00000   0.00000
  11        7PZ         0.00000   0.00000   0.00000   0.00000   0.00000
  12        8PX         0.00000   0.00000   0.00000   0.00000   0.00000
  13        8PY         0.00000   0.00000   0.00000   0.00000   0.00000
[...]
  40       14F 0        0.00000   0.00000   0.00000   0.00000   0.00000
  41       14F+1        0.00000   0.00000   0.00000   0.00000   0.00000
  42       14F-1        0.00000   0.00000   0.00000   0.00000   0.00000
  43       14F+2        0.00000   0.00000   0.00000   0.00000   0.00000
  44       14F-2        0.00000   0.00000   0.00000   0.00000   0.00000
  45       14F+3        0.00000   0.00000   0.00000   0.00000   0.00000
  46       14F-3        0.00000   0.00000   0.00000   0.00000   0.00000
                          21        22        23        24        25
  21       10D+2        0.00000
  22       10D-2        0.00000   0.00000
  23       11D 0        0.00000   0.00000   0.00000
  24       11D+1        0.00000  -0.00000  -0.00000   0.00000
  25       11D-1       -0.00000  -0.00000   0.00000  -0.00000   0.00000
  26       11D+2       -0.00000   0.00000  -0.00000  -0.00000   0.00000
  27       11D-2        0.00000  -0.00000  -0.00000  -0.00000  -0.00000
  28       12D 0        0.00000  -0.00000  -0.00000  -0.00000  -0.00000
  29       12D+1       -0.00000   0.00000  -0.00000  -0.00000  -0.00000
  30       12D-1        0.00000   0.00000  -0.00000   0.00000  -0.00000
  31       12D+2        0.00000   0.00000   0.00000   0.00000  -0.00000
  32       12D-2        0.00000   0.00000   0.00000   0.00000   0.00000
  33       13F 0        0.00000   0.00000   0.00000   0.00000   0.00000
  34       13F+1        0.00000   0.00000   0.00000   0.00000   0.00000
  35       13F-1        0.00000   0.00000   0.00000   0.00000   0.00000
  36       13F+2        0.00000   0.00000   0.00000   0.00000   0.00000
  37       13F-2        0.00000   0.00000   0.00000   0.00000   0.00000
  38       13F+3        0.00000   0.00000   0.00000   0.00000   0.00000
  39       13F-3        0.00000   0.00000   0.00000   0.00000   0.00000
  40       14F 0        0.00000   0.00000   0.00000   0.00000   0.00000
  41       14F+1        0.00000   0.00000   0.00000   0.00000   0.00000
  42       14F-1        0.00000   0.00000   0.00000   0.00000   0.00000
  43       14F+2        0.00000   0.00000   0.00000   0.00000   0.00000
  44       14F-2        0.00000   0.00000   0.00000   0.00000   0.00000
  45       14F+3        0.00000   0.00000   0.00000   0.00000   0.00000
  46       14F-3        0.00000   0.00000   0.00000   0.00000   0.00000
                          26        27        28        29        30
  26       11D+2        0.00000
  27       11D-2        0.00000   0.00000
  28       12D 0        0.00000   0.00000   0.00000
  29       12D+1        0.00000  -0.00000  -0.00000   0.00000
  30       12D-1       -0.00000   0.00000  -0.00000  -0.00000   0.00000
  31       12D+2       -0.00000  -0.00000  -0.00000  -0.00000  -0.00000
  32       12D-2        0.00000  -0.00000  -0.00000   0.00000   0.00000
  33       13F 0        0.00000   0.00000   0.00000   0.00000   0.00000
  34       13F+1        0.00000   0.00000   0.00000   0.00000   0.00000
  35       13F-1        0.00000   0.00000   0.00000   0.00000   0.00000
  36       13F+2        0.00000   0.00000   0.00000   0.00000   0.00000
  37       13F-2        0.00000   0.00000   0.00000   0.00000   0.00000
  38       13F+3        0.00000   0.00000   0.00000   0.00000   0.00000
  39       13F-3        0.00000   0.00000   0.00000   0.00000   0.00000
  40       14F 0        0.00000   0.00000   0.00000   0.00000   0.00000
  41       14F+1        0.00000   0.00000   0.00000   0.00000   0.00000
  42       14F-1        0.00000   0.00000   0.00000   0.00000   0.00000
  43       14F+2        0.00000   0.00000   0.00000   0.00000   0.00000
  44       14F-2        0.00000   0.00000   0.00000   0.00000   0.00000
  45       14F+3        0.00000   0.00000   0.00000   0.00000   0.00000
  46       14F-3        0.00000   0.00000   0.00000   0.00000   0.00000
                          31        32        33        34        35
  31       12D+2        0.00000
  32       12D-2       -0.00000   0.00000
  33       13F 0        0.00000   0.00000   0.00000
  34       13F+1        0.00000   0.00000   0.00000   0.00000
  35       13F-1        0.00000   0.00000   0.00000   0.00000   0.00000
  36       13F+2        0.00000   0.00000   0.00000   0.00000   0.00000
  37       13F-2        0.00000   0.00000   0.00000   0.00000   0.00000
  38       13F+3        0.00000   0.00000   0.00000   0.00000   0.00000
  39       13F-3        0.00000   0.00000   0.00000   0.00000   0.00000
  40       14F 0        0.00000   0.00000   0.00000   0.00000   0.00000
  41       14F+1        0.00000   0.00000   0.00000   0.00000   0.00000
  42       14F-1        0.00000   0.00000   0.00000   0.00000   0.00000
  43       14F+2        0.00000   0.00000   0.00000   0.00000   0.00000
  44       14F-2        0.00000   0.00000   0.00000   0.00000   0.00000
  45       14F+3        0.00000   0.00000   0.00000   0.00000   0.00000
  46       14F-3        0.00000   0.00000   0.00000   0.00000   0.00000
                          36        37        38        39        40
  36       13F+2        0.00000
  37       13F-2        0.00000   0.00000
  38       13F+3        0.00000   0.00000   0.00000
  39       13F-3        0.00000   0.00000   0.00000   0.00000
  40       14F 0        0.00000   0.00000   0.00000   0.00000   0.00000
  41       14F+1        0.00000   0.00000   0.00000   0.00000   0.00000
  42       14F-1        0.00000   0.00000   0.00000   0.00000   0.00000
  43       14F+2        0.00000   0.00000   0.00000   0.00000   0.00000
  44       14F-2        0.00000   0.00000   0.00000   0.00000   0.00000
  45       14F+3        0.00000   0.00000   0.00000   0.00000   0.00000
  46       14F-3        0.00000   0.00000   0.00000   0.00000   0.00000
                          41        42        43        44        45
  41       14F+1        0.00000
  42       14F-1        0.00000   0.00000
  43       14F+2        0.00000   0.00000   0.00000
  44       14F-2        0.00000   0.00000   0.00000   0.00000
  45       14F+3        0.00000   0.00000   0.00000   0.00000   0.00000
  46       14F-3        0.00000   0.00000   0.00000   0.00000   0.00000
                          46
  46       14F-3        0.00000
     Gross orbital populations:
                         Total     Alpha     Beta      Spin
   1 1   Li 1S          1.49729   0.75619   0.74110   0.01509
   2        2S          0.47547   0.22263   0.25284  -0.03020
   3        3S          0.59171   0.58325   0.00846   0.57478
   4        4S          0.42368   0.42635  -0.00267   0.42902
   5        5S          0.01186   0.01158   0.00028   0.01130
   6        6PX         0.00000   0.00000   0.00000   0.00000
   7        6PY         0.00000   0.00000   0.00000   0.00000
   8        6PZ         0.00000   0.00000   0.00000   0.00000
   9        7PX         0.00000   0.00000   0.00000   0.00000
  10        7PY         0.00000   0.00000   0.00000   0.00000
  11        7PZ         0.00000   0.00000   0.00000   0.00000
  12        8PX         0.00000   0.00000   0.00000   0.00000
  13        8PY         0.00000   0.00000   0.00000   0.00000
  14        8PZ         0.00000   0.00000   0.00000   0.00000
  15        9PX         0.00000   0.00000   0.00000   0.00000
  16        9PY         0.00000   0.00000   0.00000   0.00000
  17        9PZ         0.00000   0.00000   0.00000   0.00000
  18       10D 0       -0.00000  -0.00000   0.00000  -0.00000
  19       10D+1       -0.00000  -0.00000   0.00000  -0.00000
  20       10D-1        0.00000  -0.00000   0.00000  -0.00000
  21       10D+2       -0.00000  -0.00000   0.00000  -0.00000
  22       10D-2        0.00000  -0.00000   0.00000  -0.00000
  23       11D 0        0.00000   0.00000   0.00000   0.00000
  24       11D+1        0.00000   0.00000   0.00000   0.00000
  25       11D-1        0.00000   0.00000   0.00000   0.00000
  26       11D+2        0.00000   0.00000   0.00000   0.00000
  27       11D-2        0.00000   0.00000   0.00000   0.00000
  28       12D 0        0.00000   0.00000   0.00000   0.00000
  29       12D+1        0.00000   0.00000   0.00000   0.00000
  30       12D-1        0.00000   0.00000   0.00000   0.00000
  31       12D+2        0.00000   0.00000   0.00000   0.00000
  32       12D-2        0.00000   0.00000   0.00000   0.00000
  33       13F 0        0.00000   0.00000   0.00000   0.00000
  34       13F+1        0.00000   0.00000   0.00000   0.00000
  35       13F-1        0.00000   0.00000   0.00000   0.00000
  36       13F+2        0.00000   0.00000   0.00000   0.00000
  37       13F-2        0.00000   0.00000   0.00000   0.00000
  38       13F+3        0.00000   0.00000   0.00000   0.00000
  39       13F-3        0.00000   0.00000   0.00000   0.00000
  40       14F 0        0.00000   0.00000   0.00000   0.00000
  41       14F+1        0.00000   0.00000   0.00000   0.00000
  42       14F-1        0.00000   0.00000   0.00000   0.00000
  43       14F+2        0.00000   0.00000   0.00000   0.00000
  44       14F-2        0.00000   0.00000   0.00000   0.00000
  45       14F+3        0.00000   0.00000   0.00000   0.00000
  46       14F-3        0.00000   0.00000   0.00000   0.00000
          Condensed to atoms (all electrons):
               1
     1  Li   3.000000
          Atomic-Atomic Spin Densities.
               1
     1  Li   1.000000
 Mulliken charges and spin densities:
               1          2
     1  Li  -0.000000   1.000000
 Sum of Mulliken charges =  -0.00000   1.00000
 Mulliken charges and spin densities with hydrogens summed into heavy atoms:
               1          2
     1  Li  -0.000000   1.000000
 Electronic spatial extent (au):  <R**2>=             17.8094
 Charge=             -0.0000 electrons
 Dipole moment (field-independent basis, Debye):
    X=              0.0000    Y=              0.0000    Z=              0.0000  Tot=              0.0000
 Quadrupole moment (field-independent basis, Debye-Ang):
   XX=             -7.9848   YY=             -7.9848   ZZ=             -7.9848
   XY=              0.0000   XZ=              0.0000   YZ=              0.0000
 Traceless Quadrupole moment (field-independent basis, Debye-Ang):
   XX=              0.0000   YY=              0.0000   ZZ=              0.0000
   XY=              0.0000   XZ=              0.0000   YZ=              0.0000
 Octapole moment (field-independent basis, Debye-Ang**2):
  XXX=              0.0000  YYY=              0.0000  ZZZ=              0.0000  XYY=              0.0000
  XXY=              0.0000  XXZ=              0.0000  XZZ=              0.0000  YZZ=              0.0000
  YYZ=              0.0000  XYZ=              0.0000
 Hexadecapole moment (field-independent basis, Debye-Ang**3):
 XXXX=            -39.6065 YYYY=            -39.6065 ZZZZ=            -39.6065 XXXY=              0.0000
 XXXZ=              0.0000 YYYX=              0.0000 YYYZ=              0.0000 ZZZX=              0.0000
 ZZZY=              0.0000 XXYY=            -13.2022 XXZZ=            -13.2022 YYZZ=            -13.2022
 XXYZ=              0.0000 YYXZ=              0.0000 ZZXY=              0.0000
 N-N= 0.000000000000D+00 E-N=-1.712543459870D+01  KE= 7.402442767716D+00
 Symmetry AG   KE= 7.402442767716D+00
 Symmetry B1G  KE= 8.842915122745D-63
 Symmetry B2G  KE= 9.795978250789D-63
 Symmetry B3G  KE= 7.062512375913D-63
 Symmetry AU   KE= 0.000000000000D+00
 Symmetry B1U  KE= 0.000000000000D+00
 Symmetry B2U  KE= 0.000000000000D+00
 Symmetry B3U  KE= 0.000000000000D+00
 Symmetry AG   SP= 1.000000000000D+00
 Symmetry B1G  SP= 1.280911730574D-62
 Symmetry B2G  SP= 1.585092621789D-62
 Symmetry B3G  SP= 9.233445407906D-63
 Symmetry AU   SP= 0.000000000000D+00
 Symmetry B1U  SP= 0.000000000000D+00
 Symmetry B2U  SP= 0.000000000000D+00
 Symmetry B3U  SP= 0.000000000000D+00
 Orbital energies and kinetic energies (alpha):
                                 1                 2
   1         (A1G)--O         -2.031704          3.589056
   2         (A1G)--O         -0.134106          0.245827
   3         (T1U)--V         -0.031911          0.127069
   4         (T1U)--V         -0.031911          0.127069
   5         (T1U)--V         -0.031911          0.127069
   6         (A1G)--V          0.001217          0.049185
   7         (T1U)--V          0.013636          0.054452
   8         (T1U)--V          0.013636          0.054452
   9         (T1U)--V          0.013636          0.054452
  10         (T2G)--V          0.059113          0.118934
  11         (T2G)--V          0.059113          0.118934
  12         (T2G)--V          0.059113          0.118934
  13         (EG)--V           0.059113          0.118934
  14         (EG)--V           0.059113          0.118934
  15         (T1U)--V          0.079739          0.190624
  16         (T1U)--V          0.079739          0.190624
  17         (T1U)--V          0.079739          0.190624
  18         (A1G)--V          0.098921          0.349489
  19         (T2G)--V          0.230698          0.352972
  20         (T2G)--V          0.230698          0.352972
  21         (T2G)--V          0.230698          0.352972
  22         (EG)--V           0.230698          0.352972
  23         (EG)--V           0.230698          0.352972
  24         (T2U)--V          0.248811          0.337295
  25         (T2U)--V          0.248811          0.337295
  26         (T2U)--V          0.248811          0.337295
  27         (A2U)--V          0.248811          0.337295
  28         (T1U)--V          0.248811          0.337295
  29         (T1U)--V          0.248811          0.337295
  30         (T1U)--V          0.248811          0.337295
  31         (T1U)--V          0.336233          0.758951
  32         (T1U)--V          0.336233          0.758951
  33         (T1U)--V          0.336233          0.758951
  34         (T2G)--V          0.676890          0.933815
  35         (T2G)--V          0.676890          0.933815
  36         (T2G)--V          0.676890          0.933815
  37         (EG)--V           0.676890          0.933815
  38         (EG)--V           0.676890          0.933815
  39         (T2U)--V          0.806282          1.014469
  40         (T2U)--V          0.806282          1.014469
  41         (T2U)--V          0.806282          1.014469
  42         (A2U)--V          0.806282          1.014469
  43         (T1U)--V          0.806282          1.014469
  44         (T1U)--V          0.806282          1.014469
  45         (T1U)--V          0.806282          1.014469
  46         (A1G)--V          2.303253          7.127241
 Orbital energies and kinetic energies (beta):
                                 1                 2
   1         (A1G)--O         -2.022462          3.567559
   2         (A1G)--V         -0.054672          0.204574
   3         (T1U)--V         -0.003321          0.063836
   4         (T1U)--V         -0.003321          0.063836
   5         (T1U)--V         -0.003321          0.063836
   6         (A1G)--V          0.008593          0.067457
   7         (T1U)--V          0.023088          0.090204
   8         (T1U)--V          0.023088          0.090204
   9         (T1U)--V          0.023088          0.090204
  10         (T2G)--V          0.074676          0.113821
  11         (T2G)--V          0.074676          0.113821
  12         (T2G)--V          0.074676          0.113821
  13         (EG)--V           0.074676          0.113821
  14         (EG)--V           0.074676          0.113821
  15         (T1U)--V          0.095491          0.227409
  16         (T1U)--V          0.095491          0.227409
  17         (T1U)--V          0.095491          0.227409
  18         (A1G)--V          0.119494          0.389781
  19         (T2G)--V          0.265035          0.355960
  20         (T2G)--V          0.265035          0.355960
  21         (T2G)--V          0.265035          0.355960
  22         (EG)--V           0.265035          0.355960
  23         (EG)--V           0.265035          0.355960
  24         (T2U)--V          0.281208          0.336488
  25         (T2U)--V          0.281208          0.336488
  26         (T2U)--V          0.281208          0.336488
  27         (A2U)--V          0.281208          0.336488
  28         (T1U)--V          0.281208          0.336488
  29         (T1U)--V          0.281208          0.336488
  30         (T1U)--V          0.281208          0.336488
  31         (T1U)--V          0.349304          0.749647
  32         (T1U)--V          0.349304          0.749647
  33         (T1U)--V          0.349304          0.749647
  34         (T2G)--V          0.708412          0.935939
  35         (T2G)--V          0.708412          0.935939
  36         (T2G)--V          0.708412          0.935939
  37         (EG)--V           0.708412          0.935939
  38         (EG)--V           0.708412          0.935939
  39         (T2U)--V          0.849455          1.015276
  40         (T2U)--V          0.849455          1.015276
  41         (T2U)--V          0.849455          1.015276
  42         (A2U)--V          0.849455          1.015276
  43         (T1U)--V          0.849455          1.015276
  44         (T1U)--V          0.849455          1.015276
  45         (T1U)--V          0.849455          1.015276
  46         (A1G)--V          2.314221          7.131427
 Total kinetic energy from orbitals= 7.402442767716D+00
                          Isotropic Fermi Contact Couplings
        Atom                 a.u.       MegaHertz       Gauss      10(-4) cm-1
     1  Li(7)              0.26842     466.32722     166.39715     155.55002
 --------------------------------------------------------
       Center         ----  Spin Dipole Couplings  ----
                      3XX-RR        3YY-RR        3ZZ-RR
 --------------------------------------------------------
     1   Atom       -0.000000     -0.000000     -0.000000
 --------------------------------------------------------
                        XY            XZ            YZ
 --------------------------------------------------------
     1   Atom        0.000000      0.000000      0.000000
 --------------------------------------------------------


 ---------------------------------------------------------------------------------
              Anisotropic Spin Dipole Couplings in Principal Axis System
 ---------------------------------------------------------------------------------

       Atom             a.u.   MegaHertz   Gauss  10(-4) cm-1        Axes

              Baa    -0.0000    -0.000    -0.000    -0.000  1.0000  0.0000  0.0000
     1 Li(7)  Bbb    -0.0000    -0.000    -0.000    -0.000 -0.0000  1.0000  0.0000
              Bcc    -0.0000    -0.000    -0.000    -0.000  0.0000  0.0000  1.0000
 

 ---------------------------------------------------------------------------------

 1\1\GINC-LOGIN\SP\UB3LYP\Aug-CC-pVTZ\Li1(2)\C7441090\20-Nov-2023\0\\# 
 B3LYP/aug-cc-pVTZ EmpiricalDispersion=GD3 Pop=Full\\Lithium\\0,2\Li,0,
 0.,0.,0.\\Version=ES64L-G16RevA.03\State=2-A1G\HF=-7.4920544\S2=0.7500
 07\S2-1=0.\S2A=0.75\RMSD=8.378e-09\Dipole=0.,0.,0.\Quadrupole=0.,0.,0.
 ,0.,0.,0.\PG=OH [O(Li1)]\\@


 I (ERNEST RUTHERFORD) CAME INTO THE ROOM, WHICH WAS HALF DARK, AND PRESENTLY
 SPOTTED LORD KELVIN IN THE AUDIENCE AND REALIZED I WAS IN TROUBLE AT
 THE LAST PART OF MY SPEECH DEALING THE AGE OF THE EARTH, WHERE MY VIEWS
 CONFLICTED WITH HIS.  TO MY RELIEF KELVIN FELL FAST ASLEEP, BUT AS I CAME
 TO THE IMPORTANT POINT, I SAW THE OLD BIRD SIT UP AND COCK A BALEFUL GLANCE
 AT ME! THEN A SUDDEN INSPIRATION CAME AND I SAID LORD KELVIN HAD LIMITED
 THE AGE OF THE EARTH PROVIDED NO NEW SOURCE WAS DISCOVERED. THAT
 PROPHETIC UTTERANCE REFERS TO WHAT WE ARE NOW CONSIDERING TONIGHT, RADIUM!
 BEHOLD!  THE OLD BOY BEAMED UPON ME.
 Job cpu time:       0 days  0 hours  0 minutes  7.3 seconds.
 Elapsed time:       0 days  0 hours  0 minutes  3.2 seconds.
 File lengths (MBytes):  RWF=      5 Int=      0 D2E=      0 Chk=      1 Scr=      1
 Normal termination of Gaussian 16 at Mon Nov 20 23:51:56 2023.
