Magnesium                                                               
SP        RB3LYP                                                      Aug-CC-pVTZ         
Number of atoms                            I                1
Info1-9                                    I   N=           9
          12          11           0           0           0         110
           1          18        -502
Full Title                                 C   N=           1
Magnesium   
Route                                      C   N=           5
# B3LYP/aug-cc-pVTZ EmpiricalDispersion=GD3 Pop=Full        
Charge                                     I                0
Multiplicity                               I                1
Number of electrons                        I               12
Number of alpha electrons                  I                6
Number of beta electrons                   I                6
Number of basis functions                  I               50
Number of independent functions            I               50
Number of point charges in /Mol/           I                0
Number of translation vectors              I                0
Atomic numbers                             I   N=           1
          12
Nuclear charges                            R   N=           1
  1.20000000E+01
Current cartesian coordinates              R   N=           3
  0.00000000E+00  0.00000000E+00  0.00000000E+00
Number of symbols in /Mol/                 I                0
Force Field                                I                0
Atom Types                                 C   N=           1
            
Int Atom Types                             I   N=           1
           0
MM charges                                 R   N=           1
  0.00000000E+00
Integer atomic weights                     I   N=           1
          24
Real atomic weights                        R   N=           1
  2.39850450E+01
Atom fragment info                         I   N=           1
           0
Atom residue num                           I   N=           1
           0
Nuclear spins                              I   N=           1
           0
Nuclear ZEff                               R   N=           1
 -1.08000000E+01
Nuclear ZNuc                               R   N=           1
  1.20000000E+01
Nuclear QMom                               R   N=           1
  0.00000000E+00
Nuclear GFac                               R   N=           1
  0.00000000E+00
MicOpt                                     I   N=           1
          -1
Number of residues                         I                0
Number of secondary structures             I                0
SymInf integers                            I   N=          26
           1           8           1           1           1           1
          -1          -1          -1           1          -1          -1
          -1           1          -1          -1          -1          -1
           1           1           1          -1           1           1
           1          -1
RotTr to input orientation                 R   N=          12
  0.00000000E+00  0.00000000E+00 -1.00000000E+00  0.00000000E+00  1.00000000E+00
  0.00000000E+00  1.00000000E+00  0.00000000E+00  0.00000000E+00  0.00000000E+00
  0.00000000E+00  0.00000000E+00
Number of contracted shells                I               16
Number of primitive shells                 I               52
Pure/Cartesian d shells                    I                0
Pure/Cartesian f shells                    I                0
Highest angular momentum                   I                3
Largest degree of contraction              I               11
Shell types                                I   N=          16
           0           0           0           0           0           0
           1           1           1           1           1          -2
          -2          -2          -3          -3
Number of primitives per shell             I   N=          16
          11           9           8           1           1           1
           7           6           1           1           1           1
           1           1           1           1
Shell to atom map                          I   N=          16
           1           1           1           1           1           1
           1           1           1           1           1           1
           1           1           1           1
Primitive exponents                        R   N=          52
  1.64900000E+05  2.47100000E+04  5.62800000E+03  1.59600000E+03  5.21000000E+02
  1.88000000E+02  7.30100000E+01  2.99000000E+01  1.25400000E+01  4.30600000E+00
  7.41700000E-01  1.59600000E+03  5.21000000E+02  1.88000000E+02  7.30100000E+01
  2.99000000E+01  1.25400000E+01  4.30600000E+00  1.82600000E+00  7.41700000E-01
  5.21000000E+02  7.30100000E+01  2.99000000E+01  1.25400000E+01  4.30600000E+00
  1.82600000E+00  7.41700000E-01  7.61200000E-02  1.45700000E-01  3.31000000E-02
  1.35722000E-02  3.16900000E+02  7.48600000E+01  2.37200000E+01  8.66900000E+00
  3.36300000E+00  1.31000000E+00  4.91100000E-01  2.37200000E+01  8.66900000E+00
  3.36300000E+00  1.31000000E+00  4.91100000E-01  2.36400000E-01  8.73300000E-02
  3.23700000E-02  9.17220000E-03  1.26000000E-01  2.94000000E-01  2.51111500E-02
  2.52000000E-01  6.75195100E-02
Contraction coefficients                   R   N=          52
  7.28466398E-05  5.65513077E-04  2.95674684E-03  1.22712584E-02  4.26447977E-02
  1.22747243E-01  2.74181463E-01  4.00575860E-01  2.63515845E-01  3.47033568E-02
  5.02775152E-03 -3.59277171E-05 -2.43898141E-04 -2.46708326E-03 -1.28684782E-02
 -5.65733151E-02 -8.41964467E-02  1.95040845E-01  5.66214672E-01  3.61868504E-01
  5.33037866E-06  2.44021607E-04  8.85384898E-04  3.09102919E-03 -1.14163958E-02
 -7.04172760E-02 -2.87048377E-01  1.09153599E+00  1.00000000E+00  1.00000000E+00
  1.00000000E+00  2.07466581E-03  1.62817691E-02  7.38420598E-02  2.14205261E-01
  3.81952178E-01  3.97874372E-01  1.52500065E-01 -1.08371918E-03 -6.01912947E-03
 -2.02461930E-02 -4.43239486E-02 -8.20572701E-02  1.08848059E+00  1.00000000E+00
  1.00000000E+00  1.00000000E+00  1.00000000E+00  1.00000000E+00  1.00000000E+00
  1.00000000E+00  1.00000000E+00
Coordinates of each shell                  R   N=          48
  0.00000000E+00  0.00000000E+00  0.00000000E+00  0.00000000E+00  0.00000000E+00
  0.00000000E+00  0.00000000E+00  0.00000000E+00  0.00000000E+00  0.00000000E+00
  0.00000000E+00  0.00000000E+00  0.00000000E+00  0.00000000E+00  0.00000000E+00
  0.00000000E+00  0.00000000E+00  0.00000000E+00  0.00000000E+00  0.00000000E+00
  0.00000000E+00  0.00000000E+00  0.00000000E+00  0.00000000E+00  0.00000000E+00
  0.00000000E+00  0.00000000E+00  0.00000000E+00  0.00000000E+00  0.00000000E+00
  0.00000000E+00  0.00000000E+00  0.00000000E+00  0.00000000E+00  0.00000000E+00
  0.00000000E+00  0.00000000E+00  0.00000000E+00  0.00000000E+00  0.00000000E+00
  0.00000000E+00  0.00000000E+00  0.00000000E+00  0.00000000E+00  0.00000000E+00
  0.00000000E+00  0.00000000E+00  0.00000000E+00
Num ILSW                                   I              100
ILSW                                       I   N=         100
           0           0           0           0           2           0
           0           0           0           0         402          -1
           5           0           0           0           0           0
           0           0           1           0           0           0
           1           0           0           0           0           0
           0           0      100000           0          -1           0
           0           0           0           0           0           0
           0           0           0           1           0           0
           0 -2000000000           1           0           0           0
           0           0         131          52           0           0
           0           0           5           0           0           0
           0           0           0           0           0           1
           0           0           0           0           0           0
           0           0           0           0           0           0
           0           0           0           0           0           0
           0           0           0           0           0           0
           0           0           0           0
Num RLSW                                   I               52
RLSW                                       R   N=          52
  8.00000000E-01  7.20000000E-01  1.00000000E+00  8.10000000E-01  2.00000000E-01
  0.00000000E+00  0.00000000E+00  1.00000000E+00  0.00000000E+00  0.00000000E+00
  0.00000000E+00  0.00000000E+00  1.00000000E+00  0.00000000E+00  0.00000000E+00
  0.00000000E+00  0.00000000E+00  1.00000000E+00  0.00000000E+00  0.00000000E+00
  0.00000000E+00  0.00000000E+00  1.00000000E+00  0.00000000E+00  0.00000000E+00
  0.00000000E+00  0.00000000E+00  1.00000000E+00  0.00000000E+00  0.00000000E+00
  0.00000000E+00  0.00000000E+00  1.00000000E+00  0.00000000E+00  0.00000000E+00
  0.00000000E+00  0.00000000E+00  0.00000000E+00  1.00000000E+00  1.00000000E+00
  0.00000000E+00  1.00000000E+00  0.00000000E+00  0.00000000E+00  0.00000000E+00
  0.00000000E+00  0.00000000E+00  0.00000000E+00  0.00000000E+00  0.00000000E+00
  0.00000000E+00  0.00000000E+00
MxBond                                     I                1
NBond                                      I   N=           1
           0
IBond                                      I   N=           1
           0
RBond                                      R   N=           1
  0.00000000E+00
Virial Ratio                               R      2.004435550290027E+00
SCF Energy                                 R     -2.000977526216342E+02
Total Energy                               R     -2.000977526216342E+02
RMS Density                                R      1.570052460975388E-10
Job Status                                 I                1
Nuclear derivative order                   I                0
External E-field                           R   N=          35
  0.00000000E+00  0.00000000E+00  0.00000000E+00  0.00000000E+00  0.00000000E+00
  0.00000000E+00  0.00000000E+00  0.00000000E+00  0.00000000E+00  0.00000000E+00
  0.00000000E+00  0.00000000E+00  0.00000000E+00  0.00000000E+00  0.00000000E+00
  0.00000000E+00  0.00000000E+00  0.00000000E+00  0.00000000E+00  0.00000000E+00
  0.00000000E+00  0.00000000E+00  0.00000000E+00  0.00000000E+00  0.00000000E+00
  0.00000000E+00  0.00000000E+00  0.00000000E+00  0.00000000E+00  0.00000000E+00
  0.00000000E+00  0.00000000E+00  0.00000000E+00  0.00000000E+00  0.00000000E+00
IOpCl                                      I                0
IROHF                                      I                0
Alpha Orbital Energies                     R   N=          50
 -4.68353085E+01 -3.10263144E+00 -1.84646810E+00 -1.84646810E+00 -1.84646810E+00
 -1.94574178E-01 -3.38326240E-02 -3.38326240E-02 -3.38326240E-02  4.93737900E-03
  1.83278131E-02  1.83278131E-02  1.83278131E-02  4.32879556E-02  4.32879556E-02
  4.32879556E-02  4.32879556E-02  4.32879556E-02  1.29909960E-01  1.29909960E-01
  1.29909960E-01  1.36010809E-01  2.14084028E-01  2.14084028E-01  2.14084028E-01
  2.14084028E-01  2.14084028E-01  2.14084028E-01  2.14084028E-01  2.42797467E-01
  2.42797467E-01  2.42797467E-01  2.42797467E-01  2.42797467E-01  5.71011057E-01
  5.71011057E-01  5.71011057E-01  8.20671532E-01  8.20671532E-01  8.20671532E-01
  8.20671532E-01  8.20671532E-01  9.01358349E-01  9.01358349E-01  9.01358349E-01
  9.01358349E-01  9.01358349E-01  9.01358349E-01  9.01358349E-01  1.08157547E+00
Alpha MO coefficients                      R   N=        2500
  1.00185632E+00 -4.97164982E-03  5.93185563E-03 -4.44557842E-03 -4.07487590E-03
  1.30027431E-03  0.00000000E+00  0.00000000E+00  0.00000000E+00  0.00000000E+00
  0.00000000E+00  0.00000000E+00  0.00000000E+00  0.00000000E+00  0.00000000E+00
  0.00000000E+00  0.00000000E+00  0.00000000E+00  0.00000000E+00  0.00000000E+00
  0.00000000E+00 -3.67956917E-16  0.00000000E+00  0.00000000E+00  4.19611902E-16
  0.00000000E+00  7.47015155E-16  0.00000000E+00  0.00000000E+00 -1.21247060E-15
  0.00000000E+00  4.18830844E-17  0.00000000E+00  0.00000000E+00  2.40376455E-17
  0.00000000E+00  0.00000000E+00  0.00000000E+00  0.00000000E+00  0.00000000E+00
  0.00000000E+00  0.00000000E+00  0.00000000E+00  0.00000000E+00  0.00000000E+00
  0.00000000E+00  0.00000000E+00  0.00000000E+00  0.00000000E+00  0.00000000E+00
 -2.52752418E-01  1.00345629E+00 -4.37537414E-02  5.53477433E-02  2.22364089E-02
 -6.20701280E-03  0.00000000E+00  0.00000000E+00  0.00000000E+00  0.00000000E+00
  0.00000000E+00  0.00000000E+00  0.00000000E+00  0.00000000E+00  0.00000000E+00
  0.00000000E+00  0.00000000E+00  0.00000000E+00  0.00000000E+00  0.00000000E+00
  0.00000000E+00  6.06762009E-16  0.00000000E+00  0.00000000E+00  5.38559497E-16
  0.00000000E+00 -4.92436022E-16  0.00000000E+00  0.00000000E+00 -1.39627180E-15
  0.00000000E+00 -1.56868632E-16  0.00000000E+00  0.00000000E+00  2.96064343E-17
  0.00000000E+00  0.00000000E+00  0.00000000E+00  0.00000000E+00  0.00000000E+00
  0.00000000E+00  0.00000000E+00  0.00000000E+00  0.00000000E+00  0.00000000E+00
  0.00000000E+00  0.00000000E+00  0.00000000E+00  0.00000000E+00  0.00000000E+00
  0.00000000E+00  0.00000000E+00  0.00000000E+00  0.00000000E+00  0.00000000E+00
  0.00000000E+00  9.97111864E-01  0.00000000E+00  0.00000000E+00  8.61383186E-03
  0.00000000E+00  0.00000000E+00  1.49947121E-03  0.00000000E+00  0.00000000E+00
 -1.26217098E-04  0.00000000E+00  0.00000000E+00  5.04257588E-07  0.00000000E+00
  0.00000000E+00  0.00000000E+00  0.00000000E+00  0.00000000E+00  0.00000000E+00
  0.00000000E+00  0.00000000E+00  0.00000000E+00  0.00000000E+00  0.00000000E+00
  0.00000000E+00  0.00000000E+00  0.00000000E+00  0.00000000E+00  0.00000000E+00
  0.00000000E+00  0.00000000E+00  1.06752317E-13  0.00000000E+00  0.00000000E+00
  0.00000000E+00 -1.36633399E-13  0.00000000E+00  0.00000000E+00 -8.27003105E-15
  0.00000000E+00  0.00000000E+00  0.00000000E+00  1.04364088E-14  0.00000000E+00
  0.00000000E+00  0.00000000E+00  0.00000000E+00  0.00000000E+00  0.00000000E+00
  0.00000000E+00  0.00000000E+00  9.97111864E-01  0.00000000E+00  0.00000000E+00
  8.61383186E-03  0.00000000E+00  0.00000000E+00  1.49947121E-03  0.00000000E+00
  0.00000000E+00 -1.26217098E-04  0.00000000E+00  0.00000000E+00  5.04257589E-07
  0.00000000E+00  0.00000000E+00  0.00000000E+00  0.00000000E+00  0.00000000E+00
  0.00000000E+00  0.00000000E+00  0.00000000E+00  0.00000000E+00  0.00000000E+00
  0.00000000E+00  0.00000000E+00  0.00000000E+00  0.00000000E+00  0.00000000E+00
  0.00000000E+00  0.00000000E+00  0.00000000E+00  1.06782629E-13  0.00000000E+00
  0.00000000E+00  0.00000000E+00  1.37106793E-13  0.00000000E+00  0.00000000E+00
 -8.80172258E-15  0.00000000E+00  0.00000000E+00  0.00000000E+00 -1.03334411E-14
  0.00000000E+00  0.00000000E+00  0.00000000E+00  0.00000000E+00  0.00000000E+00
  0.00000000E+00  0.00000000E+00  0.00000000E+00  9.97111864E-01  0.00000000E+00
  0.00000000E+00  8.61383186E-03  0.00000000E+00  0.00000000E+00  1.49947121E-03
  0.00000000E+00  0.00000000E+00 -1.26217098E-04  0.00000000E+00  0.00000000E+00
  5.04257588E-07  0.00000000E+00  0.00000000E+00  0.00000000E+00  0.00000000E+00
  0.00000000E+00  0.00000000E+00  0.00000000E+00  0.00000000E+00  0.00000000E+00
  0.00000000E+00  0.00000000E+00  0.00000000E+00  0.00000000E+00  0.00000000E+00
  0.00000000E+00 -1.73660963E-13  0.00000000E+00  0.00000000E+00  5.08249657E-17
  0.00000000E+00  0.00000000E+00  0.00000000E+00  1.33113106E-14  0.00000000E+00
  0.00000000E+00 -1.42852202E-16  0.00000000E+00  0.00000000E+00  0.00000000E+00
  5.34472743E-02 -2.49270438E-01  4.56210813E-01  3.43425873E-01  3.05351600E-01
 -5.50494082E-03  0.00000000E+00  0.00000000E+00  0.00000000E+00  0.00000000E+00
  0.00000000E+00  0.00000000E+00  0.00000000E+00  0.00000000E+00  0.00000000E+00
  0.00000000E+00  0.00000000E+00  0.00000000E+00  0.00000000E+00  0.00000000E+00
  0.00000000E+00  2.68111998E-15  0.00000000E+00  0.00000000E+00  2.78621620E-16
  0.00000000E+00 -1.65542235E-15  0.00000000E+00  0.00000000E+00  4.56401519E-16
  0.00000000E+00 -1.09507688E-15  0.00000000E+00  0.00000000E+00 -8.41006592E-17
  0.00000000E+00  0.00000000E+00  0.00000000E+00  0.00000000E+00  0.00000000E+00
  0.00000000E+00  0.00000000E+00  0.00000000E+00  0.00000000E+00  0.00000000E+00
  0.00000000E+00  0.00000000E+00  0.00000000E+00  0.00000000E+00  0.00000000E+00
  0.00000000E+00  0.00000000E+00  0.00000000E+00  0.00000000E+00  0.00000000E+00
  0.00000000E+00  0.00000000E+00 -1.32834174E-01  0.00000000E+00  0.00000000E+00
  1.34740244E-01  0.00000000E+00  0.00000000E+00  3.57356402E-01  0.00000000E+00
  0.00000000E+00  5.24764945E-01  0.00000000E+00  0.00000000E+00  1.82142732E-01
  0.00000000E+00  0.00000000E+00  0.00000000E+00  0.00000000E+00  0.00000000E+00
  0.00000000E+00  0.00000000E+00  0.00000000E+00  0.00000000E+00  0.00000000E+00
  0.00000000E+00  0.00000000E+00  0.00000000E+00  0.00000000E+00  0.00000000E+00
  0.00000000E+00  0.00000000E+00  0.00000000E+00  3.55876753E-12  0.00000000E+00
  0.00000000E+00  0.00000000E+00  4.59600940E-12  0.00000000E+00  0.00000000E+00
  1.40966347E-11  0.00000000E+00  0.00000000E+00  0.00000000E+00  1.82004499E-11
  0.00000000E+00  0.00000000E+00  0.00000000E+00  0.00000000E+00  0.00000000E+00
  0.00000000E+00 -1.32834174E-01  0.00000000E+00  0.00000000E+00  1.34740244E-01
  0.00000000E+00  0.00000000E+00  3.57356402E-01  0.00000000E+00  0.00000000E+00
  5.24764945E-01  0.00000000E+00  0.00000000E+00  1.82142732E-01  0.00000000E+00
  0.00000000E+00  0.00000000E+00  0.00000000E+00  0.00000000E+00  0.00000000E+00
  0.00000000E+00  0.00000000E+00  0.00000000E+00  0.00000000E+00  0.00000000E+00
  0.00000000E+00  0.00000000E+00  0.00000000E+00  0.00000000E+00  0.00000000E+00
  0.00000000E+00  0.00000000E+00  3.55846959E-12  0.00000000E+00  0.00000000E+00
  0.00000000E+00 -4.59625029E-12  0.00000000E+00  0.00000000E+00  1.40971174E-11
  0.00000000E+00  0.00000000E+00  0.00000000E+00 -1.81993802E-11  0.00000000E+00
  0.00000000E+00  0.00000000E+00  0.00000000E+00  0.00000000E+00  0.00000000E+00
  0.00000000E+00  0.00000000E+00  0.00000000E+00 -1.32834174E-01  0.00000000E+00
  0.00000000E+00  1.34740244E-01  0.00000000E+00  0.00000000E+00  3.57356402E-01
  0.00000000E+00  0.00000000E+00  5.24764945E-01  0.00000000E+00  0.00000000E+00
  1.82142732E-01  0.00000000E+00  0.00000000E+00  0.00000000E+00  0.00000000E+00
  0.00000000E+00  0.00000000E+00  0.00000000E+00  0.00000000E+00  0.00000000E+00
  0.00000000E+00  0.00000000E+00  0.00000000E+00  0.00000000E+00  0.00000000E+00
  0.00000000E+00 -5.81332603E-12  0.00000000E+00  0.00000000E+00 -5.84511477E-17
  0.00000000E+00  0.00000000E+00  0.00000000E+00 -2.30183147E-11  0.00000000E+00
  0.00000000E+00  1.07958264E-15  0.00000000E+00  0.00000000E+00  0.00000000E+00
 -1.74165492E-02  1.03188758E-01 -1.01589165E-01 -1.49028982E-01 -1.04962083E+00
  1.75275615E+00  0.00000000E+00  0.00000000E+00  0.00000000E+00  0.00000000E+00
  0.00000000E+00  0.00000000E+00  0.00000000E+00  0.00000000E+00  0.00000000E+00
  0.00000000E+00  0.00000000E+00  0.00000000E+00  0.00000000E+00  0.00000000E+00
  0.00000000E+00 -3.96652195E-15  0.00000000E+00  0.00000000E+00 -5.52360682E-15
  0.00000000E+00  1.93456042E-15  0.00000000E+00  0.00000000E+00  1.23453722E-15
  0.00000000E+00  1.31269762E-15  0.00000000E+00  0.00000000E+00  3.71869746E-15
  0.00000000E+00  0.00000000E+00  0.00000000E+00  0.00000000E+00  0.00000000E+00
  0.00000000E+00  0.00000000E+00  0.00000000E+00  0.00000000E+00  0.00000000E+00
  0.00000000E+00  0.00000000E+00  0.00000000E+00  0.00000000E+00  0.00000000E+00
  0.00000000E+00  0.00000000E+00  0.00000000E+00  0.00000000E+00  0.00000000E+00
  0.00000000E+00  0.00000000E+00  7.01962945E-02  0.00000000E+00  0.00000000E+00
 -9.70247610E-02  0.00000000E+00  0.00000000E+00 -1.26448524E-01  0.00000000E+00
  0.00000000E+00 -6.09806060E-01  0.00000000E+00  0.00000000E+00  1.20676608E+00
  0.00000000E+00  0.00000000E+00  0.00000000E+00  0.00000000E+00  0.00000000E+00
  0.00000000E+00  0.00000000E+00  0.00000000E+00  0.00000000E+00  0.00000000E+00
  0.00000000E+00  0.00000000E+00  0.00000000E+00  0.00000000E+00  0.00000000E+00
  0.00000000E+00  0.00000000E+00  0.00000000E+00 -2.03258180E-12  0.00000000E+00
  0.00000000E+00  0.00000000E+00 -2.62502744E-12  0.00000000E+00  0.00000000E+00
 -5.40988777E-12  0.00000000E+00  0.00000000E+00  0.00000000E+00 -6.98437569E-12
  0.00000000E+00  0.00000000E+00  0.00000000E+00  0.00000000E+00  0.00000000E+00
  0.00000000E+00  0.00000000E+00  0.00000000E+00  7.01962945E-02  0.00000000E+00
  0.00000000E+00 -9.70247610E-02  0.00000000E+00  0.00000000E+00 -1.26448524E-01
  0.00000000E+00  0.00000000E+00 -6.09806060E-01  0.00000000E+00  0.00000000E+00
  1.20676608E+00  0.00000000E+00  0.00000000E+00  0.00000000E+00  0.00000000E+00
  0.00000000E+00  0.00000000E+00  0.00000000E+00  0.00000000E+00  0.00000000E+00
  0.00000000E+00  0.00000000E+00  0.00000000E+00  0.00000000E+00  0.00000000E+00
  0.00000000E+00  3.32061091E-12  0.00000000E+00  0.00000000E+00  1.50602631E-17
  0.00000000E+00  0.00000000E+00  0.00000000E+00  8.83014621E-12  0.00000000E+00
  0.00000000E+00 -8.51948430E-16  0.00000000E+00  0.00000000E+00  0.00000000E+00
  0.00000000E+00  0.00000000E+00  0.00000000E+00  0.00000000E+00  0.00000000E+00
  0.00000000E+00  7.01962945E-02  0.00000000E+00  0.00000000E+00 -9.70247610E-02
  0.00000000E+00  0.00000000E+00 -1.26448524E-01  0.00000000E+00  0.00000000E+00
 -6.09806060E-01  0.00000000E+00  0.00000000E+00  1.20676608E+00  0.00000000E+00
  0.00000000E+00  0.00000000E+00  0.00000000E+00  0.00000000E+00  0.00000000E+00
  0.00000000E+00  0.00000000E+00  0.00000000E+00  0.00000000E+00  0.00000000E+00
  0.00000000E+00  0.00000000E+00  0.00000000E+00  0.00000000E+00  0.00000000E+00
  0.00000000E+00  0.00000000E+00 -2.03258028E-12  0.00000000E+00  0.00000000E+00
  0.00000000E+00  2.62510098E-12  0.00000000E+00  0.00000000E+00 -5.40905273E-12
  0.00000000E+00  0.00000000E+00  0.00000000E+00  6.98377742E-12  0.00000000E+00
  0.00000000E+00  0.00000000E+00  0.00000000E+00  0.00000000E+00  0.00000000E+00
  0.00000000E+00  0.00000000E+00  0.00000000E+00  0.00000000E+00  0.00000000E+00
  0.00000000E+00  0.00000000E+00  0.00000000E+00  0.00000000E+00  0.00000000E+00
  0.00000000E+00  0.00000000E+00  0.00000000E+00  0.00000000E+00  0.00000000E+00
  0.00000000E+00  0.00000000E+00  0.00000000E+00  0.00000000E+00  0.00000000E+00
  6.10797955E-02  0.00000000E+00  0.00000000E+00  0.00000000E+00  0.00000000E+00
  2.44333492E-02  0.00000000E+00  0.00000000E+00  0.00000000E+00  0.00000000E+00
  9.72486980E-01  0.00000000E+00  0.00000000E+00  0.00000000E+00  0.00000000E+00
  0.00000000E+00  0.00000000E+00  0.00000000E+00  0.00000000E+00  0.00000000E+00
  0.00000000E+00  0.00000000E+00  0.00000000E+00  0.00000000E+00  0.00000000E+00
  0.00000000E+00  0.00000000E+00  0.00000000E+00  0.00000000E+00  0.00000000E+00
  0.00000000E+00  0.00000000E+00  0.00000000E+00  0.00000000E+00  0.00000000E+00
  0.00000000E+00  0.00000000E+00  0.00000000E+00  0.00000000E+00  0.00000000E+00
  0.00000000E+00  0.00000000E+00  0.00000000E+00  0.00000000E+00  0.00000000E+00
  0.00000000E+00  0.00000000E+00  6.10797955E-02  0.00000000E+00  0.00000000E+00
  0.00000000E+00  0.00000000E+00  2.44333492E-02  0.00000000E+00  0.00000000E+00
  0.00000000E+00  0.00000000E+00  9.72486980E-01  0.00000000E+00  0.00000000E+00
  0.00000000E+00  0.00000000E+00  0.00000000E+00  0.00000000E+00  0.00000000E+00
  0.00000000E+00  0.00000000E+00  0.00000000E+00  0.00000000E+00  0.00000000E+00
  0.00000000E+00  0.00000000E+00  0.00000000E+00  0.00000000E+00  0.00000000E+00
  0.00000000E+00  0.00000000E+00  0.00000000E+00  0.00000000E+00  0.00000000E+00
  0.00000000E+00  0.00000000E+00  0.00000000E+00  0.00000000E+00  0.00000000E+00
  0.00000000E+00  0.00000000E+00  0.00000000E+00  0.00000000E+00  0.00000000E+00
  0.00000000E+00  0.00000000E+00  0.00000000E+00  0.00000000E+00  0.00000000E+00
  0.00000000E+00  0.00000000E+00  0.00000000E+00  6.10797955E-02  0.00000000E+00
  0.00000000E+00  0.00000000E+00  0.00000000E+00  2.44333492E-02  0.00000000E+00
  0.00000000E+00  0.00000000E+00  0.00000000E+00  9.72486980E-01  0.00000000E+00
  0.00000000E+00  0.00000000E+00  0.00000000E+00  0.00000000E+00  0.00000000E+00
  0.00000000E+00  0.00000000E+00  0.00000000E+00  0.00000000E+00  0.00000000E+00
  0.00000000E+00  0.00000000E+00  0.00000000E+00  0.00000000E+00  0.00000000E+00
  1.44459757E-18 -6.32025664E-16 -1.76856085E-15  5.34318653E-16  3.24612605E-15
 -2.14952030E-15  0.00000000E+00  0.00000000E+00  0.00000000E+00  0.00000000E+00
  0.00000000E+00  0.00000000E+00  0.00000000E+00  0.00000000E+00  0.00000000E+00
  0.00000000E+00  0.00000000E+00  0.00000000E+00  0.00000000E+00  0.00000000E+00
  0.00000000E+00  5.31756508E-02  0.00000000E+00  0.00000000E+00  3.00514821E-02
  0.00000000E+00  2.12715062E-02  0.00000000E+00  0.00000000E+00  1.20212969E-02
  0.00000000E+00  8.46640492E-01  0.00000000E+00  0.00000000E+00  4.78467140E-01
  0.00000000E+00  0.00000000E+00  0.00000000E+00  0.00000000E+00  0.00000000E+00
  0.00000000E+00  0.00000000E+00  0.00000000E+00  0.00000000E+00  0.00000000E+00
  0.00000000E+00  0.00000000E+00  0.00000000E+00  0.00000000E+00  0.00000000E+00
  1.97095659E-16  2.27778328E-15  1.11815518E-14  3.44496263E-16 -1.72636917E-14
  5.82628926E-15  0.00000000E+00  0.00000000E+00  0.00000000E+00  0.00000000E+00
  0.00000000E+00  0.00000000E+00  0.00000000E+00  0.00000000E+00  0.00000000E+00
  0.00000000E+00  0.00000000E+00  0.00000000E+00  0.00000000E+00  0.00000000E+00
  0.00000000E+00 -3.00514821E-02  0.00000000E+00  0.00000000E+00  5.31756508E-02
  0.00000000E+00 -1.20212969E-02  0.00000000E+00  0.00000000E+00  2.12715062E-02
  0.00000000E+00 -4.78467140E-01  0.00000000E+00  0.00000000E+00  8.46640492E-01
  0.00000000E+00  0.00000000E+00  0.00000000E+00  0.00000000E+00  0.00000000E+00
  0.00000000E+00  0.00000000E+00  0.00000000E+00  0.00000000E+00  0.00000000E+00
  0.00000000E+00  0.00000000E+00  0.00000000E+00  0.00000000E+00  0.00000000E+00
  0.00000000E+00  0.00000000E+00  0.00000000E+00  0.00000000E+00  0.00000000E+00
  0.00000000E+00  1.58281058E-01  0.00000000E+00  0.00000000E+00 -1.91749397E-02
  0.00000000E+00  0.00000000E+00 -1.52723538E+00  0.00000000E+00  0.00000000E+00
  1.88228059E+00  0.00000000E+00  0.00000000E+00 -6.93767715E-01  0.00000000E+00
  0.00000000E+00  0.00000000E+00  0.00000000E+00  0.00000000E+00  0.00000000E+00
  0.00000000E+00  0.00000000E+00  0.00000000E+00  0.00000000E+00  0.00000000E+00
  0.00000000E+00  0.00000000E+00  0.00000000E+00  0.00000000E+00  0.00000000E+00
  0.00000000E+00  0.00000000E+00 -5.72859768E-12  0.00000000E+00  0.00000000E+00
  0.00000000E+00  7.39789740E-12  0.00000000E+00  0.00000000E+00  3.36678748E-12
  0.00000000E+00  0.00000000E+00  0.00000000E+00 -4.34856928E-12  0.00000000E+00
  0.00000000E+00  0.00000000E+00  0.00000000E+00  0.00000000E+00  0.00000000E+00
  0.00000000E+00  0.00000000E+00  0.00000000E+00  1.58281058E-01  0.00000000E+00
  0.00000000E+00 -1.91749397E-02  0.00000000E+00  0.00000000E+00 -1.52723538E+00
  0.00000000E+00  0.00000000E+00  1.88228059E+00  0.00000000E+00  0.00000000E+00
 -6.93767715E-01  0.00000000E+00  0.00000000E+00  0.00000000E+00  0.00000000E+00
  0.00000000E+00  0.00000000E+00  0.00000000E+00  0.00000000E+00  0.00000000E+00
  0.00000000E+00  0.00000000E+00  0.00000000E+00  0.00000000E+00  0.00000000E+00
  0.00000000E+00  9.35518486E-12  0.00000000E+00  0.00000000E+00 -1.82401393E-19
  0.00000000E+00  0.00000000E+00  0.00000000E+00 -5.47119391E-12  0.00000000E+00
  0.00000000E+00  1.44687376E-15  0.00000000E+00  0.00000000E+00  0.00000000E+00
  0.00000000E+00  0.00000000E+00  0.00000000E+00  0.00000000E+00  0.00000000E+00
  0.00000000E+00  0.00000000E+00  1.58281058E-01  0.00000000E+00  0.00000000E+00
 -1.91749397E-02  0.00000000E+00  0.00000000E+00 -1.52723538E+00  0.00000000E+00
  0.00000000E+00  1.88228059E+00  0.00000000E+00  0.00000000E+00 -6.93767715E-01
  0.00000000E+00  0.00000000E+00  0.00000000E+00  0.00000000E+00  0.00000000E+00
  0.00000000E+00  0.00000000E+00  0.00000000E+00  0.00000000E+00  0.00000000E+00
  0.00000000E+00  0.00000000E+00  0.00000000E+00  0.00000000E+00  0.00000000E+00
  0.00000000E+00  0.00000000E+00  0.00000000E+00 -5.72906265E-12  0.00000000E+00
  0.00000000E+00  0.00000000E+00 -7.39848668E-12  0.00000000E+00  0.00000000E+00
  3.37194299E-12  0.00000000E+00  0.00000000E+00  0.00000000E+00  4.35563754E-12
 -5.25131052E-02 -1.55029192E-02 -1.34422460E+00 -9.45293252E-01  3.68589212E+00
 -1.81670911E+00  0.00000000E+00  0.00000000E+00  0.00000000E+00  0.00000000E+00
  0.00000000E+00  0.00000000E+00  0.00000000E+00  0.00000000E+00  0.00000000E+00
  0.00000000E+00  0.00000000E+00  0.00000000E+00  0.00000000E+00  0.00000000E+00
  0.00000000E+00 -6.92061396E-15  0.00000000E+00  0.00000000E+00  2.02153796E-14
  0.00000000E+00  2.90306677E-15  0.00000000E+00  0.00000000E+00 -3.06134219E-15
  0.00000000E+00 -1.16646986E-16  0.00000000E+00  0.00000000E+00 -4.94436363E-15
  0.00000000E+00  0.00000000E+00  0.00000000E+00  0.00000000E+00  0.00000000E+00
  0.00000000E+00  0.00000000E+00  0.00000000E+00  0.00000000E+00  0.00000000E+00
  0.00000000E+00  0.00000000E+00  0.00000000E+00  0.00000000E+00  0.00000000E+00
  0.00000000E+00  0.00000000E+00  0.00000000E+00  0.00000000E+00  0.00000000E+00
  0.00000000E+00 -5.98076886E-16  0.00000000E+00  0.00000000E+00  3.22277043E-15
  0.00000000E+00  0.00000000E+00 -4.10965780E-15  0.00000000E+00  0.00000000E+00
  6.13503577E-15  0.00000000E+00  0.00000000E+00 -2.19840838E-15  0.00000000E+00