 Entering Gaussian System, Link 0=g16
 Input=Mg.com
 Output=Mg.log
 Initial command:
 /usr/site/hpc/x86_64/glibc-2.17/broadwell/gaussian/g16_a.03/pgi-16.5/g16/l1.exe "/home/c744/c7441090/data/Gau-3858649.inp" -scrdir="/home/c744/c7441090/data/"
 Entering Link 1 = /usr/site/hpc/x86_64/glibc-2.17/broadwell/gaussian/g16_a.03/pgi-16.5/g16/l1.exe PID=   3858650.
  
 Copyright (c) 1988,1990,1992,1993,1995,1998,2003,2009,2016,
            Gaussian, Inc.  All Rights Reserved.
  
 This is part of the Gaussian(R) 16 program.  It is based on
 the Gaussian(R) 09 system (copyright 2009, Gaussian, Inc.),
 the Gaussian(R) 03 system (copyright 2003, Gaussian, Inc.),
 the Gaussian(R) 98 system (copyright 1998, Gaussian, Inc.),
 the Gaussian(R) 94 system (copyright 1995, Gaussian, Inc.),
 the Gaussian 92(TM) system (copyright 1992, Gaussian, Inc.),
 the Gaussian 90(TM) system (copyright 1990, Gaussian, Inc.),
 the Gaussian 88(TM) system (copyright 1988, Gaussian, Inc.),
 the Gaussian 86(TM) system (copyright 1986, Carnegie Mellon
 University), and the Gaussian 82(TM) system (copyright 1983,
 Carnegie Mellon University). Gaussian is a federally registered
 trademark of Gaussian, Inc.
  
 This software contains proprietary and confidential information,
 including trade secrets, belonging to Gaussian, Inc.
  
 This software is provided under written license and may be
 used, copied, transmitted, or stored only in accord with that
 written license.
  
 The following legend is applicable only to US Government
 contracts under FAR:
  
                    RESTRICTED RIGHTS LEGEND
  
 Use, reproduction and disclosure by the US Government is
 subject to restrictions as set forth in subparagraphs (a)
 and (c) of the Commercial Computer Software - Restricted
 Rights clause in FAR 52.227-19.
  
 Gaussian, Inc.
 340 Quinnipiac St., Bldg. 40, Wallingford CT 06492
  
  
 ---------------------------------------------------------------
 Warning -- This program may not be used in any manner that
 competes with the business of Gaussian, Inc. or will provide
 assistance to any competitor of Gaussian, Inc.  The licensee
 of this program is prohibited from giving any competitor of
 Gaussian, Inc. access to this program.  By using this program,
 the user acknowledges that Gaussian, Inc. is engaged in the
 business of creating and licensing software in the field of
 computational chemistry and represents and warrants to the
 licensee that it is not a competitor of Gaussian, Inc. and that
 it will not use this program in any manner prohibited above.
 ---------------------------------------------------------------
  

 Cite this work as:
 Gaussian 16, Revision A.03,
 M. J. Frisch, G. W. Trucks, H. B. Schlegel, G. E. Scuseria, 
 M. A. Robb, J. R. Cheeseman, G. Scalmani, V. Barone, 
 G. A. Petersson, H. Nakatsuji, X. Li, M. Caricato, A. V. Marenich, 
 J. Bloino, B. G. Janesko, R. Gomperts, B. Mennucci, H. P. Hratchian, 
 J. V. Ortiz, A. F. Izmaylov, J. L. Sonnenberg, D. Williams-Young, 
 F. Ding, F. Lipparini, F. Egidi, J. Goings, B. Peng, A. Petrone, 
 T. Henderson, D. Ranasinghe, V. G. Zakrzewski, J. Gao, N. Rega, 
 G. Zheng, W. Liang, M. Hada, M. Ehara, K. Toyota, R. Fukuda, 
 J. Hasegawa, M. Ishida, T. Nakajima, Y. Honda, O. Kitao, H. Nakai, 
 T. Vreven, K. Throssell, J. A. Montgomery, Jr., J. E. Peralta, 
 F. Ogliaro, M. J. Bearpark, J. J. Heyd, E. N. Brothers, K. N. Kudin, 
 V. N. Staroverov, T. A. Keith, R. Kobayashi, J. Normand, 
 K. Raghavachari, A. P. Rendell, J. C. Burant, S. S. Iyengar, 
 J. Tomasi, M. Cossi, J. M. Millam, M. Klene, C. Adamo, R. Cammi, 
 J. W. Ochterski, R. L. Martin, K. Morokuma, O. Farkas, 
 J. B. Foresman, and D. J. Fox, Gaussian, Inc., Wallingford CT, 2016.
 
 ******************************************
 Gaussian 16:  ES64L-G16RevA.03 25-Dec-2016
                20-Nov-2023 
 ******************************************
 %NProcShared=4
 Will use up to    4 processors via shared memory.
 %Mem=1GB
 %Chk=Mg.chk
 ----------------------------------------------------
 # B3LYP/aug-cc-pVTZ EmpiricalDispersion=GD3 Pop=Full
 ----------------------------------------------------
 1/38=1,172=1/1;
 2/12=2,17=6,18=5,40=1/2;
 3/5=16,6=1,7=10,11=2,25=1,30=1,74=-5,124=31/1,2,3;
 4//1;
 5/5=2,38=5/2;
 6/7=3,28=1/1;
 99/5=1,9=1/99;
 ---------
 Magnesium
 ---------
 Symbolic Z-matrix:
 Charge =  0 Multiplicity = 1
 Mg                    0.        0.        0. 
 
                          Input orientation:                          
 ---------------------------------------------------------------------
 Center     Atomic      Atomic             Coordinates (Angstroms)
 Number     Number       Type             X           Y           Z
 ---------------------------------------------------------------------
      1         12           0        0.000000    0.000000    0.000000
 ---------------------------------------------------------------------
 Stoichiometry    Mg
 Framework group  OH[O(Mg)]
 Deg. of freedom     0
 Full point group                 OH      NOp  48
 Largest Abelian subgroup         D2H     NOp   8
 Largest concise Abelian subgroup C1      NOp   1
                         Standard orientation:                         
 ---------------------------------------------------------------------
 Center     Atomic      Atomic             Coordinates (Angstroms)
 Number     Number       Type             X           Y           Z
 ---------------------------------------------------------------------
      1         12           0        0.000000    0.000000    0.000000
 ---------------------------------------------------------------------
 Standard basis: Aug-CC-pVTZ (5D, 7F)
 There are    15 symmetry adapted cartesian basis functions of AG  symmetry.
 There are     3 symmetry adapted cartesian basis functions of B1G symmetry.
 There are     3 symmetry adapted cartesian basis functions of B2G symmetry.
 There are     3 symmetry adapted cartesian basis functions of B3G symmetry.
 There are     2 symmetry adapted cartesian basis functions of AU  symmetry.
 There are    11 symmetry adapted cartesian basis functions of B1U symmetry.
 There are    11 symmetry adapted cartesian basis functions of B2U symmetry.
 There are    11 symmetry adapted cartesian basis functions of B3U symmetry.
 There are    12 symmetry adapted basis functions of AG  symmetry.
 There are     3 symmetry adapted basis functions of B1G symmetry.
 There are     3 symmetry adapted basis functions of B2G symmetry.
 There are     3 symmetry adapted basis functions of B3G symmetry.
 There are     2 symmetry adapted basis functions of AU  symmetry.
 There are     9 symmetry adapted basis functions of B1U symmetry.
 There are     9 symmetry adapted basis functions of B2U symmetry.
 There are     9 symmetry adapted basis functions of B3U symmetry.
    50 basis functions,   117 primitive gaussians,    59 cartesian basis functions
     6 alpha electrons        6 beta electrons
       nuclear repulsion energy         0.0000000000 Hartrees.
 NAtoms=    1 NActive=    1 NUniq=    1 SFac= 1.00D+00 NAtFMM=   60 NAOKFM=F Big=F
 Integral buffers will be    131072 words long.
 Raffenetti 2 integral format.
 Two-electron integral symmetry is turned on.
 Nuclear repulsion after empirical dispersion term =        0.0000000000 Hartrees.
 One-electron integrals computed using PRISM.
 NBasis=    50 RedAO= T EigKep=  1.27D-02  NBF=    12     3     3     3     2     9     9     9
 NBsUse=    50 1.00D-06 EigRej= -1.00D+00 NBFU=    12     3     3     3     2     9     9     9
 ExpMin= 9.17D-03 ExpMax= 1.65D+05 ExpMxC= 1.60D+03 IAcc=3 IRadAn=         5 AccDes= 0.00D+00
 Harris functional with IExCor=  402 and IRadAn=       5 diagonalized for initial guess.
 HarFok:  IExCor=  402 AccDes= 0.00D+00 IRadAn=         5 IDoV= 1 UseB2=F ITyADJ=14
 ICtDFT=  3500011 ScaDFX=  1.000000  1.000000  1.000000  1.000000
 FoFCou: FMM=F IPFlag=           0 FMFlag=      100000 FMFlg1=           0
         NFxFlg=           0 DoJE=T BraDBF=F KetDBF=T FulRan=T
         wScrn=  0.000000 ICntrl=       500 IOpCl=  0 I1Cent=   200000004 NGrid=           0
         NMat0=    1 NMatS0=      1 NMatT0=    0 NMatD0=    1 NMtDS0=    0 NMtDT0=    0
 Petite list used in FoFCou.
 Initial guess orbital symmetries:
       Occupied  (A1G) (A1G) (T1U) (T1U) (T1U) (A1G)
       Virtual   (T1U) (T1U) (T1U) (A1G) (T1U) (T1U) (T1U) (T2G)
                 (T2G) (T2G) (EG) (EG) (T1U) (T1U) (T1U) (A1G)
                 (T2U) (T2U) (T2U) (A2U) (T1U) (T1U) (T1U) (T2G)
                 (T2G) (T2G) (EG) (EG) (T1U) (T1U) (T1U) (T2G)
                 (T2G) (T2G) (EG) (EG) (T2U) (T2U) (T2U) (A2U)
                 (T1U) (T1U) (T1U) (A1G)
 The electronic state of the initial guess is 1-A1G.
 Keep R1 ints in memory in symmetry-blocked form, NReq=4341620.
 Requested convergence on RMS density matrix=1.00D-08 within 128 cycles.
 Requested convergence on MAX density matrix=1.00D-06.
 Requested convergence on             energy=1.00D-06.
 No special actions if energy rises.
 SCF Done:  E(RB3LYP) =  -200.097752622     A.U. after    7 cycles
            NFock=  7  Conv=0.16D-09     -V/T= 2.0044

 **********************************************************************

            Population analysis using the SCF density.

 **********************************************************************

 Orbital symmetries:
       Occupied  (A1G) (A1G) (T1U) (T1U) (T1U) (A1G)
       Virtual   (T1U) (T1U) (T1U) (A1G) (T1U) (T1U) (T1U) (T2G)
                 (T2G) (T2G) (EG) (EG) (T1U) (T1U) (T1U) (A1G)
                 (T2U) (T2U) (T2U) (A2U) (T1U) (T1U) (T1U) (T2G)
                 (T2G) (T2G) (EG) (EG) (T1U) (T1U) (T1U) (T2G)
                 (T2G) (T2G) (EG) (EG) (T2U) (T2U) (T2U) (A2U)
                 (T1U) (T1U) (T1U) (A1G)
 The electronic state is 1-A1G.
 Alpha  occ. eigenvalues --  -46.83531  -3.10263  -1.84647  -1.84647  -1.84647
 Alpha  occ. eigenvalues --   -0.19457
 Alpha virt. eigenvalues --   -0.03383  -0.03383  -0.03383   0.00494   0.01833
 Alpha virt. eigenvalues --    0.01833   0.01833   0.04329   0.04329   0.04329
 Alpha virt. eigenvalues --    0.04329   0.04329   0.12991   0.12991   0.12991
 Alpha virt. eigenvalues --    0.13601   0.21408   0.21408   0.21408   0.21408
 Alpha virt. eigenvalues --    0.21408   0.21408   0.21408   0.24280   0.24280
 Alpha virt. eigenvalues --    0.24280   0.24280   0.24280   0.57101   0.57101
 Alpha virt. eigenvalues --    0.57101   0.82067   0.82067   0.82067   0.82067
 Alpha virt. eigenvalues --    0.82067   0.90136   0.90136   0.90136   0.90136
 Alpha virt. eigenvalues --    0.90136   0.90136   0.90136   1.08158
     Molecular Orbital Coefficients:
                           1         2         3         4         5
                       (A1G)--O  (A1G)--O  (T1U)--O  (T1U)--O  (T1U)--O
     Eigenvalues --   -46.83531  -3.10263  -1.84647  -1.84647  -1.84647
   1 1   Mg 1S          1.00186  -0.25275   0.00000   0.00000   0.00000
   2        2S         -0.00497   1.00346   0.00000   0.00000   0.00000
   3        3S          0.00593  -0.04375   0.00000   0.00000   0.00000
   4        4S         -0.00445   0.05535   0.00000   0.00000   0.00000
   5        5S         -0.00407   0.02224   0.00000   0.00000   0.00000
   6        6S          0.00130  -0.00621   0.00000   0.00000   0.00000
   7        7PX         0.00000   0.00000   0.99711   0.00000   0.00000
   8        7PY         0.00000   0.00000   0.00000   0.99711   0.00000
   9        7PZ         0.00000   0.00000   0.00000   0.00000   0.99711
  10        8PX         0.00000   0.00000   0.00861   0.00000   0.00000
  11        8PY         0.00000   0.00000   0.00000   0.00861   0.00000
  12        8PZ         0.00000   0.00000   0.00000   0.00000   0.00861
  13        9PX         0.00000   0.00000   0.00150   0.00000   0.00000
  14        9PY         0.00000   0.00000   0.00000   0.00150   0.00000
  15        9PZ         0.00000   0.00000   0.00000   0.00000   0.00150
  16       10PX         0.00000   0.00000  -0.00013   0.00000   0.00000
  17       10PY         0.00000   0.00000   0.00000  -0.00013   0.00000
  18       10PZ         0.00000   0.00000   0.00000   0.00000  -0.00013
  19       11PX         0.00000   0.00000   0.00000   0.00000   0.00000
  20       11PY         0.00000   0.00000   0.00000   0.00000   0.00000
  21       11PZ         0.00000   0.00000   0.00000   0.00000   0.00000
  22       12D 0       -0.00000   0.00000   0.00000   0.00000   0.00000
  23       12D+1        0.00000   0.00000   0.00000   0.00000   0.00000
  24       12D-1        0.00000   0.00000   0.00000   0.00000   0.00000
  25       12D+2        0.00000   0.00000   0.00000   0.00000   0.00000
  26       12D-2        0.00000   0.00000   0.00000   0.00000   0.00000
  27       13D 0        0.00000  -0.00000   0.00000   0.00000   0.00000
  28       13D+1        0.00000   0.00000   0.00000   0.00000   0.00000
  29       13D-1        0.00000   0.00000   0.00000   0.00000   0.00000
  30       13D+2       -0.00000  -0.00000   0.00000   0.00000   0.00000
  31       13D-2        0.00000   0.00000   0.00000   0.00000   0.00000
  32       14D 0        0.00000  -0.00000   0.00000   0.00000   0.00000
  33       14D+1        0.00000   0.00000   0.00000   0.00000   0.00000
  34       14D-1        0.00000   0.00000   0.00000   0.00000   0.00000
  35       14D+2        0.00000   0.00000   0.00000   0.00000   0.00000
  36       14D-2        0.00000   0.00000   0.00000   0.00000   0.00000
  37       15F 0        0.00000   0.00000   0.00000   0.00000  -0.00000
  38       15F+1        0.00000   0.00000   0.00000   0.00000   0.00000
  39       15F-1        0.00000   0.00000   0.00000   0.00000   0.00000
  40       15F+2        0.00000   0.00000   0.00000   0.00000   0.00000
  41       15F-2        0.00000   0.00000   0.00000   0.00000   0.00000
  42       15F+3        0.00000   0.00000  -0.00000   0.00000   0.00000
  43       15F-3        0.00000   0.00000   0.00000   0.00000   0.00000
  44       16F 0        0.00000   0.00000   0.00000   0.00000   0.00000
  45       16F+1        0.00000   0.00000  -0.00000   0.00000   0.00000
  46       16F-1        0.00000   0.00000   0.00000  -0.00000   0.00000
  47       16F+2        0.00000   0.00000   0.00000   0.00000  -0.00000
  48       16F-2        0.00000   0.00000   0.00000   0.00000   0.00000
  49       16F+3        0.00000   0.00000   0.00000   0.00000   0.00000
  50       16F-3        0.00000   0.00000   0.00000  -0.00000   0.00000
                           6         7         8         9        10
                       (A1G)--O  (T1U)--V  (T1U)--V  (T1U)--V  (A1G)--V
     Eigenvalues --    -0.19457  -0.03383  -0.03383  -0.03383   0.00494
   1 1   Mg 1S          0.05345   0.00000   0.00000   0.00000  -0.01742
   2        2S         -0.24927   0.00000   0.00000   0.00000   0.10319
   3        3S          0.45621   0.00000   0.00000   0.00000  -0.10159
   4        4S          0.34343   0.00000   0.00000   0.00000  -0.14903
   5        5S          0.30535   0.00000   0.00000   0.00000  -1.04962
   6        6S         -0.00550   0.00000   0.00000   0.00000   1.75276
   7        7PX         0.00000   0.00000  -0.13283   0.00000   0.00000
   8        7PY         0.00000  -0.13283   0.00000   0.00000   0.00000
   9        7PZ         0.00000   0.00000   0.00000  -0.13283   0.00000
  10        8PX         0.00000   0.00000   0.13474   0.00000   0.00000
  11        8PY         0.00000   0.13474   0.00000   0.00000   0.00000
  12        8PZ         0.00000   0.00000   0.00000   0.13474   0.00000
  13        9PX         0.00000   0.00000   0.35736   0.00000   0.00000
  14        9PY         0.00000   0.35736   0.00000   0.00000   0.00000
  15        9PZ         0.00000   0.00000   0.00000   0.35736   0.00000
  16       10PX         0.00000   0.00000   0.52476   0.00000   0.00000
  17       10PY         0.00000   0.52476   0.00000   0.00000   0.00000
  18       10PZ         0.00000   0.00000   0.00000   0.52476   0.00000
  19       11PX         0.00000   0.00000   0.18214   0.00000   0.00000
  20       11PY         0.00000   0.18214   0.00000   0.00000   0.00000
  21       11PZ         0.00000   0.00000   0.00000   0.18214   0.00000
  22       12D 0        0.00000   0.00000   0.00000   0.00000  -0.00000
  23       12D+1        0.00000   0.00000   0.00000   0.00000   0.00000
  24       12D-1        0.00000   0.00000   0.00000   0.00000   0.00000
  25       12D+2        0.00000   0.00000   0.00000   0.00000  -0.00000
  26       12D-2        0.00000   0.00000   0.00000   0.00000   0.00000
  27       13D 0       -0.00000   0.00000   0.00000   0.00000   0.00000
  28       13D+1        0.00000   0.00000   0.00000   0.00000   0.00000
  29       13D-1        0.00000   0.00000   0.00000   0.00000   0.00000
  30       13D+2        0.00000   0.00000   0.00000   0.00000   0.00000
  31       13D-2        0.00000   0.00000   0.00000   0.00000   0.00000
  32       14D 0       -0.00000   0.00000   0.00000   0.00000   0.00000
  33       14D+1        0.00000   0.00000   0.00000   0.00000   0.00000
  34       14D-1        0.00000   0.00000   0.00000   0.00000   0.00000
  35       14D+2       -0.00000   0.00000   0.00000   0.00000   0.00000
  36       14D-2        0.00000   0.00000   0.00000   0.00000   0.00000
  37       15F 0        0.00000   0.00000   0.00000  -0.00000   0.00000
  38       15F+1        0.00000   0.00000   0.00000   0.00000   0.00000
  39       15F-1        0.00000   0.00000   0.00000   0.00000   0.00000
  40       15F+2        0.00000   0.00000   0.00000  -0.00000   0.00000
  41       15F-2        0.00000   0.00000   0.00000   0.00000   0.00000
  42       15F+3        0.00000   0.00000  -0.00000   0.00000   0.00000
  43       15F-3        0.00000   0.00000   0.00000   0.00000   0.00000
  44       16F 0        0.00000   0.00000   0.00000  -0.00000   0.00000
  45       16F+1        0.00000   0.00000   0.00000   0.00000   0.00000
  46       16F-1        0.00000   0.00000   0.00000   0.00000   0.00000
  47       16F+2        0.00000   0.00000   0.00000   0.00000   0.00000
  48       16F-2        0.00000   0.00000   0.00000   0.00000   0.00000
  49       16F+3        0.00000   0.00000  -0.00000   0.00000   0.00000
  50       16F-3        0.00000   0.00000   0.00000   0.00000   0.00000
                          11        12        13        14        15
                       (T1U)--V  (T1U)--V  (T1U)--V  (T2G)--V  (T2G)--V
     Eigenvalues --     0.01833   0.01833   0.01833   0.04329   0.04329
   1 1   Mg 1S          0.00000   0.00000   0.00000   0.00000   0.00000
   2        2S          0.00000   0.00000   0.00000   0.00000   0.00000
   3        3S          0.00000   0.00000   0.00000   0.00000   0.00000
   4        4S          0.00000   0.00000   0.00000   0.00000   0.00000
   5        5S          0.00000   0.00000   0.00000   0.00000   0.00000
   6        6S          0.00000   0.00000   0.00000   0.00000   0.00000
   7        7PX         0.00000   0.00000   0.07020   0.00000   0.00000
   8        7PY         0.07020   0.00000   0.00000   0.00000   0.00000
   9        7PZ         0.00000   0.07020   0.00000   0.00000   0.00000
  10        8PX         0.00000   0.00000  -0.09702   0.00000   0.00000
  11        8PY        -0.09702   0.00000   0.00000   0.00000   0.00000
  12        8PZ         0.00000  -0.09702   0.00000   0.00000   0.00000
  13        9PX         0.00000   0.00000  -0.12645   0.00000   0.00000
  14        9PY        -0.12645   0.00000   0.00000   0.00000   0.00000
  15        9PZ         0.00000  -0.12645   0.00000   0.00000   0.00000
  16       10PX         0.00000   0.00000  -0.60981   0.00000   0.00000
  17       10PY        -0.60981   0.00000   0.00000   0.00000   0.00000
  18       10PZ         0.00000  -0.60981   0.00000   0.00000   0.00000
  19       11PX         0.00000   0.00000   1.20677   0.00000   0.00000
  20       11PY         1.20677   0.00000   0.00000   0.00000   0.00000
  21       11PZ         0.00000   1.20677   0.00000   0.00000   0.00000
  22       12D 0        0.00000   0.00000   0.00000   0.00000   0.00000
  23       12D+1        0.00000   0.00000   0.00000   0.00000   0.06108
  24       12D-1        0.00000   0.00000   0.00000   0.00000   0.00000
  25       12D+2        0.00000   0.00000   0.00000   0.00000   0.00000
  26       12D-2        0.00000   0.00000   0.00000   0.06108   0.00000
  27       13D 0        0.00000   0.00000   0.00000   0.00000   0.00000
  28       13D+1        0.00000   0.00000   0.00000   0.00000   0.02443
  29       13D-1        0.00000   0.00000   0.00000   0.00000   0.00000
  30       13D+2        0.00000   0.00000   0.00000   0.00000   0.00000
  31       13D-2        0.00000   0.00000   0.00000   0.02443   0.00000
  32       14D 0        0.00000   0.00000   0.00000   0.00000   0.00000
  33       14D+1        0.00000   0.00000   0.00000   0.00000   0.97249
  34       14D-1        0.00000   0.00000   0.00000   0.00000   0.00000
  35       14D+2        0.00000   0.00000   0.00000   0.00000   0.00000
  36       14D-2        0.00000   0.00000   0.00000   0.97249   0.00000
  37       15F 0        0.00000   0.00000   0.00000   0.00000   0.00000
  38       15F+1        0.00000   0.00000  -0.00000   0.00000   0.00000
  39       15F-1       -0.00000   0.00000   0.00000   0.00000   0.00000
  40       15F+2        0.00000   0.00000   0.00000   0.00000   0.00000
  41       15F-2        0.00000   0.00000   0.00000   0.00000   0.00000
  42       15F+3        0.00000   0.00000   0.00000   0.00000   0.00000
  43       15F-3       -0.00000   0.00000   0.00000   0.00000   0.00000
  44       16F 0        0.00000   0.00000   0.00000   0.00000   0.00000
  45       16F+1        0.00000   0.00000  -0.00000   0.00000   0.00000
  46       16F-1       -0.00000   0.00000   0.00000   0.00000   0.00000
  47       16F+2        0.00000  -0.00000   0.00000   0.00000   0.00000
  48       16F-2        0.00000   0.00000   0.00000   0.00000   0.00000
  49       16F+3        0.00000   0.00000   0.00000   0.00000   0.00000
  50       16F-3       -0.00000   0.00000   0.00000   0.00000   0.00000
                          16        17        18        19        20
                       (T2G)--V   (EG)--V   (EG)--V  (T1U)--V  (T1U)--V
     Eigenvalues --     0.04329   0.04329   0.04329   0.12991   0.12991
   1 1   Mg 1S          0.00000   0.00000   0.00000   0.00000   0.00000
   2        2S          0.00000  -0.00000   0.00000   0.00000   0.00000
   3        3S          0.00000  -0.00000   0.00000   0.00000   0.00000
   4        4S          0.00000   0.00000   0.00000   0.00000   0.00000
   5        5S          0.00000   0.00000  -0.00000   0.00000   0.00000
   6        6S          0.00000  -0.00000   0.00000   0.00000   0.00000
   7        7PX         0.00000   0.00000   0.00000   0.15828   0.00000
   8        7PY         0.00000   0.00000   0.00000   0.00000   0.00000
   9        7PZ         0.00000   0.00000   0.00000   0.00000   0.15828
  10        8PX         0.00000   0.00000   0.00000  -0.01917   0.00000
  11        8PY         0.00000   0.00000   0.00000   0.00000   0.00000
  12        8PZ         0.00000   0.00000   0.00000   0.00000  -0.01917
  13        9PX         0.00000   0.00000   0.00000  -1.52724   0.00000
  14        9PY         0.00000   0.00000   0.00000   0.00000   0.00000
  15        9PZ         0.00000   0.00000   0.00000   0.00000  -1.52724
  16       10PX         0.00000   0.00000   0.00000   1.88228   0.00000
  17       10PY         0.00000   0.00000   0.00000   0.00000   0.00000
  18       10PZ         0.00000   0.00000   0.00000   0.00000   1.88228
  19       11PX         0.00000   0.00000   0.00000  -0.69377   0.00000
  20       11PY         0.00000   0.00000   0.00000   0.00000   0.00000
  21       11PZ         0.00000   0.00000   0.00000   0.00000  -0.69377
  22       12D 0        0.00000   0.05318  -0.03005   0.00000   0.00000
  23       12D+1        0.00000   0.00000   0.00000   0.00000   0.00000
  24       12D-1        0.06108   0.00000   0.00000   0.00000   0.00000
  25       12D+2        0.00000   0.03005   0.05318   0.00000   0.00000
  26       12D-2        0.00000   0.00000   0.00000   0.00000   0.00000
  27       13D 0        0.00000   0.02127  -0.01202   0.00000   0.00000
  28       13D+1        0.00000   0.00000   0.00000   0.00000   0.00000
  29       13D-1        0.02443   0.00000   0.00000   0.00000   0.00000
  30       13D+2        0.00000   0.01202   0.02127   0.00000   0.00000
  31       13D-2        0.00000   0.00000   0.00000   0.00000   0.00000
  32       14D 0        0.00000   0.84664  -0.47847   0.00000   0.00000
  33       14D+1        0.00000   0.00000   0.00000   0.00000   0.00000
  34       14D-1        0.97249   0.00000   0.00000   0.00000   0.00000
  35       14D+2        0.00000   0.47847   0.84664   0.00000   0.00000
  36       14D-2        0.00000   0.00000   0.00000   0.00000   0.00000
  37       15F 0        0.00000   0.00000   0.00000   0.00000   0.00000
  38       15F+1        0.00000   0.00000   0.00000  -0.00000   0.00000
  39       15F-1        0.00000   0.00000   0.00000   0.00000   0.00000
  40       15F+2        0.00000   0.00000   0.00000   0.00000  -0.00000
  41       15F-2        0.00000   0.00000   0.00000   0.00000   0.00000
  42       15F+3        0.00000   0.00000   0.00000   0.00000   0.00000
  43       15F-3        0.00000   0.00000   0.00000   0.00000   0.00000
  44       16F 0        0.00000   0.00000   0.00000   0.00000  -0.00000
  45       16F+1        0.00000   0.00000   0.00000   0.00000   0.00000
  46       16F-1        0.00000   0.00000   0.00000   0.00000   0.00000
  47       16F+2        0.00000   0.00000   0.00000   0.00000   0.00000
  48       16F-2        0.00000   0.00000   0.00000   0.00000   0.00000
  49       16F+3        0.00000   0.00000   0.00000  -0.00000   0.00000
  50       16F-3        0.00000   0.00000   0.00000   0.00000   0.00000
                          21        22        23        24        25
                       (T1U)--V  (A1G)--V  (T2U)--V  (T2U)--V  (T2U)--V
     Eigenvalues --     0.12991   0.13601   0.21408   0.21408   0.21408
   1 1   Mg 1S          0.00000  -0.05251   0.00000   0.00000   0.00000
   2        2S          0.00000  -0.01550   0.00000   0.00000   0.00000
   3        3S          0.00000  -1.34422   0.00000   0.00000   0.00000
   4        4S          0.00000  -0.94529   0.00000   0.00000   0.00000
   5        5S          0.00000   3.68589   0.00000   0.00000   0.00000
   6        6S          0.00000  -1.81671   0.00000   0.00000   0.00000
   7        7PX         0.00000   0.00000  -0.00000   0.00000   0.00000
   8        7PY         0.15828   0.00000   0.00000  -0.00000   0.00000
   9        7PZ         0.00000   0.00000   0.00000   0.00000  -0.00000
  10        8PX         0.00000   0.00000   0.00000   0.00000   0.00000
  11        8PY        -0.01917   0.00000   0.00000   0.00000   0.00000
  12        8PZ         0.00000   0.00000   0.00000   0.00000   0.00000
  13        9PX         0.00000   0.00000  -0.00000   0.00000   0.00000
  14        9PY        -1.52724   0.00000   0.00000  -0.00000   0.00000
  15        9PZ         0.00000   0.00000   0.00000   0.00000  -0.00000
  16       10PX         0.00000   0.00000   0.00000   0.00000   0.00000
  17       10PY         1.88228   0.00000   0.00000   0.00000   0.00000
  18       10PZ         0.00000   0.00000   0.00000   0.00000  -0.00000
  19       11PX         0.00000   0.00000  -0.00000   0.00000   0.00000
  20       11PY        -0.69377   0.00000   0.00000  -0.00000   0.00000
  21       11PZ         0.00000   0.00000   0.00000   0.00000   0.00000
  22       12D 0        0.00000  -0.00000   0.00000   0.00000   0.00000
  23       12D+1        0.00000   0.00000   0.00000   0.00000   0.00000
  24       12D-1        0.00000   0.00000   0.00000   0.00000   0.00000
  25       12D+2        0.00000   0.00000   0.00000   0.00000   0.00000
  26       12D-2        0.00000   0.00000   0.00000   0.00000   0.00000
  27       13D 0        0.00000   0.00000   0.00000   0.00000   0.00000
  28       13D+1        0.00000   0.00000   0.00000   0.00000   0.00000
  29       13D-1        0.00000   0.00000   0.00000   0.00000   0.00000
  30       13D+2        0.00000  -0.00000   0.00000   0.00000   0.00000
  31       13D-2        0.00000   0.00000   0.00000   0.00000   0.00000
  32       14D 0        0.00000  -0.00000   0.00000   0.00000   0.00000
  33       14D+1        0.00000   0.00000   0.00000   0.00000   0.00000
  34       14D-1        0.00000   0.00000   0.00000   0.00000   0.00000
  35       14D+2        0.00000  -0.00000   0.00000   0.00000   0.00000
  36       14D-2        0.00000   0.00000   0.00000   0.00000   0.00000
  37       15F 0        0.00000   0.00000   0.00000   0.00000   0.00000
  38       15F+1        0.00000   0.00000  -0.02908   0.00000   0.00000
  39       15F-1       -0.00000   0.00000   0.00000  -0.02908   0.00000
  40       15F+2        0.00000   0.00000   0.00000   0.00000  -0.03679
  41       15F-2        0.00000   0.00000   0.00000   0.00000   0.00000
  42       15F+3        0.00000   0.00000  -0.02253   0.00000   0.00000
  43       15F-3       -0.00000   0.00000   0.00000   0.02253   0.00000
  44       16F 0        0.00000   0.00000   0.00000   0.00000  -0.00000
  45       16F+1        0.00000   0.00000   0.80175   0.00000   0.00000
  46       16F-1        0.00000   0.00000   0.00000   0.80173   0.00000
  47       16F+2        0.00000   0.00000   0.00000   0.00000   1.01421
  48       16F-2        0.00000   0.00000   0.00000   0.00000   0.00000
  49       16F+3        0.00000   0.00000   0.62113   0.00000   0.00000
  50       16F-3        0.00000   0.00000   0.00000  -0.62117   0.00000
                          26        27        28        29        30
                       (A2U)--V  (T1U)--V  (T1U)--V  (T1U)--V  (T2G)--V
     Eigenvalues --     0.21408   0.21408   0.21408   0.21408   0.24280
   1 1   Mg 1S          0.00000   0.00000   0.00000   0.00000   0.00000
   2        2S          0.00000   0.00000   0.00000   0.00000   0.00000
   3        3S          0.00000   0.00000   0.00000   0.00000   0.00000
   4        4S          0.00000   0.00000   0.00000   0.00000   0.00000
   5        5S          0.00000   0.00000   0.00000   0.00000   0.00000
   6        6S          0.00000   0.00000   0.00000   0.00000   0.00000
   7        7PX         0.00000  -0.00000   0.00000   0.00000   0.00000
   8        7PY         0.00000   0.00000   0.00000   0.00000   0.00000
   9        7PZ         0.00000   0.00000   0.00000  -0.00000   0.00000
  10        8PX         0.00000   0.00000   0.00000   0.00000   0.00000
  11        8PY         0.00000   0.00000  -0.00000   0.00000   0.00000
  12        8PZ         0.00000   0.00000   0.00000   0.00000   0.00000
  13        9PX         0.00000  -0.00000   0.00000   0.00000   0.00000
  14        9PY         0.00000   0.00000   0.00000   0.00000   0.00000
  15        9PZ         0.00000   0.00000   0.00000  -0.00000   0.00000
  16       10PX         0.00000   0.00000   0.00000   0.00000   0.00000
  17       10PY         0.00000   0.00000  -0.00000   0.00000   0.00000
  18       10PZ         0.00000   0.00000   0.00000   0.00000   0.00000
  19       11PX         0.00000  -0.00000   0.00000   0.00000   0.00000
  20       11PY         0.00000   0.00000   0.00000   0.00000   0.00000
  21       11PZ         0.00000   0.00000   0.00000  -0.00000   0.00000
  22       12D 0        0.00000   0.00000   0.00000   0.00000   0.00000
  23       12D+1        0.00000   0.00000   0.00000   0.00000   0.00000
  24       12D-1        0.00000   0.00000   0.00000   0.00000   1.10872
  25       12D+2        0.00000   0.00000   0.00000   0.00000   0.00000
  26       12D-2        0.00000   0.00000   0.00000   0.00000   0.00000
  27       13D 0        0.00000   0.00000   0.00000   0.00000   0.00000
  28       13D+1        0.00000   0.00000   0.00000   0.00000   0.00000
  29       13D-1        0.00000   0.00000   0.00000   0.00000  -0.05298
  30       13D+2        0.00000   0.00000   0.00000   0.00000   0.00000
  31       13D-2        0.00000   0.00000   0.00000   0.00000   0.00000
  32       14D 0        0.00000   0.00000   0.00000   0.00000   0.00000
  33       14D+1        0.00000   0.00000   0.00000   0.00000   0.00000
  34       14D-1        0.00000   0.00000   0.00000   0.00000  -0.46335
  35       14D+2        0.00000   0.00000   0.00000   0.00000   0.00000
  36       14D-2        0.00000   0.00000   0.00000   0.00000   0.00000
  37       15F 0        0.00000   0.00000   0.00000  -0.03679   0.00000
  38       15F+1        0.00000   0.02253   0.00000   0.00000   0.00000
  39       15F-1        0.00000   0.00000  -0.02253   0.00000   0.00000
  40       15F+2        0.00000   0.00000   0.00000  -0.00000   0.00000
  41       15F-2       -0.03679   0.00000   0.00000   0.00000   0.00000
  42       15F+3        0.00000  -0.02908   0.00000   0.00000   0.00000
  43       15F-3        0.00000   0.00000  -0.02908   0.00000   0.00000
  44       16F 0        0.00000   0.00000   0.00000   1.01421   0.00000
  45       16F+1        0.00000  -0.62113   0.00000   0.00000   0.00000
  46       16F-1        0.00000   0.00000   0.62117   0.00000   0.00000
  47       16F+2        0.00000   0.00000   0.00000   0.00000   0.00000
  48       16F-2        1.01421   0.00000   0.00000   0.00000   0.00000
  49       16F+3        0.00000   0.80175   0.00000   0.00000   0.00000
  50       16F-3        0.00000   0.00000   0.80173   0.00000   0.00000
                          31        32        33        34        35
                       (T2G)--V  (T2G)--V   (EG)--V   (EG)--V  (T1U)--V
     Eigenvalues --     0.24280   0.24280   0.24280   0.24280   0.57101
   1 1   Mg 1S          0.00000   0.00000  -0.00000   0.00000   0.00000
   2        2S          0.00000   0.00000  -0.00000  -0.00000   0.00000
   3        3S          0.00000   0.00000  -0.00000   0.00000   0.00000
   4        4S          0.00000   0.00000   0.00000   0.00000   0.00000
   5        5S          0.00000   0.00000  -0.00000  -0.00000   0.00000
   6        6S          0.00000   0.00000   0.00000   0.00000   0.00000
   7        7PX         0.00000   0.00000   0.00000   0.00000   0.00000
   8        7PY         0.00000   0.00000   0.00000   0.00000   0.00000
   9        7PZ         0.00000   0.00000   0.00000   0.00000   0.28437
  10        8PX         0.00000   0.00000   0.00000   0.00000   0.00000
  11        8PY         0.00000   0.00000   0.00000   0.00000   0.00000
  12        8PZ         0.00000   0.00000   0.00000   0.00000  -1.89987
  13        9PX         0.00000   0.00000   0.00000   0.00000   0.00000
  14        9PY         0.00000   0.00000   0.00000   0.00000   0.00000
  15        9PZ         0.00000   0.00000   0.00000   0.00000   2.26261
  16       10PX         0.00000   0.00000   0.00000   0.00000   0.00000
  17       10PY         0.00000   0.00000   0.00000   0.00000   0.00000
  18       10PZ         0.00000   0.00000   0.00000   0.00000  -1.14425
  19       11PX         0.00000   0.00000   0.00000   0.00000   0.00000
  20       11PY         0.00000   0.00000   0.00000   0.00000   0.00000
  21       11PZ         0.00000   0.00000   0.00000   0.00000   0.29683
  22       12D 0        0.00000   0.00000   1.07749  -0.26128   0.00000
  23       12D+1        0.00000   1.10872   0.00000   0.00000   0.00000
  24       12D-1        0.00000   0.00000   0.00000   0.00000   0.00000
  25       12D+2        0.00000   0.00000   0.26128   1.07749   0.00000
  26       12D-2        1.10872   0.00000   0.00000   0.00000   0.00000
  27       13D 0        0.00000   0.00000  -0.05149   0.01249   0.00000
  28       13D+1        0.00000  -0.05298   0.00000   0.00000   0.00000
  29       13D-1        0.00000   0.00000   0.00000   0.00000   0.00000
  30       13D+2        0.00000   0.00000  -0.01249  -0.05149   0.00000
  31       13D-2       -0.05298   0.00000   0.00000   0.00000   0.00000
  32       14D 0        0.00000   0.00000  -0.45030   0.10919   0.00000
  33       14D+1        0.00000  -0.46335   0.00000   0.00000   0.00000
  34       14D-1        0.00000   0.00000   0.00000   0.00000   0.00000
  35       14D+2        0.00000   0.00000  -0.10919  -0.45030   0.00000
  36       14D-2       -0.46335   0.00000   0.00000   0.00000   0.00000
  37       15F 0        0.00000   0.00000   0.00000   0.00000   0.00000
  38       15F+1        0.00000   0.00000   0.00000   0.00000   0.00000
  39       15F-1        0.00000   0.00000   0.00000   0.00000   0.00000
  40       15F+2        0.00000   0.00000   0.00000   0.00000  -0.00000
  41       15F-2        0.00000   0.00000   0.00000   0.00000   0.00000
  42       15F+3        0.00000   0.00000   0.00000   0.00000   0.00000
  43       15F-3        0.00000   0.00000   0.00000   0.00000   0.00000
  44       16F 0        0.00000   0.00000   0.00000   0.00000   0.00000
  45       16F+1        0.00000   0.00000   0.00000   0.00000   0.00000
  46       16F-1        0.00000   0.00000   0.00000   0.00000   0.00000
  47       16F+2        0.00000   0.00000   0.00000   0.00000   0.00000
  48       16F-2        0.00000   0.00000   0.00000   0.00000   0.00000
  49       16F+3        0.00000   0.00000   0.00000   0.00000   0.00000
  50       16F-3        0.00000   0.00000   0.00000   0.00000   0.00000
                          36        37        38        39        40
                       (T1U)--V  (T1U)--V  (T2G)--V  (T2G)--V  (T2G)--V
     Eigenvalues --     0.57101   0.57101   0.82067   0.82067   0.82067
   1 1   Mg 1S          0.00000   0.00000   0.00000   0.00000   0.00000
   2        2S          0.00000   0.00000   0.00000   0.00000   0.00000
   3        3S          0.00000   0.00000   0.00000   0.00000   0.00000
   4        4S          0.00000   0.00000   0.00000   0.00000   0.00000
   5        5S          0.00000   0.00000   0.00000   0.00000   0.00000
   6        6S          0.00000   0.00000   0.00000   0.00000   0.00000
   7        7PX         0.28437   0.00000   0.00000   0.00000   0.00000
   8        7PY         0.00000   0.28437   0.00000   0.00000   0.00000
   9        7PZ         0.00000   0.00000   0.00000   0.00000   0.00000
  10        8PX        -1.89987   0.00000   0.00000   0.00000   0.00000
  11        8PY         0.00000  -1.89987   0.00000   0.00000   0.00000
  12        8PZ         0.00000   0.00000   0.00000   0.00000   0.00000
  13        9PX         2.26261   0.00000   0.00000   0.00000   0.00000
  14        9PY         0.00000   2.26261   0.00000   0.00000   0.00000
  15        9PZ         0.00000   0.00000   0.00000   0.00000   0.00000
  16       10PX        -1.14425   0.00000   0.00000   0.00000   0.00000
  17       10PY         0.00000  -1.14425   0.00000   0.00000   0.00000
  18       10PZ         0.00000   0.00000   0.00000   0.00000   0.00000
  19       11PX         0.29683   0.00000   0.00000   0.00000   0.00000
  20       11PY         0.00000   0.29683   0.00000   0.00000   0.00000
  21       11PZ         0.00000   0.00000   0.00000   0.00000   0.00000
  22       12D 0        0.00000   0.00000   0.00000   0.00000   0.00000
  23       12D+1        0.00000   0.00000   0.00000   0.00000  -1.17663
  24       12D-1        0.00000   0.00000   0.00000  -1.17663   0.00000
  25       12D+2        0.00000   0.00000   0.00000   0.00000   0.00000
  26       12D-2        0.00000   0.00000  -1.17663   0.00000   0.00000
  27       13D 0        0.00000   0.00000   0.00000   0.00000   0.00000
  28       13D+1        0.00000   0.00000   0.00000   0.00000   1.52075
  29       13D-1        0.00000   0.00000   0.00000   1.52075   0.00000
  30       13D+2        0.00000   0.00000   0.00000   0.00000   0.00000
  31       13D-2        0.00000   0.00000   1.52075   0.00000   0.00000
  32       14D 0        0.00000   0.00000   0.00000   0.00000   0.00000
  33       14D+1        0.00000   0.00000   0.00000   0.00000   0.22601
  34       14D-1        0.00000   0.00000   0.00000   0.22601   0.00000
  35       14D+2        0.00000   0.00000   0.00000   0.00000   0.00000
  36       14D-2        0.00000   0.00000   0.22601   0.00000   0.00000
  37       15F 0        0.00000   0.00000   0.00000   0.00000   0.00000
  38       15F+1       -0.00000   0.00000   0.00000   0.00000   0.00000
  39       15F-1        0.00000  -0.00000   0.00000   0.00000   0.00000
  40       15F+2        0.00000   0.00000   0.00000   0.00000   0.00000
  41       15F-2        0.00000   0.00000   0.00000   0.00000   0.00000
  42       15F+3        0.00000   0.00000   0.00000   0.00000   0.00000
  43       15F-3        0.00000  -0.00000   0.00000   0.00000   0.00000
  44       16F 0        0.00000   0.00000   0.00000   0.00000   0.00000
  45       16F+1       -0.00000   0.00000   0.00000   0.00000   0.00000
  46       16F-1        0.00000  -0.00000   0.00000   0.00000   0.00000
  47       16F+2        0.00000   0.00000   0.00000   0.00000   0.00000
  48       16F-2        0.00000   0.00000   0.00000   0.00000   0.00000
  49       16F+3        0.00000   0.00000   0.00000   0.00000   0.00000
  50       16F-3        0.00000  -0.00000   0.00000   0.00000   0.00000
                          41        42        43        44        45
                        (EG)--V   (EG)--V  (T2U)--V  (T2U)--V  (T2U)--V
     Eigenvalues --     0.82067   0.82067   0.90136   0.90136   0.90136
   1 1   Mg 1S          0.00000  -0.00000   0.00000   0.00000   0.00000
   2        2S         -0.00000   0.00000   0.00000   0.00000   0.00000
   3        3S         -0.00000   0.00000   0.00000   0.00000   0.00000
   4        4S          0.00000  -0.00000   0.00000   0.00000   0.00000
   5        5S          0.00000  -0.00000   0.00000   0.00000   0.00000
   6        6S         -0.00000   0.00000   0.00000   0.00000   0.00000
   7        7PX         0.00000   0.00000   0.00000   0.00000   0.00000
   8        7PY         0.00000   0.00000   0.00000  -0.00000   0.00000
   9        7PZ         0.00000   0.00000   0.00000   0.00000   0.00000
  10        8PX         0.00000   0.00000  -0.00000   0.00000   0.00000
  11        8PY         0.00000   0.00000   0.00000   0.00000   0.00000
  12        8PZ         0.00000   0.00000   0.00000   0.00000  -0.00000
  13        9PX         0.00000   0.00000   0.00000   0.00000   0.00000
  14        9PY         0.00000   0.00000   0.00000   0.00000   0.00000
  15        9PZ         0.00000   0.00000   0.00000   0.00000   0.00000
  16       10PX         0.00000   0.00000  -0.00000   0.00000   0.00000
  17       10PY         0.00000   0.00000   0.00000  -0.00000   0.00000
  18       10PZ         0.00000   0.00000   0.00000   0.00000  -0.00000
  19       11PX         0.00000   0.00000   0.00000   0.00000   0.00000
  20       11PY         0.00000   0.00000   0.00000  -0.00000   0.00000
  21       11PZ         0.00000   0.00000   0.00000   0.00000   0.00000
  22       12D 0       -1.17440  -0.07238   0.00000   0.00000   0.00000
  23       12D+1        0.00000   0.00000   0.00000   0.00000   0.00000
  24       12D-1        0.00000   0.00000   0.00000   0.00000   0.00000
  25       12D+2        0.07238  -1.17440   0.00000   0.00000   0.00000
  26       12D-2        0.00000   0.00000   0.00000   0.00000   0.00000
  27       13D 0        1.51788   0.09354   0.00000   0.00000   0.00000
  28       13D+1        0.00000   0.00000   0.00000   0.00000   0.00000
  29       13D-1        0.00000   0.00000   0.00000   0.00000   0.00000
  30       13D+2       -0.09354   1.51788   0.00000   0.00000   0.00000
  31       13D-2        0.00000   0.00000   0.00000   0.00000   0.00000
  32       14D 0        0.22559   0.01390   0.00000   0.00000   0.00000
  33       14D+1        0.00000   0.00000   0.00000   0.00000   0.00000
  34       14D-1        0.00000   0.00000   0.00000   0.00000   0.00000
  35       14D+2       -0.01390   0.22559   0.00000   0.00000   0.00000
  36       14D-2        0.00000   0.00000   0.00000   0.00000   0.00000
  37       15F 0        0.00000   0.00000   0.00000   0.00000  -0.00002
  38       15F+1        0.00000   0.00000   0.86274   0.00000   0.00000
  39       15F-1        0.00000   0.00000   0.00000   0.86277   0.00000
  40       15F+2        0.00000   0.00000   0.00000   0.00000   1.09129
  41       15F-2        0.00000   0.00000   0.00000   0.00000   0.00000
  42       15F+3        0.00000   0.00000   0.66827   0.00000   0.00000
  43       15F-3        0.00000   0.00000   0.00000  -0.66824   0.00000
  44       16F 0        0.00000   0.00000   0.00000   0.00000   0.00001
  45       16F+1        0.00000   0.00000  -0.31981   0.00000   0.00000
  46       16F-1        0.00000   0.00000   0.00000  -0.31983   0.00000
  47       16F+2        0.00000   0.00000   0.00000   0.00000  -0.40454
  48       16F-2        0.00000   0.00000   0.00000   0.00000   0.00000
  49       16F+3        0.00000   0.00000  -0.24773   0.00000   0.00000
  50       16F-3        0.00000   0.00000   0.00000   0.24771   0.00000
                          46        47        48        49        50
                       (A2U)--V  (T1U)--V  (T1U)--V  (T1U)--V  (A1G)--V
     Eigenvalues --     0.90136   0.90136   0.90136   0.90136   1.08158
   1 1   Mg 1S          0.00000   0.00000   0.00000   0.00000  -0.02106
   2        2S          0.00000   0.00000   0.00000   0.00000   2.23520
   3        3S          0.00000   0.00000   0.00000   0.00000   5.67927
   4        4S          0.00000   0.00000   0.00000   0.00000  -3.36669
   5        5S          0.00000   0.00000   0.00000   0.00000  -4.28036
   6        6S          0.00000   0.00000   0.00000   0.00000   1.38557
   7        7PX         0.00000  -0.00000   0.00000   0.00000   0.00000
   8        7PY         0.00000   0.00000   0.00000   0.00000   0.00000
   9        7PZ         0.00000   0.00000  -0.00000   0.00000   0.00000
  10        8PX         0.00000   0.00000   0.00000   0.00000   0.00000
  11        8PY         0.00000   0.00000   0.00000  -0.00000   0.00000
  12        8PZ         0.00000   0.00000   0.00000   0.00000   0.00000
  13        9PX         0.00000   0.00000   0.00000   0.00000   0.00000
  14        9PY         0.00000   0.00000   0.00000  -0.00000   0.00000
  15        9PZ         0.00000   0.00000   0.00000   0.00000   0.00000
  16       10PX         0.00000  -0.00000   0.00000   0.00000   0.00000
  17       10PY         0.00000   0.00000   0.00000   0.00000   0.00000
  18       10PZ         0.00000   0.00000  -0.00000   0.00000   0.00000
  19       11PX         0.00000   0.00000   0.00000   0.00000   0.00000
  20       11PY         0.00000   0.00000   0.00000  -0.00000   0.00000
  21       11PZ         0.00000   0.00000   0.00000   0.00000   0.00000
  22       12D 0        0.00000   0.00000   0.00000   0.00000  -0.00000
  23       12D+1        0.00000   0.00000   0.00000   0.00000   0.00000
  24       12D-1        0.00000   0.00000   0.00000   0.00000   0.00000
  25       12D+2        0.00000   0.00000   0.00000   0.00000   0.00000
  26       12D-2        0.00000   0.00000   0.00000   0.00000   0.00000
  27       13D 0        0.00000   0.00000   0.00000   0.00000   0.00000
  28       13D+1        0.00000   0.00000   0.00000   0.00000   0.00000
  29       13D-1        0.00000   0.00000   0.00000   0.00000   0.00000
  30       13D+2        0.00000   0.00000   0.00000   0.00000  -0.00000
  31       13D-2        0.00000   0.00000   0.00000   0.00000   0.00000
  32       14D 0        0.00000   0.00000   0.00000   0.00000   0.00000
  33       14D+1        0.00000   0.00000   0.00000   0.00000   0.00000
  34       14D-1        0.00000   0.00000   0.00000   0.00000   0.00000
  35       14D+2        0.00000   0.00000   0.00000   0.00000  -0.00000
  36       14D-2        0.00000   0.00000   0.00000   0.00000   0.00000
  37       15F 0        0.00000   0.00000   1.09129   0.00000   0.00000
  38       15F+1        0.00000  -0.66827   0.00000   0.00000   0.00000
  39       15F-1        0.00000   0.00000   0.00000   0.66824   0.00000
  40       15F+2        0.00000   0.00000   0.00002   0.00000   0.00000
  41       15F-2        1.09129   0.00000   0.00000   0.00000   0.00000
  42       15F+3        0.00000   0.86274   0.00000   0.00000   0.00000
  43       15F-3        0.00000   0.00000   0.00000   0.86277   0.00000
  44       16F 0        0.00000   0.00000  -0.40454   0.00000   0.00000
  45       16F+1        0.00000   0.24773   0.00000   0.00000   0.00000
  46       16F-1        0.00000   0.00000   0.00000  -0.24771   0.00000
  47       16F+2        0.00000   0.00000  -0.00001   0.00000   0.00000
  48       16F-2       -0.40454   0.00000   0.00000   0.00000   0.00000
  49       16F+3        0.00000  -0.31981   0.00000   0.00000   0.00000
  50       16F-3        0.00000   0.00000   0.00000  -0.31983   0.00000
     Density Matrix:
                           1         2         3         4         5
   1 1   Mg 1S          2.14091
   2        2S         -0.54386   2.13817
   3        3S          0.08277  -0.31531   0.42016
   4        4S         -0.00018  -0.06009   0.30845   0.24205
   5        5S          0.01323  -0.10756   0.27662   0.21223   0.18750
   6        6S          0.00515  -0.00973  -0.00446  -0.00448  -0.00365
   7        7PX         0.00000   0.00000   0.00000   0.00000   0.00000
   8        7PY         0.00000   0.00000   0.00000   0.00000   0.00000
   9        7PZ         0.00000   0.00000   0.00000   0.00000   0.00000
  10        8PX         0.00000   0.00000   0.00000   0.00000   0.00000
  11        8PY         0.00000   0.00000   0.00000   0.00000   0.00000
  12        8PZ         0.00000   0.00000   0.00000   0.00000   0.00000
  13        9PX         0.00000   0.00000   0.00000   0.00000   0.00000
  14        9PY         0.00000   0.00000   0.00000   0.00000   0.00000
  15        9PZ         0.00000   0.00000   0.00000   0.00000   0.00000
  16       10PX         0.00000   0.00000   0.00000   0.00000   0.00000
  17       10PY         0.00000   0.00000   0.00000   0.00000   0.00000
  18       10PZ         0.00000   0.00000   0.00000   0.00000   0.00000
  19       11PX         0.00000   0.00000   0.00000   0.00000   0.00000
  20       11PY         0.00000   0.00000   0.00000   0.00000   0.00000
  21       11PZ         0.00000   0.00000   0.00000   0.00000   0.00000
  22       12D 0       -0.00000  -0.00000  -0.00000  -0.00000  -0.00000
  23       12D+1       -0.00000  -0.00000   0.00000   0.00000   0.00000
  24       12D-1        0.00000   0.00000  -0.00000  -0.00000  -0.00000
  25       12D+2        0.00000  -0.00000  -0.00000  -0.00000   0.00000
  26       12D-2       -0.00000  -0.00000   0.00000   0.00000   0.00000
  27       13D 0       -0.00000  -0.00000   0.00000   0.00000   0.00000
  28       13D+1        0.00000   0.00000  -0.00000  -0.00000  -0.00000
  29       13D-1       -0.00000  -0.00000   0.00000   0.00000   0.00000
  30       13D+2        0.00000   0.00000  -0.00000   0.00000   0.00000
  31       13D-2        0.00000   0.00000  -0.00000  -0.00000  -0.00000
  32       14D 0       -0.00000  -0.00000   0.00000   0.00000   0.00000
  33       14D+1       -0.00000  -0.00000  -0.00000  -0.00000  -0.00000
  34       14D-1       -0.00000  -0.00000   0.00000   0.00000   0.00000
  35       14D+2       -0.00000  -0.00000   0.00000  -0.00000  -0.00000
  36       14D-2       -0.00000  -0.00000  -0.00000  -0.00000  -0.00000
  37       15F 0        0.00000   0.00000   0.00000   0.00000   0.00000
  38       15F+1        0.00000   0.00000   0.00000   0.00000   0.00000
  39       15F-1        0.00000   0.00000   0.00000   0.00000   0.00000
  40       15F+2        0.00000   0.00000   0.00000   0.00000   0.00000
  41       15F-2        0.00000   0.00000   0.00000   0.00000   0.00000
  42       15F+3        0.00000   0.00000   0.00000   0.00000   0.00000
  43       15F-3        0.00000   0.00000   0.00000   0.00000   0.00000
  44       16F 0        0.00000   0.00000   0.00000   0.00000   0.00000
  45       16F+1        0.00000   0.00000   0.00000   0.00000   0.00000
  46       16F-1        0.00000   0.00000   0.00000   0.00000   0.00000
  47       16F+2        0.00000   0.00000   0.00000   0.00000   0.00000
  48       16F-2        0.00000   0.00000   0.00000   0.00000   0.00000
  49       16F+3        0.00000   0.00000   0.00000   0.00000   0.00000
  50       16F-3        0.00000   0.00000   0.00000   0.00000   0.00000
                           6         7         8         9        10
   6        6S          0.00014
   7        7PX         0.00000   1.98846
   8        7PY         0.00000  -0.00000   1.98846
   9        7PZ         0.00000  -0.00000   0.00000   1.98846
  10        8PX         0.00000   0.01718   0.00000   0.00000   0.00015
  11        8PY         0.00000   0.00000   0.01718  -0.00000   0.00000
  12        8PZ         0.00000   0.00000  -0.00000   0.01718   0.00000
  13        9PX         0.00000   0.00299  -0.00000  -0.00000   0.00003
  14        9PY         0.00000  -0.00000   0.00299   0.00000  -0.00000
  15        9PZ         0.00000  -0.00000   0.00000   0.00299  -0.00000
  16       10PX         0.00000  -0.00025   0.00000   0.00000  -0.00000
  17       10PY         0.00000   0.00000  -0.00025  -0.00000   0.00000
  18       10PZ         0.00000   0.00000  -0.00000  -0.00025   0.00000
  19       11PX         0.00000   0.00000   0.00000   0.00000   0.00000
  20       11PY         0.00000   0.00000   0.00000   0.00000   0.00000
  21       11PZ         0.00000   0.00000   0.00000   0.00000   0.00000
  22       12D 0        0.00000   0.00000   0.00000   0.00000   0.00000
  23       12D+1       -0.00000   0.00000   0.00000   0.00000   0.00000
  24       12D-1        0.00000   0.00000   0.00000   0.00000   0.00000
  25       12D+2        0.00000   0.00000   0.00000   0.00000   0.00000
  26       12D-2        0.00000   0.00000   0.00000   0.00000   0.00000
  27       13D 0       -0.00000   0.00000   0.00000   0.00000   0.00000
  28       13D+1       -0.00000   0.00000   0.00000   0.00000   0.00000
  29       13D-1       -0.00000   0.00000   0.00000   0.00000   0.00000
  30       13D+2       -0.00000   0.00000   0.00000   0.00000   0.00000
  31       13D-2       -0.00000   0.00000   0.00000   0.00000   0.00000
  32       14D 0       -0.00000   0.00000   0.00000   0.00000   0.00000
  33       14D+1        0.00000   0.00000   0.00000   0.00000   0.00000
  34       14D-1       -0.00000   0.00000   0.00000   0.00000   0.00000
  35       14D+2        0.00000   0.00000   0.00000   0.00000   0.00000
  36       14D-2        0.00000   0.00000   0.00000   0.00000   0.00000
  37       15F 0        0.00000  -0.00000   0.00000  -0.00000  -0.00000
  38       15F+1        0.00000   0.00000   0.00000  -0.00000   0.00000
  39       15F-1        0.00000   0.00000   0.00000   0.00000   0.00000
  40       15F+2        0.00000   0.00000   0.00000   0.00000   0.00000
  41       15F-2        0.00000  -0.00000   0.00000  -0.00000  -0.00000
  42       15F+3        0.00000  -0.00000  -0.00000   0.00000  -0.00000
  43       15F-3        0.00000  -0.00000   0.00000   0.00000  -0.00000
  44       16F 0        0.00000   0.00000  -0.00000   0.00000   0.00000
  45       16F+1        0.00000  -0.00000   0.00000   0.00000  -0.00000
  46       16F-1        0.00000   0.00000  -0.00000  -0.00000   0.00000
  47       16F+2        0.00000  -0.00000  -0.00000  -0.00000  -0.00000
  48       16F-2        0.00000   0.00000  -0.00000  -0.00000   0.00000
  49       16F+3        0.00000   0.00000   0.00000  -0.00000   0.00000
  50       16F-3        0.00000   0.00000  -0.00000  -0.00000   0.00000
                          11        12        13        14        15
  11        8PY         0.00015
  12        8PZ        -0.00000   0.00015
  13        9PX        -0.00000  -0.00000   0.00000
  14        9PY         0.00003   0.00000  -0.00000   0.00000
  15        9PZ         0.00000   0.00003  -0.00000   0.00000   0.00000
  16       10PX         0.00000   0.00000  -0.00000   0.00000   0.00000
  17       10PY        -0.00000  -0.00000   0.00000  -0.00000  -0.00000
  18       10PZ        -0.00000  -0.00000   0.00000  -0.00000  -0.00000
  19       11PX         0.00000   0.00000   0.00000   0.00000   0.00000
  20       11PY         0.00000   0.00000   0.00000   0.00000   0.00000
  21       11PZ         0.00000   0.00000   0.00000   0.00000   0.00000
  22       12D 0        0.00000   0.00000   0.00000   0.00000   0.00000
  23       12D+1        0.00000   0.00000   0.00000   0.00000   0.00000
  24       12D-1        0.00000   0.00000   0.00000   0.00000   0.00000
  25       12D+2        0.00000   0.00000   0.00000   0.00000   0.00000
  26       12D-2        0.00000   0.00000   0.00000   0.00000   0.00000
  27       13D 0        0.00000   0.00000   0.00000   0.00000   0.00000
  28       13D+1        0.00000   0.00000   0.00000   0.00000   0.00000
  29       13D-1        0.00000   0.00000   0.00000   0.00000   0.00000
  30       13D+2        0.00000   0.00000   0.00000   0.00000   0.00000
  31       13D-2        0.00000   0.00000   0.00000   0.00000   0.00000
  32       14D 0        0.00000   0.00000   0.00000   0.00000   0.00000
  33       14D+1        0.00000   0.00000   0.00000   0.00000   0.00000
  34       14D-1        0.00000   0.00000   0.00000   0.00000   0.00000
  35       14D+2        0.00000   0.00000   0.00000   0.00000   0.00000
  36       14D-2        0.00000   0.00000   0.00000   0.00000   0.00000
  37       15F 0        0.00000  -0.00000  -0.00000   0.00000  -0.00000
  38       15F+1        0.00000  -0.00000   0.00000   0.00000  -0.00000
  39       15F-1        0.00000   0.00000   0.00000   0.00000   0.00000
  40       15F+2        0.00000   0.00000   0.00000   0.00000  -0.00000
  41       15F-2        0.00000  -0.00000  -0.00000   0.00000  -0.00000
  42       15F+3       -0.00000   0.00000  -0.00000  -0.00000   0.00000
  43       15F-3        0.00000   0.00000  -0.00000   0.00000   0.00000
  44       16F 0       -0.00000   0.00000   0.00000  -0.00000   0.00000
  45       16F+1        0.00000   0.00000  -0.00000   0.00000   0.00000
  46       16F-1       -0.00000  -0.00000   0.00000  -0.00000  -0.00000
  47       16F+2       -0.00000  -0.00000  -0.00000  -0.00000  -0.00000
  48       16F-2       -0.00000  -0.00000   0.00000  -0.00000  -0.00000
  49       16F+3        0.00000  -0.00000   0.00000   0.00000  -0.00000
  50       16F-3       -0.00000  -0.00000   0.00000  -0.00000  -0.00000
                          16        17        18        19        20
  16       10PX         0.00000
  17       10PY        -0.00000   0.00000
  18       10PZ        -0.00000   0.00000   0.00000
  19       11PX        -0.00000  -0.00000  -0.00000   0.00000
  20       11PY        -0.00000  -0.00000  -0.00000   0.00000   0.00000
  21       11PZ        -0.00000  -0.00000  -0.00000   0.00000   0.00000
  22       12D 0        0.00000   0.00000   0.00000   0.00000   0.00000
  23       12D+1        0.00000   0.00000   0.00000   0.00000   0.00000
  24       12D-1        0.00000   0.00000   0.00000   0.00000   0.00000
  25       12D+2        0.00000   0.00000   0.00000   0.00000   0.00000
  26       12D-2        0.00000   0.00000   0.00000   0.00000   0.00000
  27       13D 0        0.00000   0.00000   0.00000   0.00000   0.00000
  28       13D+1        0.00000   0.00000   0.00000   0.00000   0.00000
  29       13D-1        0.00000   0.00000   0.00000   0.00000   0.00000
  30       13D+2        0.00000   0.00000   0.00000   0.00000   0.00000
  31       13D-2        0.00000   0.00000   0.00000   0.00000   0.00000
  32       14D 0        0.00000   0.00000   0.00000   0.00000   0.00000
  33       14D+1        0.00000   0.00000   0.00000   0.00000   0.00000
  34       14D-1        0.00000   0.00000   0.00000   0.00000   0.00000
  35       14D+2        0.00000   0.00000   0.00000   0.00000   0.00000
  36       14D-2        0.00000   0.00000   0.00000   0.00000   0.00000
  37       15F 0        0.00000  -0.00000   0.00000  -0.00000   0.00000
  38       15F+1       -0.00000  -0.00000   0.00000   0.00000   0.00000
  39       15F-1       -0.00000  -0.00000  -0.00000   0.00000   0.00000
  40       15F+2       -0.00000  -0.00000   0.00000   0.00000   0.00000
  41       15F-2        0.00000  -0.00000   0.00000  -0.00000   0.00000
  42       15F+3        0.00000   0.00000  -0.00000  -0.00000  -0.00000
  43       15F-3        0.00000  -0.00000  -0.00000  -0.00000   0.00000
  44       16F 0       -0.00000   0.00000  -0.00000   0.00000  -0.00000
  45       16F+1        0.00000  -0.00000  -0.00000  -0.00000   0.00000
  46       16F-1       -0.00000   0.00000   0.00000   0.00000  -0.00000
  47       16F+2        0.00000   0.00000  -0.00000  -0.00000  -0.00000
  48       16F-2       -0.00000   0.00000   0.00000   0.00000  -0.00000
  49       16F+3       -0.00000  -0.00000   0.00000   0.00000   0.00000
  50       16F-3       -0.00000   0.00000   0.00000   0.00000  -0.00000
                          21        22        23        24        25
  21       11PZ         0.00000
  22       12D 0        0.00000   0.00000
  23       12D+1        0.00000   0.00000   0.00000
  24       12D-1        0.00000  -0.00000  -0.00000   0.00000
  25       12D+2        0.00000  -0.00000  -0.00000  -0.00000   0.00000
  26       12D-2        0.00000  -0.00000   0.00000  -0.00000   0.00000
  27       13D 0        0.00000  -0.00000  -0.00000   0.00000  -0.00000
  28       13D+1        0.00000  -0.00000  -0.00000  -0.00000   0.00000
  29       13D-1        0.00000   0.00000  -0.00000  -0.00000   0.00000
  30       13D+2        0.00000   0.00000   0.00000   0.00000  -0.00000
  31       13D-2        0.00000   0.00000  -0.00000  -0.00000  -0.00000
  32       14D 0        0.00000  -0.00000  -0.00000   0.00000   0.00000
  33       14D+1        0.00000  -0.00000  -0.00000   0.00000   0.00000
  34       14D-1        0.00000   0.00000   0.00000  -0.00000   0.00000
  35       14D+2        0.00000  -0.00000   0.00000   0.00000  -0.00000
  36       14D-2        0.00000   0.00000  -0.00000   0.00000  -0.00000
  37       15F 0       -0.00000   0.00000   0.00000   0.00000   0.00000
  38       15F+1       -0.00000   0.00000   0.00000   0.00000   0.00000
  39       15F-1        0.00000   0.00000   0.00000   0.00000   0.00000
  40       15F+2       -0.00000   0.00000   0.00000   0.00000   0.00000
  41       15F-2       -0.00000   0.00000   0.00000   0.00000   0.00000
  42       15F+3        0.00000   0.00000   0.00000   0.00000   0.00000
  43       15F-3        0.00000   0.00000   0.00000   0.00000   0.00000
  44       16F 0        0.00000   0.00000   0.00000   0.00000   0.00000
  45       16F+1        0.00000   0.00000   0.00000   0.00000   0.00000
  46       16F-1       -0.00000   0.00000   0.00000   0.00000   0.00000
  47       16F+2       -0.00000   0.00000   0.00000   0.00000   0.00000
  48       16F-2       -0.00000   0.00000   0.00000   0.00000   0.00000
  49       16F+3       -0.00000   0.00000   0.00000   0.00000   0.00000
  50       16F-3       -0.00000   0.00000   0.00000   0.00000   0.00000
                          26        27        28        29        30
  26       12D-2        0.00000
  27       13D 0       -0.00000   0.00000
  28       13D+1       -0.00000   0.00000   0.00000
  29       13D-1        0.00000  -0.00000   0.00000   0.00000
  30       13D+2       -0.00000   0.00000  -0.00000  -0.00000   0.00000
  31       13D-2       -0.00000   0.00000   0.00000   0.00000   0.00000
  32       14D 0        0.00000   0.00000   0.00000  -0.00000  -0.00000
  33       14D+1       -0.00000   0.00000   0.00000   0.00000  -0.00000
  34       14D-1       -0.00000  -0.00000   0.00000   0.00000  -0.00000
  35       14D+2       -0.00000  -0.00000  -0.00000  -0.00000   0.00000
  36       14D-2       -0.00000   0.00000   0.00000  -0.00000   0.00000
  37       15F 0        0.00000   0.00000   0.00000   0.00000   0.00000
  38       15F+1        0.00000   0.00000   0.00000   0.00000   0.00000
  39       15F-1        0.00000   0.00000   0.00000   0.00000   0.00000
  40       15F+2        0.00000   0.00000   0.00000   0.00000   0.00000
  41       15F-2        0.00000   0.00000   0.00000   0.00000   0.00000
  42       15F+3        0.00000   0.00000   0.00000   0.00000   0.00000
  43       15F-3        0.00000   0.00000   0.00000   0.00000   0.00000
  44       16F 0        0.00000   0.00000   0.00000   0.00000   0.00000
  45       16F+1        0.00000   0.00000   0.00000   0.00000   0.00000
  46       16F-1        0.00000   0.00000   0.00000   0.00000   0.00000
  47       16F+2        0.00000   0.00000   0.00000   0.00000   0.00000
  48       16F-2        0.00000   0.00000   0.00000   0.00000   0.00000
  49       16F+3        0.00000   0.00000   0.00000   0.00000   0.00000
  50       16F-3        0.00000   0.00000   0.00000   0.00000   0.00000
                          31        32        33        34        35
  31       13D-2        0.00000
  32       14D 0       -0.00000   0.00000
  33       14D+1        0.00000   0.00000   0.00000
  34       14D-1        0.00000  -0.00000  -0.00000   0.00000
  35       14D+2        0.00000  -0.00000  -0.00000  -0.00000   0.00000
  36       14D-2        0.00000  -0.00000   0.00000  -0.00000   0.00000
  37       15F 0        0.00000   0.00000   0.00000   0.00000   0.00000
  38       15F+1        0.00000   0.00000   0.00000   0.00000   0.00000
  39       15F-1        0.00000   0.00000   0.00000   0.00000   0.00000
  40       15F+2        0.00000   0.00000   0.00000   0.00000   0.00000
  41       15F-2        0.00000   0.00000   0.00000   0.00000   0.00000
  42       15F+3        0.00000   0.00000   0.00000   0.00000   0.00000
  43       15F-3        0.00000   0.00000   0.00000   0.00000   0.00000
  44       16F 0        0.00000   0.00000   0.00000   0.00000   0.00000
  45       16F+1        0.00000   0.00000   0.00000   0.00000   0.00000
  46       16F-1        0.00000   0.00000   0.00000   0.00000   0.00000
  47       16F+2        0.00000   0.00000   0.00000   0.00000   0.00000
  48       16F-2        0.00000   0.00000   0.00000   0.00000   0.00000
  49       16F+3        0.00000   0.00000   0.00000   0.00000   0.00000
  50       16F-3        0.00000   0.00000   0.00000   0.00000   0.00000
                          36        37        38        39        40
  36       14D-2        0.00000
  37       15F 0        0.00000   0.00000
  38       15F+1        0.00000   0.00000   0.00000
  39       15F-1        0.00000  -0.00000   0.00000   0.00000
  40       15F+2        0.00000   0.00000   0.00000   0.00000   0.00000
  41       15F-2        0.00000   0.00000  -0.00000   0.00000  -0.00000
  42       15F+3        0.00000   0.00000  -0.00000  -0.00000  -0.00000
  43       15F-3        0.00000   0.00000  -0.00000   0.00000   0.00000
  44       16F 0        0.00000  -0.00000  -0.00000   0.00000  -0.00000
  45       16F+1        0.00000  -0.00000  -0.00000   0.00000  -0.00000
  46       16F-1        0.00000   0.00000   0.00000  -0.00000  -0.00000
  47       16F+2        0.00000  -0.00000  -0.00000  -0.00000  -0.00000
  48       16F-2        0.00000   0.00000   0.00000  -0.00000   0.00000
  49       16F+3        0.00000  -0.00000   0.00000   0.00000   0.00000
  50       16F-3        0.00000  -0.00000   0.00000  -0.00000  -0.00000
                          41        42        43        44        45
  41       15F-2        0.00000
  42       15F+3        0.00000   0.00000
  43       15F-3        0.00000   0.00000   0.00000
  44       16F 0       -0.00000  -0.00000  -0.00000   0.00000
  45       16F+1        0.00000   0.00000   0.00000   0.00000   0.00000
  46       16F-1       -0.00000   0.00000  -0.00000  -0.00000  -0.00000
  47       16F+2        0.00000   0.00000  -0.00000   0.00000   0.00000
  48       16F-2       -0.00000  -0.00000  -0.00000  -0.00000  -0.00000
  49       16F+3       -0.00000  -0.00000  -0.00000   0.00000  -0.00000
  50       16F-3       -0.00000  -0.00000  -0.00000   0.00000  -0.00000
                          46        47        48        49        50
  46       16F-1        0.00000
  47       16F+2        0.00000   0.00000
  48       16F-2        0.00000  -0.00000   0.00000
  49       16F+3       -0.00000  -0.00000   0.00000   0.00000
  50       16F-3        0.00000   0.00000   0.00000   0.00000   0.00000
    Full Mulliken population analysis:
                           1         2         3         4         5
   1 1   Mg 1S          2.14091
   2        2S         -0.13779   2.13817
   3        3S         -0.00354  -0.00113   0.42016
   4        4S         -0.00001  -0.02853   0.24620   0.24205
   5        5S          0.00030  -0.01940   0.24280   0.14530   0.18750
   6        6S          0.00006  -0.00092  -0.00276  -0.00187  -0.00316
   7        7PX         0.00000   0.00000   0.00000   0.00000   0.00000
   8        7PY         0.00000   0.00000   0.00000   0.00000   0.00000
   9        7PZ         0.00000   0.00000   0.00000   0.00000   0.00000
  10        8PX         0.00000   0.00000   0.00000   0.00000   0.00000
  11        8PY         0.00000   0.00000   0.00000   0.00000   0.00000
  12        8PZ         0.00000   0.00000   0.00000   0.00000   0.00000
  13        9PX         0.00000   0.00000   0.00000   0.00000   0.00000
  14        9PY         0.00000   0.00000   0.00000   0.00000   0.00000
  15        9PZ         0.00000   0.00000   0.00000   0.00000   0.00000
  16       10PX         0.00000   0.00000   0.00000   0.00000   0.00000
  17       10PY         0.00000   0.00000   0.00000   0.00000   0.00000
  18       10PZ         0.00000   0.00000   0.00000   0.00000   0.00000
  19       11PX         0.00000   0.00000   0.00000   0.00000   0.00000
  20       11PY         0.00000   0.00000   0.00000   0.00000   0.00000
  21       11PZ         0.00000   0.00000   0.00000   0.00000   0.00000
  22       12D 0        0.00000  -0.00000   0.00000   0.00000  -0.00000
  23       12D+1       -0.00000  -0.00000   0.00000  -0.00000  -0.00000
  24       12D-1        0.00000  -0.00000   0.00000  -0.00000   0.00000
  25       12D+2       -0.00000  -0.00000   0.00000  -0.00000   0.00000
  26       12D-2        0.00000   0.00000   0.00000  -0.00000  -0.00000
  27       13D 0       -0.00000   0.00000   0.00000   0.00000   0.00000
  28       13D+1        0.00000   0.00000  -0.00000   0.00000   0.00000
  29       13D-1        0.00000   0.00000  -0.00000   0.00000  -0.00000
  30       13D+2        0.00000  -0.00000  -0.00000   0.00000   0.00000
  31       13D-2       -0.00000  -0.00000   0.00000   0.00000   0.00000
  32       14D 0       -0.00000   0.00000   0.00000  -0.00000   0.00000
  33       14D+1        0.00000   0.00000   0.00000   0.00000  -0.00000
  34       14D-1        0.00000  -0.00000   0.00000   0.00000   0.00000
  35       14D+2        0.00000  -0.00000  -0.00000   0.00000  -0.00000
  36       14D-2        0.00000   0.00000   0.00000   0.00000   0.00000
  37       15F 0        0.00000   0.00000   0.00000   0.00000   0.00000
  38       15F+1        0.00000   0.00000   0.00000   0.00000   0.00000
  39       15F-1        0.00000   0.00000   0.00000   0.00000   0.00000
  40       15F+2        0.00000   0.00000   0.00000   0.00000   0.00000
  41       15F-2        0.00000   0.00000   0.00000   0.00000   0.00000
  42       15F+3        0.00000   0.00000   0.00000   0.00000   0.00000
  43       15F-3        0.00000   0.00000   0.00000   0.00000   0.00000
  44       16F 0        0.00000   0.00000   0.00000   0.00000   0.00000
  45       16F+1        0.00000   0.00000   0.00000   0.00000   0.00000
  46       16F-1        0.00000   0.00000   0.00000   0.00000   0.00000
  47       16F+2        0.00000   0.00000   0.00000   0.00000   0.00000
  48       16F-2        0.00000   0.00000   0.00000   0.00000   0.00000
  49       16F+3        0.00000   0.00000   0.00000   0.00000   0.00000
  50       16F-3        0.00000   0.00000   0.00000   0.00000   0.00000
                           6         7         8         9        10
   6        6S          0.00014
   7        7PX         0.00000   1.98846
   8        7PY         0.00000   0.00000   1.98846
   9        7PZ         0.00000   0.00000   0.00000   1.98846
  10        8PX         0.00000   0.00522  -0.00000   0.00000   0.00015
  11        8PY         0.00000   0.00000   0.00522  -0.00000  -0.00000
  12        8PZ         0.00000   0.00000  -0.00000   0.00522  -0.00000
  13        9PX         0.00000   0.00047   0.00000   0.00000   0.00002
  14        9PY         0.00000  -0.00000   0.00047   0.00000   0.00000
  15        9PZ         0.00000   0.00000   0.00000   0.00047   0.00000
  16       10PX         0.00000  -0.00001  -0.00000  -0.00000  -0.00000
  17       10PY         0.00000  -0.00000  -0.00001  -0.00000  -0.00000
  18       10PZ         0.00000  -0.00000  -0.00000  -0.00001   0.00000
  19       11PX         0.00000   0.00000   0.00000   0.00000   0.00000
  20       11PY         0.00000  -0.00000   0.00000   0.00000   0.00000
  21       11PZ         0.00000  -0.00000   0.00000   0.00000  -0.00000
  22       12D 0       -0.00000   0.00000   0.00000   0.00000   0.00000
  23       12D+1        0.00000   0.00000   0.00000   0.00000   0.00000
  24       12D-1        0.00000   0.00000   0.00000   0.00000   0.00000
  25       12D+2        0.00000   0.00000   0.00000   0.00000   0.00000
  26       12D-2        0.00000   0.00000   0.00000   0.00000   0.00000
  27       13D 0        0.00000   0.00000   0.00000   0.00000   0.00000
  28       13D+1        0.00000   0.00000   0.00000   0.00000   0.00000
  29       13D-1       -0.00000   0.00000   0.00000   0.00000   0.00000
  30       13D+2       -0.00000   0.00000   0.00000   0.00000   0.00000
  31       13D-2        0.00000   0.00000   0.00000   0.00000   0.00000
  32       14D 0        0.00000   0.00000   0.00000   0.00000   0.00000
  33       14D+1       -0.00000   0.00000   0.00000   0.00000   0.00000
  34       14D-1        0.00000   0.00000   0.00000   0.00000   0.00000
  35       14D+2        0.00000   0.00000   0.00000   0.00000   0.00000
  36       14D-2       -0.00000   0.00000   0.00000   0.00000   0.00000
  37       15F 0        0.00000  -0.00000  -0.00000  -0.00000   0.00000
  38       15F+1        0.00000  -0.00000   0.00000  -0.00000   0.00000
  39       15F-1        0.00000   0.00000  -0.00000  -0.00000  -0.00000
  40       15F+2        0.00000  -0.00000  -0.00000  -0.00000  -0.00000
  41       15F-2        0.00000  -0.00000  -0.00000  -0.00000  -0.00000
  42       15F+3        0.00000  -0.00000   0.00000   0.00000   0.00000
  43       15F-3        0.00000   0.00000  -0.00000   0.00000   0.00000
  44       16F 0        0.00000  -0.00000  -0.00000   0.00000   0.00000
  45       16F+1        0.00000   0.00000   0.00000  -0.00000  -0.00000
  46       16F-1        0.00000   0.00000   0.00000  -0.00000   0.00000
  47       16F+2        0.00000  -0.00000   0.00000  -0.00000   0.00000
  48       16F-2        0.00000   0.00000  -0.00000  -0.00000   0.00000
  49       16F+3        0.00000  -0.00000  -0.00000   0.00000  -0.00000
  50       16F-3        0.00000  -0.00000   0.00000  -0.00000  -0.00000
                          11        12        13        14        15
  11        8PY         0.00015
  12        8PZ        -0.00000   0.00015
  13        9PX         0.00000  -0.00000   0.00000
  14        9PY         0.00002   0.00000   0.00000   0.00000
  15        9PZ         0.00000   0.00002   0.00000   0.00000   0.00000
  16       10PX        -0.00000   0.00000  -0.00000   0.00000   0.00000
  17       10PY        -0.00000  -0.00000   0.00000  -0.00000   0.00000
  18       10PZ        -0.00000  -0.00000   0.00000  -0.00000  -0.00000
  19       11PX        -0.00000  -0.00000   0.00000  -0.00000  -0.00000
  20       11PY         0.00000   0.00000  -0.00000   0.00000   0.00000
  21       11PZ         0.00000   0.00000  -0.00000   0.00000   0.00000
  22       12D 0        0.00000   0.00000   0.00000   0.00000   0.00000
  23       12D+1        0.00000   0.00000   0.00000   0.00000   0.00000
  24       12D-1        0.00000   0.00000   0.00000   0.00000   0.00000
  25       12D+2        0.00000   0.00000   0.00000   0.00000   0.00000
  26       12D-2        0.00000   0.00000   0.00000   0.00000   0.00000
  27       13D 0        0.00000   0.00000   0.00000   0.00000   0.00000
  28       13D+1        0.00000   0.00000   0.00000   0.00000   0.00000
  29       13D-1        0.00000   0.00000   0.00000   0.00000   0.00000
  30       13D+2        0.00000   0.00000   0.00000   0.00000   0.00000
  31       13D-2        0.00000   0.00000   0.00000   0.00000   0.00000
  32       14D 0        0.00000   0.00000   0.00000   0.00000   0.00000
  33       14D+1        0.00000   0.00000   0.00000   0.00000   0.00000
  34       14D-1        0.00000   0.00000   0.00000   0.00000   0.00000
  35       14D+2        0.00000   0.00000   0.00000   0.00000   0.00000
  36       14D-2        0.00000   0.00000   0.00000   0.00000   0.00000
  37       15F 0        0.00000   0.00000  -0.00000  -0.00000  -0.00000
  38       15F+1        0.00000   0.00000  -0.00000   0.00000  -0.00000
  39       15F-1        0.00000  -0.00000   0.00000  -0.00000  -0.00000
  40       15F+2       -0.00000  -0.00000   0.00000  -0.00000   0.00000
  41       15F-2        0.00000  -0.00000  -0.00000   0.00000  -0.00000
  42       15F+3        0.00000  -0.00000   0.00000   0.00000   0.00000
  43       15F-3        0.00000   0.00000   0.00000   0.00000   0.00000
  44       16F 0        0.00000  -0.00000   0.00000  -0.00000  -0.00000
  45       16F+1        0.00000   0.00000  -0.00000   0.00000   0.00000
  46       16F-1       -0.00000   0.00000  -0.00000  -0.00000   0.00000
  47       16F+2        0.00000   0.00000   0.00000   0.00000  -0.00000
  48       16F-2        0.00000  -0.00000   0.00000   0.00000  -0.00000
  49       16F+3       -0.00000   0.00000  -0.00000  -0.00000  -0.00000
  50       16F-3       -0.00000  -0.00000  -0.00000  -0.00000  -0.00000
                          16        17        18        19        20
  16       10PX         0.00000
  17       10PY         0.00000   0.00000
  18       10PZ         0.00000   0.00000   0.00000
  19       11PX        -0.00000   0.00000  -0.00000   0.00000
  20       11PY        -0.00000  -0.00000  -0.00000  -0.00000   0.00000
  21       11PZ        -0.00000  -0.00000  -0.00000   0.00000   0.00000
  22       12D 0        0.00000   0.00000   0.00000   0.00000   0.00000
  23       12D+1        0.00000   0.00000   0.00000   0.00000   0.00000
  24       12D-1        0.00000   0.00000   0.00000   0.00000   0.00000
  25       12D+2        0.00000   0.00000   0.00000   0.00000   0.00000
  26       12D-2        0.00000   0.00000   0.00000   0.00000   0.00000
  27       13D 0        0.00000   0.00000   0.00000   0.00000   0.00000
  28       13D+1        0.00000   0.00000   0.00000   0.00000   0.00000
  29       13D-1        0.00000   0.00000   0.00000   0.00000   0.00000
  30       13D+2        0.00000   0.00000   0.00000   0.00000   0.00000
  31       13D-2        0.00000   0.00000   0.00000   0.00000   0.00000
  32       14D 0        0.00000   0.00000   0.00000   0.00000   0.00000
  33       14D+1        0.00000   0.00000   0.00000   0.00000   0.00000
  34       14D-1        0.00000   0.00000   0.00000   0.00000   0.00000
  35       14D+2        0.00000   0.00000   0.00000   0.00000   0.00000
  36       14D-2        0.00000   0.00000   0.00000   0.00000   0.00000
  37       15F 0        0.00000  -0.00000  -0.00000   0.00000   0.00000
  38       15F+1       -0.00000  -0.00000  -0.00000   0.00000  -0.00000
  39       15F-1       -0.00000  -0.00000  -0.00000   0.00000   0.00000
  40       15F+2        0.00000   0.00000  -0.00000  -0.00000  -0.00000
  41       15F-2        0.00000   0.00000   0.00000  -0.00000  -0.00000
  42       15F+3       -0.00000  -0.00000  -0.00000   0.00000   0.00000
  43       15F-3       -0.00000  -0.00000  -0.00000   0.00000   0.00000
  44       16F 0       -0.00000  -0.00000   0.00000  -0.00000  -0.00000
  45       16F+1        0.00000  -0.00000  -0.00000  -0.00000   0.00000
  46       16F-1       -0.00000   0.00000  -0.00000  -0.00000  -0.00000
  47       16F+2       -0.00000  -0.00000  -0.00000   0.00000   0.00000
  48       16F-2       -0.00000  -0.00000   0.00000   0.00000  -0.00000
  49       16F+3        0.00000   0.00000   0.00000  -0.00000  -0.00000
  50       16F-3        0.00000   0.00000   0.00000  -0.00000  -0.00000
                          21        22        23        24        25
  21       11PZ         0.00000
  22       12D 0        0.00000   0.00000
  23       12D+1        0.00000  -0.00000   0.00000
  24       12D-1        0.00000  -0.00000  -0.00000   0.00000
  25       12D+2        0.00000   0.00000   0.00000   0.00000   0.00000
  26       12D-2        0.00000  -0.00000   0.00000   0.00000   0.00000
  27       13D 0        0.00000  -0.00000  -0.00000  -0.00000  -0.00000
  28       13D+1        0.00000   0.00000  -0.00000  -0.00000  -0.00000
  29       13D-1        0.00000   0.00000   0.00000  -0.00000  -0.00000
  30       13D+2        0.00000   0.00000  -0.00000  -0.00000  -0.00000
  31       13D-2        0.00000   0.00000  -0.00000  -0.00000   0.00000
  32       14D 0        0.00000  -0.00000   0.00000  -0.00000  -0.00000
  33       14D+1        0.00000   0.00000  -0.00000  -0.00000   0.00000
  34       14D-1        0.00000  -0.00000  -0.00000  -0.00000  -0.00000
  35       14D+2        0.00000  -0.00000  -0.00000  -0.00000  -0.00000
  36       14D-2        0.00000   0.00000  -0.00000   0.00000   0.00000
  37       15F 0        0.00000   0.00000   0.00000   0.00000   0.00000
  38       15F+1        0.00000   0.00000   0.00000   0.00000   0.00000
  39       15F-1        0.00000   0.00000   0.00000   0.00000   0.00000
  40       15F+2        0.00000   0.00000   0.00000   0.00000   0.00000
  41       15F-2       -0.00000   0.00000   0.00000   0.00000   0.00000
  42       15F+3        0.00000   0.00000   0.00000   0.00000   0.00000
  43       15F-3        0.00000   0.00000   0.00000   0.00000   0.00000
  44       16F 0       -0.00000   0.00000   0.00000   0.00000   0.00000
  45       16F+1        0.00000   0.00000   0.00000   0.00000   0.00000
  46       16F-1       -0.00000   0.00000   0.00000   0.00000   0.00000
  47       16F+2        0.00000   0.00000   0.00000   0.00000   0.00000
  48       16F-2       -0.00000   0.00000   0.00000   0.00000   0.00000
  49       16F+3       -0.00000   0.00000   0.00000   0.00000   0.00000
  50       16F-3       -0.00000   0.00000   0.00000   0.00000   0.00000
                          26        27        28        29        30
  26       12D-2        0.00000
  27       13D 0       -0.00000   0.00000
  28       13D+1       -0.00000  -0.00000   0.00000
  29       13D-1       -0.00000  -0.00000   0.00000   0.00000
  30       13D+2        0.00000  -0.00000   0.00000   0.00000   0.00000
  31       13D-2       -0.00000   0.00000   0.00000  -0.00000   0.00000
  32       14D 0        0.00000   0.00000   0.00000  -0.00000  -0.00000
  33       14D+1       -0.00000   0.00000   0.00000  -0.00000   0.00000
  34       14D-1        0.00000  -0.00000  -0.00000   0.00000   0.00000
  35       14D+2       -0.00000   0.00000   0.00000   0.00000   0.00000
  36       14D-2       -0.00000   0.00000   0.00000   0.00000   0.00000
  37       15F 0        0.00000   0.00000   0.00000   0.00000   0.00000
  38       15F+1        0.00000   0.00000   0.00000   0.00000   0.00000
  39       15F-1        0.00000   0.00000   0.00000   0.00000   0.00000
  40       15F+2        0.00000   0.00000   0.00000   0.00000   0.00000
  41       15F-2        0.00000   0.00000   0.00000   0.00000   0.00000
  42       15F+3        0.00000   0.00000   0.00000   0.00000   0.00000
  43       15F-3        0.00000   0.00000   0.00000   0.00000   0.00000
  44       16F 0        0.00000   0.00000   0.00000   0.00000   0.00000
  45       16F+1        0.00000   0.00000   0.00000   0.00000   0.00000
  46       16F-1        0.00000   0.00000   0.00000   0.00000   0.00000
  47       16F+2        0.00000   0.00000   0.00000   0.00000   0.00000
  48       16F-2        0.00000   0.00000   0.00000   0.00000   0.00000
  49       16F+3        0.00000   0.00000   0.00000   0.00000   0.00000
  50       16F-3        0.00000   0.00000   0.00000   0.00000   0.00000
                          31        32        33        34        35
  31       13D-2        0.00000
  32       14D 0       -0.00000   0.00000
  33       14D+1        0.00000  -0.00000   0.00000
  34       14D-1       -0.00000  -0.00000  -0.00000   0.00000
  35       14D+2        0.00000   0.00000   0.00000   0.00000   0.00000
  36       14D-2        0.00000  -0.00000   0.00000   0.00000   0.00000
  37       15F 0        0.00000   0.00000   0.00000   0.00000   0.00000
  38       15F+1        0.00000   0.00000   0.00000   0.00000   0.00000
  39       15F-1        0.00000   0.00000   0.00000   0.00000   0.00000
  40       15F+2        0.00000   0.00000   0.00000   0.00000   0.00000
  41       15F-2        0.00000   0.00000   0.00000   0.00000   0.00000
  42       15F+3        0.00000   0.00000   0.00000   0.00000   0.00000
  43       15F-3        0.00000   0.00000   0.00000   0.00000   0.00000
  44       16F 0        0.00000   0.00000   0.00000   0.00000   0.00000
  45       16F+1        0.00000   0.00000   0.00000   0.00000   0.00000
  46       16F-1        0.00000   0.00000   0.00000   0.00000   0.00000
  47       16F+2        0.00000   0.00000   0.00000   0.00000   0.00000
  48       16F-2        0.00000   0.00000   0.00000   0.00000   0.00000
  49       16F+3        0.00000   0.00000   0.00000   0.00000   0.00000
  50       16F-3        0.00000   0.00000   0.00000   0.00000   0.00000
                          36        37        38        39        40
  36       14D-2        0.00000
  37       15F 0        0.00000   0.00000
  38       15F+1        0.00000   0.00000   0.00000
  39       15F-1        0.00000   0.00000   0.00000   0.00000
  40       15F+2        0.00000  -0.00000  -0.00000  -0.00000   0.00000
  41       15F-2        0.00000  -0.00000  -0.00000   0.00000  -0.00000
  42       15F+3        0.00000   0.00000  -0.00000  -0.00000   0.00000
  43       15F-3        0.00000  -0.00000  -0.00000  -0.00000  -0.00000
  44       16F 0        0.00000  -0.00000  -0.00000  -0.00000   0.00000
  45       16F+1        0.00000  -0.00000  -0.00000   0.00000   0.00000
  46       16F-1        0.00000  -0.00000  -0.00000  -0.00000   0.00000
  47       16F+2        0.00000  -0.00000   0.00000  -0.00000  -0.00000
  48       16F-2        0.00000  -0.00000   0.00000   0.00000  -0.00000
  49       16F+3        0.00000  -0.00000   0.00000  -0.00000  -0.00000
  50       16F-3        0.00000   0.00000   0.00000   0.00000  -0.00000
                          41        42        43        44        45
  41       15F-2        0.00000
  42       15F+3        0.00000   0.00000
  43       15F-3        0.00000   0.00000   0.00000
  44       16F 0        0.00000   0.00000  -0.00000   0.00000
  45       16F+1        0.00000   0.00000   0.00000  -0.00000   0.00000
  46       16F-1        0.00000   0.00000   0.00000   0.00000   0.00000
  47       16F+2       -0.00000   0.00000  -0.00000  -0.00000   0.00000
  48       16F-2       -0.00000   0.00000  -0.00000   0.00000  -0.00000
  49       16F+3        0.00000  -0.00000   0.00000   0.00000   0.00000
  50       16F-3        0.00000  -0.00000  -0.00000   0.00000  -0.00000
                          46        47        48        49        50
  46       16F-1        0.00000
  47       16F+2       -0.00000   0.00000
  48       16F-2        0.00000   0.00000   0.00000
  49       16F+3       -0.00000   0.00000  -0.00000   0.00000
  50       16F-3        0.00000   0.00000   0.00000   0.00000   0.00000
     Gross orbital populations:
                           1
   1 1   Mg 1S          1.99992
   2        2S          1.95038
   3        3S          0.90173
   4        4S          0.60313
   5        5S          0.55334
   6        6S         -0.00851
   7        7PX         1.99414
   8        7PY         1.99414
   9        7PZ         1.99414
  10        8PX         0.00539
  11        8PY         0.00539
  12        8PZ         0.00539
  13        9PX         0.00049
  14        9PY         0.00049
  15        9PZ         0.00049
  16       10PX        -0.00001
  17       10PY        -0.00001
  18       10PZ        -0.00001
  19       11PX         0.00000
  20       11PY         0.00000
  21       11PZ         0.00000
  22       12D 0        0.00000
  23       12D+1        0.00000
  24       12D-1        0.00000
  25       12D+2        0.00000
  26       12D-2        0.00000
  27       13D 0        0.00000
  28       13D+1        0.00000
  29       13D-1        0.00000
  30       13D+2        0.00000
  31       13D-2        0.00000
  32       14D 0        0.00000
  33       14D+1        0.00000
  34       14D-1        0.00000
  35       14D+2        0.00000
  36       14D-2        0.00000
  37       15F 0        0.00000
  38       15F+1        0.00000
  39       15F-1        0.00000
  40       15F+2        0.00000
  41       15F-2        0.00000
  42       15F+3        0.00000
  43       15F-3        0.00000
  44       16F 0       -0.00000
  45       16F+1       -0.00000
  46       16F-1       -0.00000
  47       16F+2        0.00000
  48       16F-2       -0.00000
  49       16F+3       -0.00000
  50       16F-3       -0.00000
          Condensed to atoms (all electrons):
               1
     1  Mg  12.000000
 Mulliken charges:
               1
     1  Mg   0.000000
 Sum of Mulliken charges =   0.00000
 Mulliken charges with hydrogens summed into heavy atoms:
               1
     1  Mg   0.000000
 Electronic spatial extent (au):  <R**2>=             28.1510
 Charge=              0.0000 electrons
 Dipole moment (field-independent basis, Debye):
    X=              0.0000    Y=              0.0000    Z=              0.0000  Tot=              0.0000
 Quadrupole moment (field-independent basis, Debye-Ang):
   XX=            -12.6213   YY=            -12.6213   ZZ=            -12.6213
   XY=              0.0000   XZ=              0.0000   YZ=              0.0000
 Traceless Quadrupole moment (field-independent basis, Debye-Ang):
   XX=              0.0000   YY=              0.0000   ZZ=              0.0000
   XY=              0.0000   XZ=              0.0000   YZ=              0.0000
 Octapole moment (field-independent basis, Debye-Ang**2):
  XXX=              0.0000  YYY=              0.0000  ZZZ=              0.0000  XYY=              0.0000
  XXY=              0.0000  XXZ=              0.0000  XZZ=              0.0000  YZZ=              0.0000
  YYZ=              0.0000  XYZ=              0.0000
 Hexadecapole moment (field-independent basis, Debye-Ang**3):
 XXXX=            -37.0373 YYYY=            -37.0373 ZZZZ=            -37.0373 XXXY=              0.0000
 XXXZ=             -0.0000 YYYX=             -0.0000 YYYZ=              0.0000 ZZZX=              0.0000
 ZZZY=             -0.0000 XXYY=            -12.3458 XXZZ=            -12.3458 YYZZ=            -12.3458
 XXYZ=             -0.0000 YYXZ=              0.0000 ZZXY=              0.0000
 N-N= 0.000000000000D+00 E-N=-4.785956779515D+02  KE= 1.992141283369D+02
 Symmetry AG   KE= 1.530206688323D+02
 Symmetry B1G  KE= 3.136369453557D-61
 Symmetry B2G  KE= 2.995566626291D-61
 Symmetry B3G  KE= 3.283085137913D-61
 Symmetry AU   KE= 1.294737741595D-57
 Symmetry B1U  KE= 1.539781983486D+01
 Symmetry B2U  KE= 1.539781983486D+01
 Symmetry B3U  KE= 1.539781983486D+01
 Orbital energies and kinetic energies (alpha):
                                 1                 2
   1         (A1G)--O        -46.835309         67.232639
   2         (A1G)--O         -3.102631          8.633321
   3         (T1U)--O         -1.846468          7.698910
   4         (T1U)--O         -1.846468          7.698910
   5         (T1U)--O         -1.846468          7.698910
   6         (A1G)--O         -0.194574          0.644375
   7         (T1U)--V         -0.033833          0.262420
   8         (T1U)--V         -0.033833          0.262420
   9         (T1U)--V         -0.033833          0.262420
  10         (A1G)--V          0.004937          0.110837
  11         (T1U)--V          0.018328          0.097859
  12         (T1U)--V          0.018328          0.097859
  13         (T1U)--V          0.018328          0.097859
  14         (T2G)--V          0.043288          0.093818
  15         (T2G)--V          0.043288          0.093818
  16         (T2G)--V          0.043288          0.093818
  17         (EG)--V           0.043288          0.093818
  18         (EG)--V           0.043288          0.093818
  19         (T1U)--V          0.129910          0.446747
  20         (T1U)--V          0.129910          0.446747
  21         (T1U)--V          0.129910          0.446747
  22         (A1G)--V          0.136011          0.551563
  23         (T2U)--V          0.214084          0.299704
  24         (T2U)--V          0.214084          0.299704
  25         (T2U)--V          0.214084          0.299704
  26         (A2U)--V          0.214084          0.299704
  27         (T1U)--V          0.214084          0.299704
  28         (T1U)--V          0.214084          0.299704
  29         (T1U)--V          0.214084          0.299704
  30         (T2G)--V          0.242797          0.457699
  31         (T2G)--V          0.242797          0.457699
  32         (T2G)--V          0.242797          0.457699
  33         (EG)--V           0.242797          0.457699
  34         (EG)--V           0.242797          0.457699
  35         (T1U)--V          0.571011          1.740799
  36         (T1U)--V          0.571011          1.740799
  37         (T1U)--V          0.571011          1.740799
  38         (T2G)--V          0.820672          1.351314
  39         (T2G)--V          0.820672          1.351314
  40         (T2G)--V          0.820672          1.351314
  41         (EG)--V           0.820672          1.351314
  42         (EG)--V           0.820672          1.351314
  43         (T2U)--V          0.901358          1.230288
  44         (T2U)--V          0.901358          1.230288
  45         (T2U)--V          0.901358          1.230288
  46         (A2U)--V          0.901358          1.230288
  47         (T1U)--V          0.901358          1.230288
  48         (T1U)--V          0.901358          1.230288
  49         (T1U)--V          0.901358          1.230288
  50         (A1G)--V          1.081575          4.363979
 Total kinetic energy from orbitals= 1.992141283369D+02
 1\1\GINC-LOGIN\SP\RB3LYP\Aug-CC-pVTZ\Mg1\C7441090\20-Nov-2023\0\\# B3L
 YP/aug-cc-pVTZ EmpiricalDispersion=GD3 Pop=Full\\Magnesium\\0,1\Mg,0,0
 .,0.,0.\\Version=ES64L-G16RevA.03\State=1-A1G\HF=-200.0977526\RMSD=1.5
 70e-10\Dipole=0.,0.,0.\Quadrupole=0.,0.,0.,0.,0.,0.\PG=OH [O(Mg1)]\\@


 My opinions may have changed, but not the fact that I am right.
                       -- Ashleigh Brilliant
 Job cpu time:       0 days  0 hours  0 minutes 50.7 seconds.
 Elapsed time:       0 days  0 hours  0 minutes 26.8 seconds.
 File lengths (MBytes):  RWF=      5 Int=      0 D2E=      0 Chk=      1 Scr=      1
 Normal termination of Gaussian 16 at Mon Nov 20 23:52:24 2023.
