Nitrogen                                                                
SP        UB3LYP                                                      Aug-CC-pVTZ         
Number of atoms                            I                1
Info1-9                                    I   N=           9
          12          11           0           0           0         110
           1          18        -502
Full Title                                 C   N=           1
Nitrogen    
Route                                      C   N=           5
# B3LYP/aug-cc-pVTZ EmpiricalDispersion=GD3 Pop=Full        
Charge                                     I                0
Multiplicity                               I                4
Number of electrons                        I                7
Number of alpha electrons                  I                5
Number of beta electrons                   I                2
Number of basis functions                  I               46
Number of independent functions            I               46
Number of point charges in /Mol/           I                0
Number of translation vectors              I                0
Atomic numbers                             I   N=           1
           7
Nuclear charges                            R   N=           1
  7.00000000E+00
Current cartesian coordinates              R   N=           3
  0.00000000E+00  0.00000000E+00  0.00000000E+00
Number of symbols in /Mol/                 I                0
Force Field                                I                0
Atom Types                                 C   N=           1
            
Int Atom Types                             I   N=           1
           0
MM charges                                 R   N=           1
  0.00000000E+00
Integer atomic weights                     I   N=           1
          14
Real atomic weights                        R   N=           1
  1.40030740E+01
Atom fragment info                         I   N=           1
           0
Atom residue num                           I   N=           1
           0
Nuclear spins                              I   N=           1
           2
Nuclear ZEff                               R   N=           1
 -4.55000000E+00
Nuclear ZNuc                               R   N=           1
  7.00000000E+00
Nuclear QMom                               R   N=           1
  2.04400000E+00
Nuclear GFac                               R   N=           1
  4.03761000E-01
MicOpt                                     I   N=           1
          -1
Number of residues                         I                0
Number of secondary structures             I                0
SymInf integers                            I   N=          26
           1           8           1           1           1           1
          -1          -1          -1           1          -1          -1
          -1           1          -1          -1          -1          -1
           1           1           1          -1           1           1
           1          -1
RotTr to input orientation                 R   N=          12
  0.00000000E+00  0.00000000E+00 -1.00000000E+00  0.00000000E+00  1.00000000E+00
  0.00000000E+00  1.00000000E+00  0.00000000E+00  0.00000000E+00  0.00000000E+00
  0.00000000E+00  0.00000000E+00
Number of contracted shells                I               14
Number of primitive shells                 I               27
Pure/Cartesian d shells                    I                0
Pure/Cartesian f shells                    I                0
Highest angular momentum                   I                3
Largest degree of contraction              I                7
Shell types                                I   N=          14
           0           0           0           0           0           1
           1           1           1          -2          -2          -2
          -3          -3
Number of primitives per shell             I   N=          14
           7           6           1           1           1           3
           1           1           1           1           1           1
           1           1
Shell to atom map                          I   N=          14
           1           1           1           1           1           1
           1           1           1           1           1           1
           1           1
Primitive exponents                        R   N=          27
  1.14200000E+04  1.71200000E+03  3.89300000E+02  1.10000000E+02  3.55700000E+01
  1.25400000E+01  4.64400000E+00  3.89300000E+02  1.10000000E+02  3.55700000E+01
  1.25400000E+01  4.64400000E+00  5.11800000E-01  1.29300000E+00  1.78700000E-01
  5.76000000E-02  2.66300000E+01  5.94800000E+00  1.74200000E+00  5.55000000E-01
  1.72500000E-01  4.91000000E-02  1.65400000E+00  4.69000000E-01  1.51000000E-01
  1.09300000E+00  3.64000000E-01
Contraction coefficients                   R   N=          27
  5.34563860E-04  4.13435660E-03  2.12335358E-02  8.25006224E-02  2.38138871E-01
  4.42551547E-01  3.53757422E-01 -4.89867350E-05 -1.19527323E-03 -1.03490714E-02
 -6.48680190E-02 -1.71552477E-01  1.07289568E+00  1.00000000E+00  1.00000000E+00
  1.00000000E+00  3.98072123E-02  2.49002660E-01  8.10479727E-01  1.00000000E+00
  1.00000000E+00  1.00000000E+00  1.00000000E+00  1.00000000E+00  1.00000000E+00
  1.00000000E+00  1.00000000E+00
Coordinates of each shell                  R   N=          42
  0.00000000E+00  0.00000000E+00  0.00000000E+00  0.00000000E+00  0.00000000E+00
  0.00000000E+00  0.00000000E+00  0.00000000E+00  0.00000000E+00  0.00000000E+00
  0.00000000E+00  0.00000000E+00  0.00000000E+00  0.00000000E+00  0.00000000E+00
  0.00000000E+00  0.00000000E+00  0.00000000E+00  0.00000000E+00  0.00000000E+00
  0.00000000E+00  0.00000000E+00  0.00000000E+00  0.00000000E+00  0.00000000E+00
  0.00000000E+00  0.00000000E+00  0.00000000E+00  0.00000000E+00  0.00000000E+00
  0.00000000E+00  0.00000000E+00  0.00000000E+00  0.00000000E+00  0.00000000E+00
  0.00000000E+00  0.00000000E+00  0.00000000E+00  0.00000000E+00  0.00000000E+00
  0.00000000E+00  0.00000000E+00
Num ILSW                                   I              100
ILSW                                       I   N=         100
           1           0           0           0           2           0
           0           0           0           0         402          -1
           5           0           0           0           0           0
           0           0           1           0           0           0
           1           0           0           0           0           0
           0           0      100000           0          -1           0
           0           0           0           0           0           0
           0           0           0           1           0           0
           0 -2000000000           1           0           0           0
           0           0         131          52           0           0
           0           0           5           0           0           0
           0           0           0           0           0           1
           0           0           0           0           0           0
           0           0           0           0           0           0
           0           0           0           0           0           0
           0           0           0           0           0           0
           0           0           0           0
Num RLSW                                   I               52
RLSW                                       R   N=          52
  8.00000000E-01  7.20000000E-01  1.00000000E+00  8.10000000E-01  2.00000000E-01
  0.00000000E+00  0.00000000E+00  1.00000000E+00  0.00000000E+00  0.00000000E+00
  0.00000000E+00  0.00000000E+00  1.00000000E+00  0.00000000E+00  0.00000000E+00
  0.00000000E+00  0.00000000E+00  1.00000000E+00  0.00000000E+00  0.00000000E+00
  0.00000000E+00  0.00000000E+00  1.00000000E+00  0.00000000E+00  0.00000000E+00
  0.00000000E+00  0.00000000E+00  1.00000000E+00  0.00000000E+00  0.00000000E+00
  0.00000000E+00  0.00000000E+00  1.00000000E+00  0.00000000E+00  0.00000000E+00
  0.00000000E+00  0.00000000E+00  0.00000000E+00  1.00000000E+00  1.00000000E+00
  0.00000000E+00  1.00000000E+00  0.00000000E+00  0.00000000E+00  0.00000000E+00
  0.00000000E+00  0.00000000E+00  0.00000000E+00  0.00000000E+00  0.00000000E+00
  0.00000000E+00  0.00000000E+00
MxBond                                     I                1
NBond                                      I   N=           1
           0
IBond                                      I   N=           1
           0
RBond                                      R   N=           1
  0.00000000E+00
Virial Ratio                               R      2.005658599978929E+00
SCF Energy                                 R     -5.460289067783862E+01
Total Energy                               R     -5.460289067783862E+01
S**2                                       R      3.753512326706847E+00
S**2 after annihilation                    R      3.750000016710013E+00
RMS Density                                R      1.431068025047538E-09
Job Status                                 I                1
Nuclear derivative order                   I                0
External E-field                           R   N=          35
  0.00000000E+00  0.00000000E+00  0.00000000E+00  0.00000000E+00  0.00000000E+00
  0.00000000E+00  0.00000000E+00  0.00000000E+00  0.00000000E+00  0.00000000E+00
  0.00000000E+00  0.00000000E+00  0.00000000E+00  0.00000000E+00  0.00000000E+00
  0.00000000E+00  0.00000000E+00  0.00000000E+00  0.00000000E+00  0.00000000E+00
  0.00000000E+00  0.00000000E+00  0.00000000E+00  0.00000000E+00  0.00000000E+00
  0.00000000E+00  0.00000000E+00  0.00000000E+00  0.00000000E+00  0.00000000E+00
  0.00000000E+00  0.00000000E+00  0.00000000E+00  0.00000000E+00  0.00000000E+00
IOpCl                                      I                1
IROHF                                      I                0
Alpha Orbital Energies                     R   N=          46
 -1.44414117E+01 -8.14216925E-01 -3.59309438E-01 -3.59309438E-01 -3.59309438E-01
  4.60115320E-02  7.85160692E-02  7.85160692E-02  7.85160692E-02  3.39005495E-01
  3.39005495E-01  3.39005495E-01  3.39005495E-01  3.39005495E-01  5.62772130E-01
  5.62772130E-01  5.62772130E-01  7.71873171E-01  1.27654860E+00  1.27654860E+00
  1.27654860E+00  1.27654860E+00  1.27654860E+00  1.28502601E+00  1.28502601E+00
  1.28502601E+00  1.28502601E+00  1.28502601E+00  1.28502601E+00  1.28502601E+00
  2.84515584E+00  2.84515584E+00  2.84515584E+00  4.43754058E+00  4.43754058E+00
  4.43754058E+00  4.43754058E+00  4.43754058E+00  4.43754058E+00  4.43754058E+00
  4.53755699E+00  4.53755699E+00  4.53755699E+00  4.53755699E+00  4.53755699E+00
  5.74205815E+00
Beta Orbital Energies                      R   N=          46
 -1.43831968E+01 -6.19158057E-01 -1.16331463E-01 -1.16331463E-01 -1.16331463E-01
  6.03261665E-02  9.80005034E-02  9.80005034E-02  9.80005034E-02  3.58340393E-01
  3.58340393E-01  3.58340393E-01  3.58340393E-01  3.58340393E-01  6.35430151E-01
  6.35430151E-01  6.35430151E-01  8.50094835E-01  1.32423756E+00  1.32423756E+00
  1.32423756E+00  1.32423756E+00  1.32423756E+00  1.32423756E+00  1.32423756E+00
  1.37008102E+00  1.37008102E+00  1.37008102E+00  1.37008102E+00  1.37008102E+00
  2.96760708E+00  2.96760708E+00  2.96760708E+00  4.55831364E+00  4.55831364E+00
  4.55831364E+00  4.55831364E+00  4.55831364E+00  4.55831364E+00  4.55831364E+00
  4.70478480E+00  4.70478480E+00  4.70478480E+00  4.70478480E+00  4.70478480E+00
  5.84491423E+00
Alpha MO coefficients                      R   N=        2116
  9.71797943E-01 -1.34353163E-02  5.39370566E-02  4.63507594E-03 -1.06762035E-03
  0.00000000E+00  0.00000000E+00  0.00000000E+00  0.00000000E+00  0.00000000E+00
  0.00000000E+00  0.00000000E+00  0.00000000E+00  0.00000000E+00  0.00000000E+00
  0.00000000E+00  0.00000000E+00 -1.23315029E-16  0.00000000E+00  0.00000000E+00
 -6.34050278E-16  0.00000000E+00 -1.26895606E-16  0.00000000E+00  0.00000000E+00
  5.02725779E-16  0.00000000E+00  7.53817982E-17  0.00000000E+00  0.00000000E+00
 -1.76480788E-16  0.00000000E+00  0.00000000E+00  0.00000000E+00  0.00000000E+00
  0.00000000E+00  0.00000000E+00  0.00000000E+00  0.00000000E+00  0.00000000E+00
  0.00000000E+00  0.00000000E+00  0.00000000E+00  0.00000000E+00  0.00000000E+00
  0.00000000E+00 -2.29881916E-01  5.72724102E-01  1.74040527E-01  3.53557667E-01
  3.18895918E-03  0.00000000E+00  0.00000000E+00  0.00000000E+00  0.00000000E+00
  0.00000000E+00  0.00000000E+00  0.00000000E+00  0.00000000E+00  0.00000000E+00
  0.00000000E+00  0.00000000E+00  0.00000000E+00 -3.88911467E-16  0.00000000E+00
  0.00000000E+00 -1.27968790E-16  0.00000000E+00 -2.64355390E-16  0.00000000E+00
  0.00000000E+00  4.03290670E-16  0.00000000E+00  1.28311879E-16  0.00000000E+00
  0.00000000E+00 -2.50437155E-16  0.00000000E+00  0.00000000E+00  0.00000000E+00
  0.00000000E+00  0.00000000E+00  0.00000000E+00  0.00000000E+00  0.00000000E+00
  0.00000000E+00  0.00000000E+00  0.00000000E+00  0.00000000E+00  0.00000000E+00
  0.00000000E+00  0.00000000E+00  0.00000000E+00  0.00000000E+00  0.00000000E+00
  0.00000000E+00  0.00000000E+00  0.00000000E+00  0.00000000E+00  3.83246984E-01
  0.00000000E+00  0.00000000E+00  4.77010994E-01  0.00000000E+00  0.00000000E+00
  3.33172817E-01  0.00000000E+00  0.00000000E+00  3.42794708E-02  0.00000000E+00
  0.00000000E+00  0.00000000E+00  0.00000000E+00  0.00000000E+00  0.00000000E+00
  0.00000000E+00  0.00000000E+00  0.00000000E+00  0.00000000E+00  0.00000000E+00
  0.00000000E+00  0.00000000E+00  0.00000000E+00  0.00000000E+00 -6.50872645E-12
  0.00000000E+00  0.00000000E+00  1.44631194E-16  0.00000000E+00  0.00000000E+00
  0.00000000E+00 -7.62387960E-12  0.00000000E+00  0.00000000E+00 -1.98132775E-16
  0.00000000E+00  0.00000000E+00  0.00000000E+00  0.00000000E+00  0.00000000E+00
  0.00000000E+00  0.00000000E+00  0.00000000E+00  0.00000000E+00  3.83246984E-01
  0.00000000E+00  0.00000000E+00  4.77010994E-01  0.00000000E+00  0.00000000E+00
  3.33172817E-01  0.00000000E+00  0.00000000E+00  3.42794708E-02  0.00000000E+00
  0.00000000E+00  0.00000000E+00  0.00000000E+00  0.00000000E+00  0.00000000E+00
  0.00000000E+00  0.00000000E+00  0.00000000E+00  0.00000000E+00  0.00000000E+00
  0.00000000E+00  0.00000000E+00  0.00000000E+00  0.00000000E+00  0.00000000E+00
  0.00000000E+00  0.00000000E+00  3.98583203E-12  0.00000000E+00  0.00000000E+00
  0.00000000E+00  5.14544678E-12  0.00000000E+00  0.00000000E+00  4.66868346E-12
  0.00000000E+00  0.00000000E+00  0.00000000E+00  6.02742962E-12  0.00000000E+00
  0.00000000E+00  0.00000000E+00  0.00000000E+00  0.00000000E+00  3.83246984E-01
  0.00000000E+00  0.00000000E+00  4.77010994E-01  0.00000000E+00  0.00000000E+00
  3.33172817E-01  0.00000000E+00  0.00000000E+00  3.42794708E-02  0.00000000E+00
  0.00000000E+00  0.00000000E+00  0.00000000E+00  0.00000000E+00  0.00000000E+00
  0.00000000E+00  0.00000000E+00  0.00000000E+00  0.00000000E+00  0.00000000E+00
  0.00000000E+00  0.00000000E+00  0.00000000E+00  0.00000000E+00  0.00000000E+00
  0.00000000E+00  0.00000000E+00  3.98572141E-12  0.00000000E+00  0.00000000E+00
  0.00000000E+00 -5.14564130E-12  0.00000000E+00  0.00000000E+00  4.66877048E-12
  0.00000000E+00  0.00000000E+00  0.00000000E+00 -6.02726090E-12  0.00000000E+00
  7.70356354E-02 -1.31925800E-01 -7.00984230E-02 -7.90802284E-01  1.49576602E+00
  0.00000000E+00  0.00000000E+00  0.00000000E+00  0.00000000E+00  0.00000000E+00
  0.00000000E+00  0.00000000E+00  0.00000000E+00  0.00000000E+00  0.00000000E+00
  0.00000000E+00  0.00000000E+00 -1.38859999E-16  0.00000000E+00  0.00000000E+00
 -7.89573977E-17  0.00000000E+00  4.93813621E-16  0.00000000E+00  0.00000000E+00
  8.40615628E-16  0.00000000E+00  3.61078844E-16  0.00000000E+00  0.00000000E+00
 -1.08726127E-15  0.00000000E+00  0.00000000E+00  0.00000000E+00  0.00000000E+00
  0.00000000E+00  0.00000000E+00  0.00000000E+00  0.00000000E+00  0.00000000E+00
  0.00000000E+00  0.00000000E+00  0.00000000E+00  0.00000000E+00  0.00000000E+00
  0.00000000E+00  0.00000000E+00  0.00000000E+00  0.00000000E+00  0.00000000E+00
  0.00000000E+00  0.00000000E+00  0.00000000E+00 -1.23686891E-01  0.00000000E+00
  0.00000000E+00 -1.14352079E-01  0.00000000E+00  0.00000000E+00 -2.92372203E-01
  0.00000000E+00  0.00000000E+00  1.14032575E+00  0.00000000E+00  0.00000000E+00
  0.00000000E+00  0.00000000E+00  0.00000000E+00  0.00000000E+00  0.00000000E+00
  0.00000000E+00  0.00000000E+00  0.00000000E+00  0.00000000E+00  0.00000000E+00
  0.00000000E+00  0.00000000E+00  0.00000000E+00  2.15731366E-12  0.00000000E+00
  0.00000000E+00 -1.00811699E-16  0.00000000E+00  0.00000000E+00  0.00000000E+00
 -1.72384349E-12  0.00000000E+00  0.00000000E+00 -1.52856699E-16  0.00000000E+00
  0.00000000E+00  0.00000000E+00  0.00000000E+00  0.00000000E+00  0.00000000E+00
  0.00000000E+00  0.00000000E+00 -1.23686891E-01  0.00000000E+00  0.00000000E+00
 -1.14352079E-01  0.00000000E+00  0.00000000E+00 -2.92372203E-01  0.00000000E+00
  0.00000000E+00  1.14032575E+00  0.00000000E+00  0.00000000E+00  0.00000000E+00
  0.00000000E+00  0.00000000E+00  0.00000000E+00  0.00000000E+00  0.00000000E+00
  0.00000000E+00  0.00000000E+00  0.00000000E+00  0.00000000E+00  0.00000000E+00
  0.00000000E+00  0.00000000E+00  0.00000000E+00  0.00000000E+00  0.00000000E+00
 -1.32106497E-12  0.00000000E+00  0.00000000E+00  0.00000000E+00  1.70546123E-12
  0.00000000E+00  0.00000000E+00  1.05567811E-12  0.00000000E+00  0.00000000E+00
  0.00000000E+00 -1.36281190E-12  0.00000000E+00  0.00000000E+00  0.00000000E+00
  0.00000000E+00  0.00000000E+00  0.00000000E+00  0.00000000E+00 -1.23686891E-01
  0.00000000E+00  0.00000000E+00 -1.14352079E-01  0.00000000E+00  0.00000000E+00
 -2.92372203E-01  0.00000000E+00  0.00000000E+00  1.14032575E+00  0.00000000E+00
  0.00000000E+00  0.00000000E+00  0.00000000E+00  0.00000000E+00  0.00000000E+00
  0.00000000E+00  0.00000000E+00  0.00000000E+00  0.00000000E+00  0.00000000E+00
  0.00000000E+00  0.00000000E+00  0.00000000E+00  0.00000000E+00  0.00000000E+00
  0.00000000E+00  0.00000000E+00 -1.32079134E-12  0.00000000E+00  0.00000000E+00
  0.00000000E+00 -1.70563210E-12  0.00000000E+00  0.00000000E+00  1.05540787E-12
  0.00000000E+00  0.00000000E+00  0.00000000E+00  1.36301451E-12  0.00000000E+00
  0.00000000E+00  0.00000000E+00  0.00000000E+00  0.00000000E+00  0.00000000E+00
  0.00000000E+00  0.00000000E+00  0.00000000E+00  0.00000000E+00  0.00000000E+00
  0.00000000E+00  0.00000000E+00  0.00000000E+00  0.00000000E+00  0.00000000E+00
  0.00000000E+00  0.00000000E+00  3.72693206E-02  0.00000000E+00  0.00000000E+00
  0.00000000E+00  0.00000000E+00 -5.62395715E-02  0.00000000E+00  0.00000000E+00
  0.00000000E+00  0.00000000E+00  1.02746833E+00  0.00000000E+00  0.00000000E+00
  0.00000000E+00  0.00000000E+00  0.00000000E+00  0.00000000E+00  0.00000000E+00
  0.00000000E+00  0.00000000E+00  0.00000000E+00  0.00000000E+00  0.00000000E+00
  0.00000000E+00  0.00000000E+00  0.00000000E+00  0.00000000E+00  0.00000000E+00
  0.00000000E+00  0.00000000E+00  0.00000000E+00  0.00000000E+00  0.00000000E+00
  0.00000000E+00  0.00000000E+00  0.00000000E+00  0.00000000E+00  0.00000000E+00
  0.00000000E+00  0.00000000E+00  0.00000000E+00  0.00000000E+00  0.00000000E+00
  0.00000000E+00  0.00000000E+00  0.00000000E+00  0.00000000E+00  3.72693206E-02
  0.00000000E+00  0.00000000E+00  0.00000000E+00  0.00000000E+00 -5.62395715E-02
  0.00000000E+00  0.00000000E+00  0.00000000E+00  0.00000000E+00  1.02746833E+00
  0.00000000E+00  0.00000000E+00  0.00000000E+00  0.00000000E+00  0.00000000E+00
  0.00000000E+00  0.00000000E+00  0.00000000E+00  0.00000000E+00  0.00000000E+00
  0.00000000E+00  0.00000000E+00  0.00000000E+00  0.00000000E+00  0.00000000E+00
  0.00000000E+00  0.00000000E+00  0.00000000E+00  0.00000000E+00  0.00000000E+00
  0.00000000E+00  0.00000000E+00  0.00000000E+00  0.00000000E+00  0.00000000E+00
  0.00000000E+00  0.00000000E+00  0.00000000E+00  0.00000000E+00  0.00000000E+00
  0.00000000E+00  0.00000000E+00  0.00000000E+00  0.00000000E+00  0.00000000E+00
  0.00000000E+00  0.00000000E+00  3.72693206E-02  0.00000000E+00  0.00000000E+00
  0.00000000E+00  0.00000000E+00 -5.62395715E-02  0.00000000E+00  0.00000000E+00
  0.00000000E+00  0.00000000E+00  1.02746833E+00  0.00000000E+00  0.00000000E+00
  0.00000000E+00  0.00000000E+00  0.00000000E+00  0.00000000E+00  0.00000000E+00
  0.00000000E+00  0.00000000E+00  0.00000000E+00  0.00000000E+00  0.00000000E+00
  0.00000000E+00  0.00000000E+00 -2.54757312E-17  1.79938813E-15  3.09245579E-16
 -2.69629707E-15  8.46264284E-16  0.00000000E+00  0.00000000E+00  0.00000000E+00
  0.00000000E+00  0.00000000E+00  0.00000000E+00  0.00000000E+00  0.00000000E+00
  0.00000000E+00  0.00000000E+00  0.00000000E+00  0.00000000E+00  3.55552144E-02
  0.00000000E+00  0.00000000E+00  1.11726895E-02  0.00000000E+00 -5.36529775E-02
  0.00000000E+00  0.00000000E+00 -1.68596385E-02  0.00000000E+00  9.80212575E-01
  0.00000000E+00  0.00000000E+00  3.08017009E-01  0.00000000E+00  0.00000000E+00
  0.00000000E+00  0.00000000E+00  0.00000000E+00  0.00000000E+00  0.00000000E+00
  0.00000000E+00  0.00000000E+00  0.00000000E+00  0.00000000E+00  0.00000000E+00
  0.00000000E+00  0.00000000E+00  0.00000000E+00  5.55228426E-17 -1.70767348E-15
 -3.09336666E-16  2.02422969E-15  1.00639337E-16  0.00000000E+00  0.00000000E+00
  0.00000000E+00  0.00000000E+00  0.00000000E+00  0.00000000E+00  0.00000000E+00
  0.00000000E+00  0.00000000E+00  0.00000000E+00  0.00000000E+00  0.00000000E+00
 -1.11726895E-02  0.00000000E+00  0.00000000E+00  3.55552144E-02  0.00000000E+00
  1.68596385E-02  0.00000000E+00  0.00000000E+00 -5.36529775E-02  0.00000000E+00
 -3.08017009E-01  0.00000000E+00  0.00000000E+00  9.80212575E-01  0.00000000E+00
  0.00000000E+00  0.00000000E+00  0.00000000E+00  0.00000000E+00  0.00000000E+00
  0.00000000E+00  0.00000000E+00  0.00000000E+00  0.00000000E+00  0.00000000E+00
  0.00000000E+00  0.00000000E+00  0.00000000E+00  0.00000000E+00  0.00000000E+00
  0.00000000E+00  0.00000000E+00  0.00000000E+00  0.00000000E+00  0.00000000E+00
 -2.76911611E-01  0.00000000E+00  0.00000000E+00 -7.87770794E-01  0.00000000E+00
  0.00000000E+00  1.61120131E+00  0.00000000E+00  0.00000000E+00 -7.32298269E-01
  0.00000000E+00  0.00000000E+00  0.00000000E+00  0.00000000E+00  0.00000000E+00
  0.00000000E+00  0.00000000E+00  0.00000000E+00  0.00000000E+00  0.00000000E+00
  0.00000000E+00  0.00000000E+00  0.00000000E+00  0.00000000E+00  0.00000000E+00
  0.00000000E+00  0.00000000E+00  0.00000000E+00 -3.49796277E-12  0.00000000E+00
  0.00000000E+00  0.00000000E+00 -4.51545232E-12  0.00000000E+00  0.00000000E+00
  1.12133646E-11  0.00000000E+00  0.00000000E+00  0.00000000E+00  1.44757345E-11
  0.00000000E+00  0.00000000E+00  0.00000000E+00  0.00000000E+00  0.00000000E+00
  0.00000000E+00  0.00000000E+00 -2.76911611E-01  0.00000000E+00  0.00000000E+00
 -7.87770794E-01  0.00000000E+00  0.00000000E+00  1.61120131E+00  0.00000000E+00
  0.00000000E+00 -7.32298269E-01  0.00000000E+00  0.00000000E+00  0.00000000E+00
  0.00000000E+00  0.00000000E+00  0.00000000E+00  0.00000000E+00  0.00000000E+00
  0.00000000E+00  0.00000000E+00  0.00000000E+00  0.00000000E+00  0.00000000E+00
  0.00000000E+00  0.00000000E+00  5.71157603E-12  0.00000000E+00  0.00000000E+00
  3.14565811E-16  0.00000000E+00  0.00000000E+00  0.00000000E+00 -1.83094171E-11
  0.00000000E+00  0.00000000E+00 -2.11210602E-16  0.00000000E+00  0.00000000E+00
  0.00000000E+00  0.00000000E+00  0.00000000E+00  0.00000000E+00  0.00000000E+00
  0.00000000E+00 -2.76911611E-01  0.00000000E+00  0.00000000E+00 -7.87770794E-01
  0.00000000E+00  0.00000000E+00  1.61120131E+00  0.00000000E+00  0.00000000E+00
 -7.32298269E-01  0.00000000E+00  0.00000000E+00  0.00000000E+00  0.00000000E+00
  0.00000000E+00  0.00000000E+00  0.00000000E+00  0.00000000E+00  0.00000000E+00
  0.00000000E+00  0.00000000E+00  0.00000000E+00  0.00000000E+00  0.00000000E+00
  0.00000000E+00  0.00000000E+00  0.00000000E+00  0.00000000E+00 -3.49761406E-12
  0.00000000E+00  0.00000000E+00  0.00000000E+00  4.51598066E-12  0.00000000E+00
  0.00000000E+00  1.12116617E-11  0.00000000E+00  0.00000000E+00  0.00000000E+00
 -1.44769428E-11  0.00000000E+00  4.93290525E-02 -1.49022040E+00 -3.88104548E-01
  2.73270668E+00 -1.21076988E+00  0.00000000E+00  0.00000000E+00  0.00000000E+00
  0.00000000E+00  0.00000000E+00  0.00000000E+00  0.00000000E+00  0.00000000E+00
  0.00000000E+00  0.00000000E+00  0.00000000E+00  0.00000000E+00  3.83314196E-16
  0.00000000E+00  0.00000000E+00  8.07680818E-16  0.00000000E+00 -6.24181318E-15
  0.00000000E+00  0.00000000E+00 -2.88309075E-15  0.00000000E+00  4.65732059E-15
  0.00000000E+00  0.00000000E+00  7.47003636E-16  0.00000000E+00  0.00000000E+00
  0.00000000E+00  0.00000000E+00  0.00000000E+00  0.00000000E+00  0.00000000E+00
  0.00000000E+00  0.00000000E+00  0.00000000E+00  0.00000000E+00  0.00000000E+00
  0.00000000E+00  0.00000000E+00  0.00000000E+00  0.00000000E+00  0.00000000E+00
  0.00000000E+00  0.00000000E+00  0.00000000E+00  0.00000000E+00  0.00000000E+00
  0.00000000E+00  0.00000000E+00  0.00000000E+00  0.00000000E+00  0.00000000E+00
  0.00000000E+00  0.00000000E+00  0.00000000E+00  0.00000000E+00  0.00000000E+00
  0.00000000E+00  0.00000000E+00  0.00000000E+00  0.00000000E+00  1.64823416E-02
  0.00000000E+00  0.00000000E+00  0.00000000E+00  0.00000000E+00  1.22254713E+00
  0.00000000E+00  0.00000000E+00  0.00000000E+00  0.00000000E+00 -6.94028018E-01
  0.00000000E+00  0.00000000E+00  0.00000000E+00  0.00000000E+00  0.00000000E+00
  0.00000000E+00  0.00000000E+00  0.00000000E+00  0.00000000E+00  0.00000000E+00
  0.00000000E+00  0.00000000E+00  0.00000000E+00  0.00000000E+00  0.00000000E+00
  0.00000000E+00  0.00000000E+00  0.00000000E+00  0.00000000E+00  0.00000000E+00
  0.00000000E+00  0.00000000E+00  0.00000000E+00  0.00000000E+00  0.00000000E+00
  0.00000000E+00  0.00000000E+00  0.00000000E+00  0.00000000E+00  0.00000000E+00
  0.00000000E+00  0.00000000E+00  0.00000000E+00  1.64823416E-02  0.00000000E+00
  0.00000000E+00  0.00000000E+00  0.00000000E+00  1.22254713E+00  0.00000000E+00
  0.00000000E+00  0.00000000E+00  0.00000000E+00 -6.94028018E-01  0.00000000E+00
  0.00000000E+00  0.00000000E+00  0.00000000E+00  0.00000000E+00  0.00000000E+00
  0.00000000E+00  0.00000000E+00  0.00000000E+00  0.00000000E+00  0.00000000E+00
  0.00000000E+00  0.00000000E+00  0.00000000E+00  0.00000000E+00  0.00000000E+00
  0.00000000E+00  0.00000000E+00  0.00000000E+00  0.00000000E+00  0.00000000E+00
  0.00000000E+00  0.00000000E+00  0.00000000E+00  0.00000000E+00  0.00000000E+00
  0.00000000E+00  0.00000000E+00  0.00000000E+00  0.00000000E+00  0.00000000E+00
  0.00000000E+00  0.00000000E+00  0.00000000E+00  1.64823416E-02  0.00000000E+00
  0.00000000E+00  0.00000000E+00  0.00000000E+00  1.22254713E+00  0.00000000E+00
  0.00000000E+00  0.00000000E+00  0.00000000E+00 -6.94028018E-01  0.00000000E+00
  0.00000000E+00  0.00000000E+00  0.00000000E+00  0.00000000E+00  0.00000000E+00
  0.00000000E+00  0.00000000E+00  0.00000000E+00  0.00000000E+00  0.00000000E+00
  0.00000000E+00  0.00000000E+00  0.00000000E+00  0.00000000E+00  0.00000000E+00
  0.00000000E+00  1.87508651E-15 -2.69335144E-15 -5.28952147E-15  1.00849718E-14
 -5.24520195E-15  0.00000000E+00  0.00000000E+00  0.00000000E+00  0.00000000E+00
  0.00000000E+00  0.00000000E+00  0.00000000E+00  0.00000000E+00  0.00000000E+00
  0.00000000E+00  0.00000000E+00  0.00000000E+00  1.63632441E-02  0.00000000E+00
  0.00000000E+00  1.97783381E-03  0.00000000E+00  1.21371330E+00  0.00000000E+00
  0.00000000E+00  1.46702156E-01  0.00000000E+00 -6.89013137E-01  0.00000000E+00
  0.00000000E+00 -8.32813753E-02  0.00000000E+00  0.00000000E+00  0.00000000E+00
  0.00000000E+00  0.00000000E+00  0.00000000E+00  0.00000000E+00  0.00000000E+00
  0.00000000E+00  0.00000000E+00  0.00000000E+00  0.00000000E+00  0.00000000E+00
  0.00000000E+00  0.00000000E+00  4.40230731E-16 -1.33119004E-15 -1.17179332E-15
  3.36687712E-15 -2.05915061E-15  0.00000000E+00  0.00000000E+00  0.00000000E+00
  0.00000000E+00  0.00000000E+00  0.00000000E+00  0.00000000E+00  0.00000000E+00
  0.00000000E+00  0.00000000E+00  0.00000000E+00  0.00000000E+00 -1.97783381E-03
  0.00000000E+00  0.00000000E+00  1.63632441E-02  0.00000000E+00 -1.46702156E-01
  0.00000000E+00  0.00000000E+00  1.21371330E+00  0.00000000E+00  8.32813753E-02
  0.00000000E+00  0.00000000E+00 -6.89013137E-01  0.00000000E+00  0.00000000E+00
  0.00000000E+00  0.00000000E+00  0.00000000E+00  0.00000000E+00  0.00000000E+00
  0.00000000E+00  0.00000000E+00  0.00000000E+00  0.00000000E+00  0.00000000E+00
  0.00000000E+00  0.00000000E+00  0.00000000E+00  0.00000000E+00  0.00000000E+00
  0.00000000E+00  0.00000000E+00  0.00000000E+00  0.00000000E+00  5.39436436E-16
  0.00000000E+00  0.00000000E+00  7.31195906E-16  0.00000000E+00  0.00000000E+00
 -1.44576598E-15  0.00000000E+00  0.00000000E+00  6.16680026E-17  0.00000000E+00
  0.00000000E+00  0.00000000E+00  0.00000000E+00  0.00000000E+00  0.00000000E+00
  0.00000000E+00  0.00000000E+00  0.00000000E+00  0.00000000E+00  0.00000000E+00
  0.00000000E+00  0.00000000E+00  0.00000000E+00  0.00000000E+00  0.00000000E+00
  0.00000000E+00  0.00000000E+00 -7.68728821E-02  0.00000000E+00  0.00000000E+00
  0.00000000E+00  5.95422109E-02  0.00000000E+00  0.00000000E+00  8.28064467E-01
  0.00000000E+00  0.00000000E+00  0.00000000E+00 -6.41380782E-01  0.00000000E+00
  0.00000000E+00  0.00000000E+00  0.00000000E+00  0.00000000E+00 -7.36138004E-16
  0.00000000E+00  0.00000000E+00 -1.23693045E-15  0.00000000E+00  0.00000000E+00
  3.19179100E-15  0.00000000E+00  0.00000000E+00 -1.23406155E-15  0.00000000E+00
  0.00000000E+00  0.00000000E+00  0.00000000E+00  0.00000000E+00  0.00000000E+00