 Entering Gaussian System, Link 0=g16
 Input=N.com
 Output=N.log
 Initial command:
 /usr/site/hpc/x86_64/glibc-2.17/broadwell/gaussian/g16_a.03/pgi-16.5/g16/l1.exe "/home/c744/c7441090/data/Gau-3859181.inp" -scrdir="/home/c744/c7441090/data/"
 Entering Link 1 = /usr/site/hpc/x86_64/glibc-2.17/broadwell/gaussian/g16_a.03/pgi-16.5/g16/l1.exe PID=   3859182.
  
 Copyright (c) 1988,1990,1992,1993,1995,1998,2003,2009,2016,
            Gaussian, Inc.  All Rights Reserved.
  
 This is part of the Gaussian(R) 16 program.  It is based on
 the Gaussian(R) 09 system (copyright 2009, Gaussian, Inc.),
 the Gaussian(R) 03 system (copyright 2003, Gaussian, Inc.),
 the Gaussian(R) 98 system (copyright 1998, Gaussian, Inc.),
 the Gaussian(R) 94 system (copyright 1995, Gaussian, Inc.),
 the Gaussian 92(TM) system (copyright 1992, Gaussian, Inc.),
 the Gaussian 90(TM) system (copyright 1990, Gaussian, Inc.),
 the Gaussian 88(TM) system (copyright 1988, Gaussian, Inc.),
 the Gaussian 86(TM) system (copyright 1986, Carnegie Mellon
 University), and the Gaussian 82(TM) system (copyright 1983,
 Carnegie Mellon University). Gaussian is a federally registered
 trademark of Gaussian, Inc.
  
 This software contains proprietary and confidential information,
 including trade secrets, belonging to Gaussian, Inc.
  
 This software is provided under written license and may be
 used, copied, transmitted, or stored only in accord with that
 written license.
  
 The following legend is applicable only to US Government
 contracts under FAR:
  
                    RESTRICTED RIGHTS LEGEND
  
 Use, reproduction and disclosure by the US Government is
 subject to restrictions as set forth in subparagraphs (a)
 and (c) of the Commercial Computer Software - Restricted
 Rights clause in FAR 52.227-19.
  
 Gaussian, Inc.
 340 Quinnipiac St., Bldg. 40, Wallingford CT 06492
  
  
 ---------------------------------------------------------------
 Warning -- This program may not be used in any manner that
 competes with the business of Gaussian, Inc. or will provide
 assistance to any competitor of Gaussian, Inc.  The licensee
 of this program is prohibited from giving any competitor of
 Gaussian, Inc. access to this program.  By using this program,
 the user acknowledges that Gaussian, Inc. is engaged in the
 business of creating and licensing software in the field of
 computational chemistry and represents and warrants to the
 licensee that it is not a competitor of Gaussian, Inc. and that
 it will not use this program in any manner prohibited above.
 ---------------------------------------------------------------
  

 Cite this work as:
 Gaussian 16, Revision A.03,
 M. J. Frisch, G. W. Trucks, H. B. Schlegel, G. E. Scuseria, 
 M. A. Robb, J. R. Cheeseman, G. Scalmani, V. Barone, 
 G. A. Petersson, H. Nakatsuji, X. Li, M. Caricato, A. V. Marenich, 
 J. Bloino, B. G. Janesko, R. Gomperts, B. Mennucci, H. P. Hratchian, 
 J. V. Ortiz, A. F. Izmaylov, J. L. Sonnenberg, D. Williams-Young, 
 F. Ding, F. Lipparini, F. Egidi, J. Goings, B. Peng, A. Petrone, 
 T. Henderson, D. Ranasinghe, V. G. Zakrzewski, J. Gao, N. Rega, 
 G. Zheng, W. Liang, M. Hada, M. Ehara, K. Toyota, R. Fukuda, 
 J. Hasegawa, M. Ishida, T. Nakajima, Y. Honda, O. Kitao, H. Nakai, 
 T. Vreven, K. Throssell, J. A. Montgomery, Jr., J. E. Peralta, 
 F. Ogliaro, M. J. Bearpark, J. J. Heyd, E. N. Brothers, K. N. Kudin, 
 V. N. Staroverov, T. A. Keith, R. Kobayashi, J. Normand, 
 K. Raghavachari, A. P. Rendell, J. C. Burant, S. S. Iyengar, 
 J. Tomasi, M. Cossi, J. M. Millam, M. Klene, C. Adamo, R. Cammi, 
 J. W. Ochterski, R. L. Martin, K. Morokuma, O. Farkas, 
 J. B. Foresman, and D. J. Fox, Gaussian, Inc., Wallingford CT, 2016.
 
 ******************************************
 Gaussian 16:  ES64L-G16RevA.03 25-Dec-2016
                20-Nov-2023 
 ******************************************
 %NProcShared=4
 Will use up to    4 processors via shared memory.
 %Mem=1GB
 %Chk=N.chk
 ----------------------------------------------------
 # B3LYP/aug-cc-pVTZ EmpiricalDispersion=GD3 Pop=Full
 ----------------------------------------------------
 1/38=1,172=1/1;
 2/12=2,17=6,18=5,40=1/2;
 3/5=16,6=1,7=10,11=2,25=1,30=1,74=-5,124=31/1,2,3;
 4//1;
 5/5=2,38=5/2;
 6/7=3,28=1/1;
 99/5=1,9=1/99;
 --------
 Nitrogen
 --------
 Symbolic Z-matrix:
 Charge =  0 Multiplicity = 4
 N                     0.        0.        0. 
 
                          Input orientation:                          
 ---------------------------------------------------------------------
 Center     Atomic      Atomic             Coordinates (Angstroms)
 Number     Number       Type             X           Y           Z
 ---------------------------------------------------------------------
      1          7           0        0.000000    0.000000    0.000000
 ---------------------------------------------------------------------
 Stoichiometry    N(4)
 Framework group  OH[O(N)]
 Deg. of freedom     0
 Full point group                 OH      NOp  48
 Largest Abelian subgroup         D2H     NOp   8
 Largest concise Abelian subgroup C1      NOp   1
                         Standard orientation:                         
 ---------------------------------------------------------------------
 Center     Atomic      Atomic             Coordinates (Angstroms)
 Number     Number       Type             X           Y           Z
 ---------------------------------------------------------------------
      1          7           0        0.000000    0.000000    0.000000
 ---------------------------------------------------------------------
 Standard basis: Aug-CC-pVTZ (5D, 7F)
 There are    14 symmetry adapted cartesian basis functions of AG  symmetry.
 There are     3 symmetry adapted cartesian basis functions of B1G symmetry.
 There are     3 symmetry adapted cartesian basis functions of B2G symmetry.
 There are     3 symmetry adapted cartesian basis functions of B3G symmetry.
 There are     2 symmetry adapted cartesian basis functions of AU  symmetry.
 There are    10 symmetry adapted cartesian basis functions of B1U symmetry.
 There are    10 symmetry adapted cartesian basis functions of B2U symmetry.
 There are    10 symmetry adapted cartesian basis functions of B3U symmetry.
 There are    11 symmetry adapted basis functions of AG  symmetry.
 There are     3 symmetry adapted basis functions of B1G symmetry.
 There are     3 symmetry adapted basis functions of B2G symmetry.
 There are     3 symmetry adapted basis functions of B3G symmetry.
 There are     2 symmetry adapted basis functions of AU  symmetry.
 There are     8 symmetry adapted basis functions of B1U symmetry.
 There are     8 symmetry adapted basis functions of B2U symmetry.
 There are     8 symmetry adapted basis functions of B3U symmetry.
    46 basis functions,    72 primitive gaussians,    55 cartesian basis functions
     5 alpha electrons        2 beta electrons
       nuclear repulsion energy         0.0000000000 Hartrees.
 NAtoms=    1 NActive=    1 NUniq=    1 SFac= 1.00D+00 NAtFMM=   60 NAOKFM=F Big=F
 Integral buffers will be    131072 words long.
 Raffenetti 2 integral format.
 Two-electron integral symmetry is turned on.
 Nuclear repulsion after empirical dispersion term =        0.0000000000 Hartrees.
 One-electron integrals computed using PRISM.
 NBasis=    46 RedAO= T EigKep=  3.23D-02  NBF=    11     3     3     3     2     8     8     8
 NBsUse=    46 1.00D-06 EigRej= -1.00D+00 NBFU=    11     3     3     3     2     8     8     8
 ExpMin= 4.91D-02 ExpMax= 1.14D+04 ExpMxC= 3.89D+02 IAcc=3 IRadAn=         5 AccDes= 0.00D+00
 Harris functional with IExCor=  402 and IRadAn=       5 diagonalized for initial guess.
 HarFok:  IExCor=  402 AccDes= 0.00D+00 IRadAn=         5 IDoV= 1 UseB2=F ITyADJ=14
 ICtDFT=  3500011 ScaDFX=  1.000000  1.000000  1.000000  1.000000
 FoFCou: FMM=F IPFlag=           0 FMFlag=      100000 FMFlg1=           0
         NFxFlg=           0 DoJE=T BraDBF=F KetDBF=T FulRan=T
         wScrn=  0.000000 ICntrl=       500 IOpCl=  0 I1Cent=   200000004 NGrid=           0
         NMat0=    1 NMatS0=      1 NMatT0=    0 NMatD0=    1 NMtDS0=    0 NMtDT0=    0
 Petite list used in FoFCou.
 Initial guess orbital symmetries:
 Alpha Orbitals:
       Occupied  (A1G) (A1G) (T1U) (T1U) (T1U)
       Virtual   (A1G) (T1U) (T1U) (T1U) (T2G) (T2G) (T2G) (EG)
                 (EG) (T1U) (T1U) (T1U) (A1G) (T2U) (T2U) (T2U)
                 (A2U) (T1U) (T1U) (T1U) (T2G) (T2G) (T2G) (EG)
                 (EG) (T1U) (T1U) (T1U) (T2U) (T2U) (T2U) (A2U)
                 (T1U) (T1U) (T1U) (T2G) (T2G) (T2G) (EG) (EG)
                 (A1G)
 Beta  Orbitals:
       Occupied  (A1G) (A1G)
       Virtual   (T1U) (T1U) (T1U) (A1G) (T1U) (T1U) (T1U) (T2G)
                 (T2G) (T2G) (EG) (EG) (T1U) (T1U) (T1U) (A1G)
                 (T2U) (T2U) (T2U) (A2U) (T1U) (T1U) (T1U) (T2G)
                 (T2G) (T2G) (EG) (EG) (T1U) (T1U) (T1U) (T2U)
                 (T2U) (T2U) (A2U) (T1U) (T1U) (T1U) (T2G) (T2G)
                 (T2G) (EG) (EG) (A1G)
 The electronic state of the initial guess is 4-A1G.
 Initial guess <Sx>= 0.0000 <Sy>= 0.0000 <Sz>= 1.5000 <S**2>= 3.7500 S= 1.5000
 Keep R1 and R2 ints in memory in symmetry-blocked form, NReq=4095399.
 Requested convergence on RMS density matrix=1.00D-08 within 128 cycles.
 Requested convergence on MAX density matrix=1.00D-06.
 Requested convergence on             energy=1.00D-06.
 No special actions if energy rises.
 SCF Done:  E(UB3LYP) =  -54.6028906778     A.U. after    7 cycles
            NFock=  7  Conv=0.14D-08     -V/T= 2.0057
 <Sx>= 0.0000 <Sy>= 0.0000 <Sz>= 1.5000 <S**2>= 3.7535 S= 1.5009
 <L.S>= 0.000000000000E+00
 Annihilation of the first spin contaminant:
 S**2 before annihilation     3.7535,   after     3.7500

 **********************************************************************

            Population analysis using the SCF density.

 **********************************************************************

 Orbital symmetries:
 Alpha Orbitals:
       Occupied  (A1G) (A1G) (T1U) (T1U) (T1U)
       Virtual   (A1G) (T1U) (T1U) (T1U) (T2G) (T2G) (T2G) (EG)
                 (EG) (T1U) (T1U) (T1U) (A1G) (T2G) (T2G) (T2G)
                 (EG) (EG) (T2U) (T2U) (T2U) (A2U) (T1U) (T1U)
                 (T1U) (T1U) (T1U) (T1U) (T2U) (T2U) (T2U) (A2U)
                 (T1U) (T1U) (T1U) (T2G) (T2G) (T2G) (EG) (EG)
                 (A1G)
 Beta  Orbitals:
       Occupied  (A1G) (A1G)
       Virtual   (T1U) (T1U) (T1U) (A1G) (T1U) (T1U) (T1U) (T2G)
                 (T2G) (T2G) (EG) (EG) (T1U) (T1U) (T1U) (A1G)
                 (T2U) (T2U) (T2U) (A2U) (T1U) (T1U) (T1U) (T2G)
                 (T2G) (T2G) (EG) (EG) (T1U) (T1U) (T1U) (T2U)
                 (T2U) (T2U) (A2U) (T1U) (T1U) (T1U) (T2G) (T2G)
                 (T2G) (EG) (EG) (A1G)
 The electronic state is 4-A1G.
 Alpha  occ. eigenvalues --  -14.44141  -0.81422  -0.35931  -0.35931  -0.35931
 Alpha virt. eigenvalues --    0.04601   0.07852   0.07852   0.07852   0.33901
 Alpha virt. eigenvalues --    0.33901   0.33901   0.33901   0.33901   0.56277
 Alpha virt. eigenvalues --    0.56277   0.56277   0.77187   1.27655   1.27655
 Alpha virt. eigenvalues --    1.27655   1.27655   1.27655   1.28503   1.28503
 Alpha virt. eigenvalues --    1.28503   1.28503   1.28503   1.28503   1.28503
 Alpha virt. eigenvalues --    2.84516   2.84516   2.84516   4.43754   4.43754
 Alpha virt. eigenvalues --    4.43754   4.43754   4.43754   4.43754   4.43754
 Alpha virt. eigenvalues --    4.53756   4.53756   4.53756   4.53756   4.53756
 Alpha virt. eigenvalues --    5.74206
  Beta  occ. eigenvalues --  -14.38320  -0.61916
  Beta virt. eigenvalues --   -0.11633  -0.11633  -0.11633   0.06033   0.09800
  Beta virt. eigenvalues --    0.09800   0.09800   0.35834   0.35834   0.35834
  Beta virt. eigenvalues --    0.35834   0.35834   0.63543   0.63543   0.63543
  Beta virt. eigenvalues --    0.85009   1.32424   1.32424   1.32424   1.32424
  Beta virt. eigenvalues --    1.32424   1.32424   1.32424   1.37008   1.37008
  Beta virt. eigenvalues --    1.37008   1.37008   1.37008   2.96761   2.96761
  Beta virt. eigenvalues --    2.96761   4.55831   4.55831   4.55831   4.55831
  Beta virt. eigenvalues --    4.55831   4.55831   4.55831   4.70478   4.70478
  Beta virt. eigenvalues --    4.70478   4.70478   4.70478   5.84491
     Alpha Molecular Orbital Coefficients:
                           1         2         3         4         5
                       (A1G)--O  (A1G)--O  (T1U)--O  (T1U)--O  (T1U)--O
     Eigenvalues --   -14.44141  -0.81422  -0.35931  -0.35931  -0.35931
   1 1   N  1S          0.97180  -0.22988   0.00000   0.00000   0.00000
   2        2S         -0.01344   0.57272   0.00000   0.00000   0.00000
   3        3S          0.05394   0.17404   0.00000   0.00000   0.00000
   4        4S          0.00464   0.35356   0.00000   0.00000   0.00000
   5        5S         -0.00107   0.00319   0.00000   0.00000   0.00000
   6        6PX         0.00000   0.00000   0.00000   0.00000   0.38325
   7        6PY         0.00000   0.00000   0.00000   0.38325   0.00000
   8        6PZ         0.00000   0.00000   0.38325   0.00000   0.00000
   9        7PX         0.00000   0.00000   0.00000   0.00000   0.47701
  10        7PY         0.00000   0.00000   0.00000   0.47701   0.00000
  11        7PZ         0.00000   0.00000   0.47701   0.00000   0.00000
  12        8PX         0.00000   0.00000   0.00000   0.00000   0.33317
  13        8PY         0.00000   0.00000   0.00000   0.33317   0.00000
  14        8PZ         0.00000   0.00000   0.33317   0.00000   0.00000
  15        9PX         0.00000   0.00000   0.00000   0.00000   0.03428
  16        9PY         0.00000   0.00000   0.00000   0.03428   0.00000
  17        9PZ         0.00000   0.00000   0.03428   0.00000   0.00000
  18       10D 0       -0.00000  -0.00000   0.00000   0.00000   0.00000
  19       10D+1        0.00000   0.00000   0.00000   0.00000   0.00000
  20       10D-1        0.00000   0.00000   0.00000   0.00000   0.00000
  21       10D+2       -0.00000  -0.00000   0.00000   0.00000   0.00000
  22       10D-2        0.00000   0.00000   0.00000   0.00000   0.00000
  23       11D 0       -0.00000  -0.00000   0.00000   0.00000   0.00000
  24       11D+1        0.00000   0.00000   0.00000   0.00000   0.00000
  25       11D-1        0.00000   0.00000   0.00000   0.00000   0.00000
  26       11D+2        0.00000   0.00000   0.00000   0.00000   0.00000
  27       11D-2        0.00000   0.00000   0.00000   0.00000   0.00000
  28       12D 0        0.00000   0.00000   0.00000   0.00000   0.00000
  29       12D+1        0.00000   0.00000   0.00000   0.00000   0.00000
  30       12D-1        0.00000   0.00000   0.00000   0.00000   0.00000
  31       12D+2       -0.00000  -0.00000   0.00000   0.00000   0.00000
  32       12D-2        0.00000   0.00000   0.00000   0.00000   0.00000
  33       13F 0        0.00000   0.00000  -0.00000   0.00000   0.00000
  34       13F+1        0.00000   0.00000   0.00000   0.00000   0.00000
  35       13F-1        0.00000   0.00000   0.00000   0.00000   0.00000
  36       13F+2        0.00000   0.00000   0.00000   0.00000   0.00000
  37       13F-2        0.00000   0.00000   0.00000   0.00000   0.00000
  38       13F+3        0.00000   0.00000   0.00000   0.00000  -0.00000
  39       13F-3        0.00000   0.00000   0.00000   0.00000   0.00000
  40       14F 0        0.00000   0.00000  -0.00000   0.00000   0.00000
  41       14F+1        0.00000   0.00000   0.00000   0.00000   0.00000
  42       14F-1        0.00000   0.00000   0.00000   0.00000   0.00000
  43       14F+2        0.00000   0.00000  -0.00000   0.00000   0.00000
  44       14F-2        0.00000   0.00000   0.00000   0.00000   0.00000
  45       14F+3        0.00000   0.00000   0.00000   0.00000  -0.00000
  46       14F-3        0.00000   0.00000   0.00000   0.00000   0.00000
                           6         7         8         9        10
                       (A1G)--V  (T1U)--V  (T1U)--V  (T1U)--V  (T2G)--V
     Eigenvalues --     0.04601   0.07852   0.07852   0.07852   0.33901
   1 1   N  1S          0.07704   0.00000   0.00000   0.00000   0.00000
   2        2S         -0.13193   0.00000   0.00000   0.00000   0.00000
   3        3S         -0.07010   0.00000   0.00000   0.00000   0.00000
   4        4S         -0.79080   0.00000   0.00000   0.00000   0.00000
   5        5S          1.49577   0.00000   0.00000   0.00000   0.00000
   6        6PX         0.00000   0.00000  -0.12369   0.00000   0.00000
   7        6PY         0.00000   0.00000   0.00000  -0.12369   0.00000
   8        6PZ         0.00000  -0.12369   0.00000   0.00000   0.00000
   9        7PX         0.00000   0.00000  -0.11435   0.00000   0.00000
  10        7PY         0.00000   0.00000   0.00000  -0.11435   0.00000
  11        7PZ         0.00000  -0.11435   0.00000   0.00000   0.00000
  12        8PX         0.00000   0.00000  -0.29237   0.00000   0.00000
  13        8PY         0.00000   0.00000   0.00000  -0.29237   0.00000
  14        8PZ         0.00000  -0.29237   0.00000   0.00000   0.00000
  15        9PX         0.00000   0.00000   1.14033   0.00000   0.00000
  16        9PY         0.00000   0.00000   0.00000   1.14033   0.00000
  17        9PZ         0.00000   1.14033   0.00000   0.00000   0.00000
  18       10D 0       -0.00000   0.00000   0.00000   0.00000   0.00000
  19       10D+1        0.00000   0.00000   0.00000   0.00000   0.03727
  20       10D-1        0.00000   0.00000   0.00000   0.00000   0.00000
  21       10D+2       -0.00000   0.00000   0.00000   0.00000   0.00000
  22       10D-2        0.00000   0.00000   0.00000   0.00000   0.00000
  23       11D 0        0.00000   0.00000   0.00000   0.00000   0.00000
  24       11D+1        0.00000   0.00000   0.00000   0.00000  -0.05624
  25       11D-1        0.00000   0.00000   0.00000   0.00000   0.00000
  26       11D+2        0.00000   0.00000   0.00000   0.00000   0.00000
  27       11D-2        0.00000   0.00000   0.00000   0.00000   0.00000
  28       12D 0        0.00000   0.00000   0.00000   0.00000   0.00000
  29       12D+1        0.00000   0.00000   0.00000   0.00000   1.02747
  30       12D-1        0.00000   0.00000   0.00000   0.00000   0.00000
  31       12D+2       -0.00000   0.00000   0.00000   0.00000   0.00000
  32       12D-2        0.00000   0.00000   0.00000   0.00000   0.00000
  33       13F 0        0.00000   0.00000   0.00000   0.00000   0.00000
  34       13F+1        0.00000   0.00000  -0.00000   0.00000   0.00000
  35       13F-1        0.00000   0.00000   0.00000  -0.00000   0.00000
  36       13F+2        0.00000  -0.00000   0.00000   0.00000   0.00000
  37       13F-2        0.00000   0.00000   0.00000   0.00000   0.00000
  38       13F+3        0.00000   0.00000   0.00000   0.00000   0.00000
  39       13F-3        0.00000   0.00000   0.00000  -0.00000   0.00000
  40       14F 0        0.00000  -0.00000   0.00000   0.00000   0.00000
  41       14F+1        0.00000   0.00000   0.00000   0.00000   0.00000
  42       14F-1        0.00000   0.00000   0.00000   0.00000   0.00000
  43       14F+2        0.00000  -0.00000   0.00000   0.00000   0.00000
  44       14F-2        0.00000   0.00000   0.00000   0.00000   0.00000
  45       14F+3        0.00000   0.00000  -0.00000   0.00000   0.00000
  46       14F-3        0.00000   0.00000   0.00000   0.00000   0.00000
                          11        12        13        14        15
                       (T2G)--V  (T2G)--V   (EG)--V   (EG)--V  (T1U)--V
     Eigenvalues --     0.33901   0.33901   0.33901   0.33901   0.56277
   1 1   N  1S          0.00000   0.00000  -0.00000   0.00000   0.00000
   2        2S          0.00000   0.00000   0.00000  -0.00000   0.00000
   3        3S          0.00000   0.00000   0.00000  -0.00000   0.00000
   4        4S          0.00000   0.00000  -0.00000   0.00000   0.00000
   5        5S          0.00000   0.00000   0.00000   0.00000   0.00000
   6        6PX         0.00000   0.00000   0.00000   0.00000   0.00000
   7        6PY         0.00000   0.00000   0.00000   0.00000  -0.27691
   8        6PZ         0.00000   0.00000   0.00000   0.00000   0.00000
   9        7PX         0.00000   0.00000   0.00000   0.00000   0.00000
  10        7PY         0.00000   0.00000   0.00000   0.00000  -0.78777
  11        7PZ         0.00000   0.00000   0.00000   0.00000   0.00000
  12        8PX         0.00000   0.00000   0.00000   0.00000   0.00000
  13        8PY         0.00000   0.00000   0.00000   0.00000   1.61120
  14        8PZ         0.00000   0.00000   0.00000   0.00000   0.00000
  15        9PX         0.00000   0.00000   0.00000   0.00000   0.00000
  16        9PY         0.00000   0.00000   0.00000   0.00000  -0.73230
  17        9PZ         0.00000   0.00000   0.00000   0.00000   0.00000
  18       10D 0        0.00000   0.00000   0.03556  -0.01117   0.00000
  19       10D+1        0.00000   0.00000   0.00000   0.00000   0.00000
  20       10D-1        0.03727   0.00000   0.00000   0.00000   0.00000
  21       10D+2        0.00000   0.00000   0.01117   0.03556   0.00000
  22       10D-2        0.00000   0.03727   0.00000   0.00000   0.00000
  23       11D 0        0.00000   0.00000  -0.05365   0.01686   0.00000
  24       11D+1        0.00000   0.00000   0.00000   0.00000   0.00000
  25       11D-1       -0.05624   0.00000   0.00000   0.00000   0.00000
  26       11D+2        0.00000   0.00000  -0.01686  -0.05365   0.00000
  27       11D-2        0.00000  -0.05624   0.00000   0.00000   0.00000
  28       12D 0        0.00000   0.00000   0.98021  -0.30802   0.00000
  29       12D+1        0.00000   0.00000   0.00000   0.00000   0.00000
  30       12D-1        1.02747   0.00000   0.00000   0.00000   0.00000
  31       12D+2        0.00000   0.00000   0.30802   0.98021   0.00000
  32       12D-2        0.00000   1.02747   0.00000   0.00000   0.00000
  33       13F 0        0.00000   0.00000   0.00000   0.00000   0.00000
  34       13F+1        0.00000   0.00000   0.00000   0.00000   0.00000
  35       13F-1        0.00000   0.00000   0.00000   0.00000  -0.00000
  36       13F+2        0.00000   0.00000   0.00000   0.00000   0.00000
  37       13F-2        0.00000   0.00000   0.00000   0.00000   0.00000
  38       13F+3        0.00000   0.00000   0.00000   0.00000   0.00000
  39       13F-3        0.00000   0.00000   0.00000   0.00000  -0.00000
  40       14F 0        0.00000   0.00000   0.00000   0.00000   0.00000
  41       14F+1        0.00000   0.00000   0.00000   0.00000   0.00000
  42       14F-1        0.00000   0.00000   0.00000   0.00000   0.00000
  43       14F+2        0.00000   0.00000   0.00000   0.00000   0.00000
  44       14F-2        0.00000   0.00000   0.00000   0.00000   0.00000
  45       14F+3        0.00000   0.00000   0.00000   0.00000   0.00000
  46       14F-3        0.00000   0.00000   0.00000   0.00000   0.00000
                          16        17        18        19        20
                       (T1U)--V  (T1U)--V  (A1G)--V  (T2G)--V  (T2G)--V
     Eigenvalues --     0.56277   0.56277   0.77187   1.27655   1.27655
   1 1   N  1S          0.00000   0.00000   0.04933   0.00000   0.00000
   2        2S          0.00000   0.00000  -1.49022   0.00000   0.00000
   3        3S          0.00000   0.00000  -0.38810   0.00000   0.00000
   4        4S          0.00000   0.00000   2.73271   0.00000   0.00000
   5        5S          0.00000   0.00000  -1.21077   0.00000   0.00000
   6        6PX         0.00000  -0.27691   0.00000   0.00000   0.00000
   7        6PY         0.00000   0.00000   0.00000   0.00000   0.00000
   8        6PZ        -0.27691   0.00000   0.00000   0.00000   0.00000
   9        7PX         0.00000  -0.78777   0.00000   0.00000   0.00000
  10        7PY         0.00000   0.00000   0.00000   0.00000   0.00000
  11        7PZ        -0.78777   0.00000   0.00000   0.00000   0.00000
  12        8PX         0.00000   1.61120   0.00000   0.00000   0.00000
  13        8PY         0.00000   0.00000   0.00000   0.00000   0.00000
  14        8PZ         1.61120   0.00000   0.00000   0.00000   0.00000
  15        9PX         0.00000  -0.73230   0.00000   0.00000   0.00000
  16        9PY         0.00000   0.00000   0.00000   0.00000   0.00000
  17        9PZ        -0.73230   0.00000   0.00000   0.00000   0.00000
  18       10D 0        0.00000   0.00000   0.00000   0.00000   0.00000
  19       10D+1        0.00000   0.00000   0.00000   0.00000   0.00000
  20       10D-1        0.00000   0.00000   0.00000   0.00000   0.01648
  21       10D+2        0.00000   0.00000   0.00000   0.00000   0.00000
  22       10D-2        0.00000   0.00000   0.00000   0.01648   0.00000
  23       11D 0        0.00000   0.00000  -0.00000   0.00000   0.00000
  24       11D+1        0.00000   0.00000   0.00000   0.00000   0.00000
  25       11D-1        0.00000   0.00000   0.00000   0.00000   1.22255
  26       11D+2        0.00000   0.00000  -0.00000   0.00000   0.00000
  27       11D-2        0.00000   0.00000   0.00000   1.22255   0.00000
  28       12D 0        0.00000   0.00000   0.00000   0.00000   0.00000
  29       12D+1        0.00000   0.00000   0.00000   0.00000   0.00000
  30       12D-1        0.00000   0.00000   0.00000   0.00000  -0.69403
  31       12D+2        0.00000   0.00000   0.00000   0.00000   0.00000
  32       12D-2        0.00000   0.00000   0.00000  -0.69403   0.00000
  33       13F 0        0.00000   0.00000   0.00000   0.00000   0.00000
  34       13F+1        0.00000  -0.00000   0.00000   0.00000   0.00000
  35       13F-1        0.00000   0.00000   0.00000   0.00000   0.00000
  36       13F+2        0.00000   0.00000   0.00000   0.00000   0.00000
  37       13F-2        0.00000   0.00000   0.00000   0.00000   0.00000
  38       13F+3        0.00000   0.00000   0.00000   0.00000   0.00000
  39       13F-3        0.00000   0.00000   0.00000   0.00000   0.00000
  40       14F 0       -0.00000   0.00000   0.00000   0.00000   0.00000
  41       14F+1        0.00000   0.00000   0.00000   0.00000   0.00000
  42       14F-1        0.00000   0.00000   0.00000   0.00000   0.00000
  43       14F+2       -0.00000   0.00000   0.00000   0.00000   0.00000
  44       14F-2        0.00000   0.00000   0.00000   0.00000   0.00000
  45       14F+3        0.00000  -0.00000   0.00000   0.00000   0.00000
  46       14F-3        0.00000   0.00000   0.00000   0.00000   0.00000
                          21        22        23        24        25
                       (T2G)--V   (EG)--V   (EG)--V  (T2U)--V  (T2U)--V
     Eigenvalues --     1.27655   1.27655   1.27655   1.28503   1.28503
   1 1   N  1S          0.00000   0.00000   0.00000   0.00000   0.00000
   2        2S          0.00000  -0.00000  -0.00000   0.00000   0.00000
   3        3S          0.00000  -0.00000  -0.00000   0.00000   0.00000
   4        4S          0.00000   0.00000   0.00000   0.00000   0.00000
   5        5S          0.00000  -0.00000  -0.00000   0.00000   0.00000
   6        6PX         0.00000   0.00000   0.00000   0.00000  -0.00000
   7        6PY         0.00000   0.00000   0.00000   0.00000   0.00000
   8        6PZ         0.00000   0.00000   0.00000   0.00000   0.00000
   9        7PX         0.00000   0.00000   0.00000   0.00000  -0.00000
  10        7PY         0.00000   0.00000   0.00000   0.00000   0.00000
  11        7PZ         0.00000   0.00000   0.00000   0.00000   0.00000
  12        8PX         0.00000   0.00000   0.00000   0.00000   0.00000
  13        8PY         0.00000   0.00000   0.00000  -0.00000   0.00000
  14        8PZ         0.00000   0.00000   0.00000   0.00000   0.00000
  15        9PX         0.00000   0.00000   0.00000   0.00000  -0.00000
  16        9PY         0.00000   0.00000   0.00000   0.00000   0.00000
  17        9PZ         0.00000   0.00000   0.00000   0.00000   0.00000
  18       10D 0        0.00000   0.01636  -0.00198   0.00000   0.00000
  19       10D+1        0.01648   0.00000   0.00000   0.00000   0.00000
  20       10D-1        0.00000   0.00000   0.00000   0.00000   0.00000
  21       10D+2        0.00000   0.00198   0.01636   0.00000   0.00000
  22       10D-2        0.00000   0.00000   0.00000   0.00000   0.00000
  23       11D 0        0.00000   1.21371  -0.14670   0.00000   0.00000
  24       11D+1        1.22255   0.00000   0.00000   0.00000   0.00000
  25       11D-1        0.00000   0.00000   0.00000   0.00000   0.00000
  26       11D+2        0.00000   0.14670   1.21371   0.00000   0.00000
  27       11D-2        0.00000   0.00000   0.00000   0.00000   0.00000
  28       12D 0        0.00000  -0.68901   0.08328   0.00000   0.00000
  29       12D+1       -0.69403   0.00000   0.00000   0.00000   0.00000
  30       12D-1        0.00000   0.00000   0.00000   0.00000   0.00000
  31       12D+2        0.00000  -0.08328  -0.68901   0.00000   0.00000
  32       12D-2        0.00000   0.00000   0.00000   0.00000   0.00000
  33       13F 0        0.00000   0.00000   0.00000   0.00000   0.00000
  34       13F+1        0.00000   0.00000   0.00000   0.00000  -0.07687
  35       13F-1        0.00000   0.00000   0.00000  -0.07687   0.00000
  36       13F+2        0.00000   0.00000   0.00000   0.00000   0.00000
  37       13F-2        0.00000   0.00000   0.00000   0.00000   0.00000
  38       13F+3        0.00000   0.00000   0.00000   0.00000  -0.05954
  39       13F-3        0.00000   0.00000   0.00000   0.05954   0.00000
  40       14F 0        0.00000   0.00000   0.00000   0.00000   0.00000
  41       14F+1        0.00000   0.00000   0.00000   0.00000   0.82805
  42       14F-1        0.00000   0.00000   0.00000   0.82806   0.00000
  43       14F+2        0.00000   0.00000   0.00000   0.00000   0.00000
  44       14F-2        0.00000   0.00000   0.00000   0.00000   0.00000
  45       14F+3        0.00000   0.00000   0.00000   0.00000   0.64140
  46       14F-3        0.00000   0.00000   0.00000  -0.64138   0.00000
                          26        27        28        29        30
                       (T2U)--V  (A2U)--V  (T1U)--V  (T1U)--V  (T1U)--V
     Eigenvalues --     1.28503   1.28503   1.28503   1.28503   1.28503
   1 1   N  1S          0.00000   0.00000   0.00000   0.00000   0.00000
   2        2S          0.00000   0.00000   0.00000   0.00000   0.00000
   3        3S          0.00000   0.00000   0.00000   0.00000   0.00000
   4        4S          0.00000   0.00000   0.00000   0.00000   0.00000
   5        5S          0.00000   0.00000   0.00000   0.00000   0.00000
   6        6PX         0.00000   0.00000   0.00000   0.00000   0.00000
   7        6PY         0.00000   0.00000  -0.00000   0.00000   0.00000
   8        6PZ         0.00000   0.00000   0.00000   0.00000   0.00000
   9        7PX         0.00000   0.00000   0.00000  -0.00000   0.00000
  10        7PY         0.00000   0.00000   0.00000   0.00000   0.00000
  11        7PZ        -0.00000   0.00000   0.00000   0.00000  -0.00000
  12        8PX         0.00000   0.00000   0.00000   0.00000   0.00000
  13        8PY         0.00000   0.00000  -0.00000   0.00000   0.00000
  14        8PZ         0.00000   0.00000   0.00000   0.00000   0.00000
  15        9PX         0.00000   0.00000   0.00000  -0.00000   0.00000
  16        9PY         0.00000   0.00000   0.00000   0.00000   0.00000
  17        9PZ        -0.00000   0.00000   0.00000   0.00000  -0.00000
  18       10D 0        0.00000   0.00000   0.00000   0.00000   0.00000
  19       10D+1        0.00000   0.00000   0.00000   0.00000   0.00000
  20       10D-1        0.00000   0.00000   0.00000   0.00000   0.00000
  21       10D+2        0.00000   0.00000   0.00000   0.00000   0.00000
  22       10D-2        0.00000   0.00000   0.00000   0.00000   0.00000
  23       11D 0        0.00000   0.00000   0.00000   0.00000   0.00000
  24       11D+1        0.00000   0.00000   0.00000   0.00000   0.00000
  25       11D-1        0.00000   0.00000   0.00000   0.00000   0.00000
  26       11D+2        0.00000   0.00000   0.00000   0.00000   0.00000
  27       11D-2        0.00000   0.00000   0.00000   0.00000   0.00000
  28       12D 0        0.00000   0.00000   0.00000   0.00000   0.00000
  29       12D+1        0.00000   0.00000   0.00000   0.00000   0.00000
  30       12D-1        0.00000   0.00000   0.00000   0.00000   0.00000
  31       12D+2        0.00000   0.00000   0.00000   0.00000   0.00000
  32       12D-2        0.00000   0.00000   0.00000   0.00000   0.00000
  33       13F 0       -0.00000   0.00000   0.00000   0.00000  -0.09724
  34       13F+1        0.00000   0.00000   0.00000   0.05954   0.00000
  35       13F-1        0.00000   0.00000  -0.05954   0.00000   0.00000
  36       13F+2       -0.09724   0.00000   0.00000   0.00000   0.00000
  37       13F-2        0.00000  -0.09724   0.00000   0.00000   0.00000
  38       13F+3        0.00000   0.00000   0.00000  -0.07687   0.00000
  39       13F-3        0.00000   0.00000  -0.07687   0.00000   0.00000
  40       14F 0        0.00001   0.00000   0.00000   0.00000   1.04741
  41       14F+1        0.00000   0.00000   0.00000  -0.64140   0.00000
  42       14F-1        0.00000   0.00000   0.64138   0.00000   0.00000
  43       14F+2        1.04741   0.00000   0.00000   0.00000  -0.00001
  44       14F-2        0.00000   1.04741   0.00000   0.00000   0.00000
  45       14F+3        0.00000   0.00000   0.00000   0.82805   0.00000
  46       14F-3        0.00000   0.00000   0.82806   0.00000   0.00000
                          31        32        33        34        35
                       (T1U)--V  (T1U)--V  (T1U)--V  (T2U)--V  (T2U)--V
     Eigenvalues --     2.84516   2.84516   2.84516   4.43754   4.43754
   1 1   N  1S          0.00000   0.00000   0.00000   0.00000   0.00000
   2        2S          0.00000   0.00000   0.00000   0.00000   0.00000
   3        3S          0.00000   0.00000   0.00000   0.00000   0.00000
   4        4S          0.00000   0.00000   0.00000   0.00000   0.00000
   5        5S          0.00000   0.00000   0.00000   0.00000   0.00000
   6        6PX        -1.25545   0.00000   0.00000  -0.00000   0.00000
   7        6PY         0.00000  -1.25545   0.00000   0.00000  -0.00000
   8        6PZ         0.00000   0.00000  -1.25545   0.00000   0.00000
   9        7PX         1.62178   0.00000   0.00000   0.00000   0.00000
  10        7PY         0.00000   1.62178   0.00000   0.00000   0.00000
  11        7PZ         0.00000   0.00000   1.62178   0.00000   0.00000
  12        8PX        -0.91355   0.00000   0.00000  -0.00000   0.00000
  13        8PY         0.00000  -0.91355   0.00000   0.00000   0.00000
  14        8PZ         0.00000   0.00000  -0.91355   0.00000   0.00000
  15        9PX         0.28406   0.00000   0.00000   0.00000   0.00000
  16        9PY         0.00000   0.28406   0.00000   0.00000  -0.00000
  17        9PZ         0.00000   0.00000   0.28406   0.00000   0.00000
  18       10D 0        0.00000   0.00000   0.00000   0.00000   0.00000
  19       10D+1        0.00000   0.00000   0.00000   0.00000   0.00000
  20       10D-1        0.00000   0.00000   0.00000   0.00000   0.00000
  21       10D+2        0.00000   0.00000   0.00000   0.00000   0.00000
  22       10D-2        0.00000   0.00000   0.00000   0.00000   0.00000
  23       11D 0        0.00000   0.00000   0.00000   0.00000   0.00000
  24       11D+1        0.00000   0.00000   0.00000   0.00000   0.00000
  25       11D-1        0.00000   0.00000   0.00000   0.00000   0.00000
  26       11D+2        0.00000   0.00000   0.00000   0.00000   0.00000
  27       11D-2        0.00000   0.00000   0.00000   0.00000   0.00000
  28       12D 0        0.00000   0.00000   0.00000   0.00000   0.00000
  29       12D+1        0.00000   0.00000   0.00000   0.00000   0.00000
  30       12D-1        0.00000   0.00000   0.00000   0.00000   0.00000
  31       12D+2        0.00000   0.00000   0.00000   0.00000   0.00000
  32       12D-2        0.00000   0.00000   0.00000   0.00000   0.00000
  33       13F 0        0.00000   0.00000  -0.00000   0.00000   0.00000
  34       13F+1        0.00000   0.00000   0.00000   0.92431   0.00000
  35       13F-1        0.00000   0.00000   0.00000   0.00000   0.92432
  36       13F+2        0.00000   0.00000  -0.00000   0.00000   0.00000
  37       13F-2        0.00000   0.00000   0.00000   0.00000   0.00000
  38       13F+3       -0.00000   0.00000   0.00000   0.71594   0.00000
  39       13F-3        0.00000   0.00000   0.00000   0.00000  -0.71593
  40       14F 0        0.00000   0.00000   0.00000   0.00000   0.00000
  41       14F+1       -0.00000   0.00000   0.00000  -0.41782   0.00000
  42       14F-1        0.00000  -0.00000   0.00000   0.00000  -0.41782
  43       14F+2        0.00000   0.00000   0.00000   0.00000   0.00000
  44       14F-2        0.00000   0.00000   0.00000   0.00000   0.00000
  45       14F+3        0.00000   0.00000   0.00000  -0.32363   0.00000
  46       14F-3        0.00000  -0.00000   0.00000   0.00000   0.32363
                          36        37        38        39        40
                       (T2U)--V  (A2U)--V  (T1U)--V  (T1U)--V  (T1U)--V
     Eigenvalues --     4.43754   4.43754   4.43754   4.43754   4.43754
   1 1   N  1S          0.00000   0.00000   0.00000   0.00000   0.00000
   2        2S          0.00000   0.00000   0.00000   0.00000   0.00000
   3        3S          0.00000   0.00000   0.00000   0.00000   0.00000
   4        4S          0.00000   0.00000   0.00000   0.00000   0.00000
   5        5S          0.00000   0.00000   0.00000   0.00000   0.00000
   6        6PX         0.00000   0.00000   0.00000  -0.00000   0.00000
   7        6PY         0.00000   0.00000   0.00000   0.00000   0.00000
   8        6PZ        -0.00000   0.00000   0.00000   0.00000  -0.00000
   9        7PX         0.00000   0.00000   0.00000   0.00000   0.00000
  10        7PY         0.00000   0.00000  -0.00000   0.00000   0.00000
  11        7PZ         0.00000   0.00000   0.00000   0.00000   0.00000
  12        8PX         0.00000   0.00000   0.00000  -0.00000   0.00000
  13        8PY         0.00000   0.00000   0.00000   0.00000   0.00000
  14        8PZ        -0.00000   0.00000   0.00000   0.00000  -0.00000
  15        9PX         0.00000   0.00000   0.00000   0.00000   0.00000
  16        9PY         0.00000   0.00000  -0.00000   0.00000   0.00000
  17        9PZ         0.00000   0.00000   0.00000   0.00000   0.00000
  18       10D 0        0.00000   0.00000   0.00000   0.00000   0.00000
  19       10D+1        0.00000   0.00000   0.00000   0.00000   0.00000
  20       10D-1        0.00000   0.00000   0.00000   0.00000   0.00000
  21       10D+2        0.00000   0.00000   0.00000   0.00000   0.00000
  22       10D-2        0.00000   0.00000   0.00000   0.00000   0.00000
  23       11D 0        0.00000   0.00000   0.00000   0.00000   0.00000
  24       11D+1        0.00000   0.00000   0.00000   0.00000   0.00000
  25       11D-1        0.00000   0.00000   0.00000   0.00000   0.00000
  26       11D+2        0.00000   0.00000   0.00000   0.00000   0.00000
  27       11D-2        0.00000   0.00000   0.00000   0.00000   0.00000
  28       12D 0        0.00000   0.00000   0.00000   0.00000   0.00000
  29       12D+1        0.00000   0.00000   0.00000   0.00000   0.00000
  30       12D-1        0.00000   0.00000   0.00000   0.00000   0.00000
  31       12D+2        0.00000   0.00000   0.00000   0.00000   0.00000
  32       12D-2        0.00000   0.00000   0.00000   0.00000   0.00000
  33       13F 0        0.00002   0.00000   0.00000   0.00000   1.16915
  34       13F+1        0.00000   0.00000   0.00000  -0.71594   0.00000
  35       13F-1        0.00000   0.00000   0.71593   0.00000   0.00000
  36       13F+2        1.16915   0.00000   0.00000   0.00000  -0.00002
  37       13F-2        0.00000   1.16915   0.00000   0.00000   0.00000
  38       13F+3        0.00000   0.00000   0.00000   0.92431   0.00000
  39       13F-3        0.00000   0.00000   0.92432   0.00000   0.00000
  40       14F 0       -0.00001   0.00000   0.00000   0.00000  -0.52850
  41       14F+1        0.00000   0.00000   0.00000   0.32363   0.00000
  42       14F-1        0.00000   0.00000  -0.32363   0.00000   0.00000
  43       14F+2       -0.52850   0.00000   0.00000   0.00000   0.00001
  44       14F-2        0.00000  -0.52850   0.00000   0.00000   0.00000
  45       14F+3        0.00000   0.00000   0.00000  -0.41782   0.00000
  46       14F-3        0.00000   0.00000  -0.41782   0.00000   0.00000
                          41        42        43        44        45
                       (T2G)--V  (T2G)--V  (T2G)--V   (EG)--V   (EG)--V
     Eigenvalues --     4.53756   4.53756   4.53756   4.53756   4.53756
   1 1   N  1S          0.00000   0.00000   0.00000   0.00000  -0.00000
   2        2S          0.00000   0.00000   0.00000   0.00000  -0.00000
   3        3S          0.00000   0.00000   0.00000  -0.00000   0.00000
   4        4S          0.00000   0.00000   0.00000  -0.00000   0.00000
   5        5S          0.00000   0.00000   0.00000   0.00000  -0.00000
   6        6PX         0.00000   0.00000   0.00000  -0.00000   0.00000
   7        6PY         0.00000   0.00000   0.00000  -0.00000   0.00000
   8        6PZ         0.00000   0.00000   0.00000  -0.00000   0.00000
   9        7PX         0.00000   0.00000   0.00000  -0.00000   0.00000
  10        7PY         0.00000   0.00000   0.00000  -0.00000   0.00000
  11        7PZ         0.00000   0.00000   0.00000  -0.00000   0.00000
  12        8PX         0.00000   0.00000   0.00000  -0.00000   0.00000
  13        8PY         0.00000   0.00000   0.00000  -0.00000   0.00000
  14        8PZ         0.00000   0.00000   0.00000  -0.00000   0.00000
  15        9PX         0.00000   0.00000   0.00000  -0.00000   0.00000
  16        9PY         0.00000   0.00000   0.00000  -0.00000   0.00000
  17        9PZ         0.00000   0.00000   0.00000  -0.00000   0.00000
  18       10D 0        0.00000   0.00000   0.00000  -0.81719   0.89426
  19       10D+1        0.00000   0.00000   1.21140  -0.00000   0.00000
  20       10D-1        0.00000   1.21140   0.00000  -0.00000   0.00000
  21       10D+2        0.00000   0.00000   0.00000   0.89426   0.81719
  22       10D-2        1.21140   0.00000   0.00000  -0.00000   0.00000
  23       11D 0        0.00000   0.00000   0.00000   0.56622  -0.61961
  24       11D+1        0.00000   0.00000  -0.83936  -0.00000   0.00000
  25       11D-1        0.00000  -0.83936   0.00000  -0.00000   0.00000
  26       11D+2        0.00000   0.00000   0.00000  -0.61961  -0.56622
  27       11D-2       -0.83936   0.00000   0.00000  -0.00000   0.00000
  28       12D 0        0.00000   0.00000   0.00000  -0.20766   0.22724
  29       12D+1        0.00000   0.00000   0.30784  -0.00000   0.00000
  30       12D-1        0.00000   0.30784   0.00000  -0.00000   0.00000
  31       12D+2        0.00000   0.00000   0.00000   0.22724   0.20766
  32       12D-2        0.30784   0.00000   0.00000  -0.00000   0.00000
  33       13F 0        0.00000   0.00000   0.00000  -0.00000   0.00000
  34       13F+1        0.00000   0.00000   0.00000  -0.00000   0.00000
  35       13F-1        0.00000   0.00000   0.00000  -0.00000   0.00000
  36       13F+2        0.00000   0.00000   0.00000  -0.00000   0.00000
  37       13F-2        0.00000   0.00000   0.00000  -0.00000   0.00000
  38       13F+3        0.00000   0.00000   0.00000  -0.00000   0.00000
  39       13F-3        0.00000   0.00000   0.00000  -0.00000   0.00000
  40       14F 0        0.00000   0.00000   0.00000  -0.00000   0.00000
  41       14F+1        0.00000   0.00000   0.00000  -0.00000   0.00000
  42       14F-1        0.00000   0.00000   0.00000  -0.00000   0.00000
  43       14F+2        0.00000   0.00000   0.00000  -0.00000   0.00000
  44       14F-2        0.00000   0.00000   0.00000  -0.00000   0.00000
  45       14F+3        0.00000   0.00000   0.00000  -0.00000   0.00000
  46       14F-3        0.00000   0.00000   0.00000  -0.00000   0.00000
                          46
                       (A1G)--V
     Eigenvalues --     5.74206
   1 1   N  1S          1.26050
   2        2S          3.34127
   3        3S         -2.49646
   4        4S         -2.19114
   5        5S          0.69227
   6        6PX         0.00000
   7        6PY         0.00000
   8        6PZ         0.00000
   9        7PX         0.00000
  10        7PY         0.00000
  11        7PZ         0.00000
  12        8PX         0.00000
  13        8PY         0.00000
  14        8PZ         0.00000
  15        9PX         0.00000
  16        9PY         0.00000
  17        9PZ         0.00000
  18       10D 0        0.00000
  19       10D+1        0.00000
  20       10D-1        0.00000
  21       10D+2        0.00000
  22       10D-2        0.00000
  23       11D 0       -0.00000
  24       11D+1        0.00000
  25       11D-1        0.00000
  26       11D+2       -0.00000
  27       11D-2        0.00000
  28       12D 0        0.00000
  29       12D+1        0.00000
  30       12D-1        0.00000
  31       12D+2        0.00000
  32       12D-2        0.00000
  33       13F 0        0.00000
  34       13F+1        0.00000
  35       13F-1        0.00000
  36       13F+2        0.00000
  37       13F-2        0.00000
  38       13F+3        0.00000
  39       13F-3        0.00000
  40       14F 0        0.00000
  41       14F+1        0.00000
  42       14F-1        0.00000
  43       14F+2        0.00000
  44       14F-2        0.00000
  45       14F+3        0.00000
  46       14F-3        0.00000
     Beta Molecular Orbital Coefficients:
                           1         2         3         4         5
                       (A1G)--O  (A1G)--O  (T1U)--V  (T1U)--V  (T1U)--V
     Eigenvalues --   -14.38320  -0.61916  -0.11633  -0.11633  -0.11633
   1 1   N  1S          0.97497  -0.22015   0.00000   0.00000   0.00000
   2        2S         -0.01075   0.51481   0.00000   0.00000   0.00000
   3        3S          0.04802   0.15363   0.00000   0.00000   0.00000
   4        4S          0.00294   0.41354   0.00000   0.00000   0.00000
   5        5S         -0.00058   0.02936   0.00000   0.00000   0.00000
   6        6PX         0.00000   0.00000   0.00000   0.00000   0.31535
   7        6PY         0.00000   0.00000   0.00000   0.31535   0.00000
   8        6PZ         0.00000   0.00000   0.31535   0.00000   0.00000
   9        7PX         0.00000   0.00000   0.00000   0.00000   0.38068
  10        7PY         0.00000   0.00000   0.00000   0.38068   0.00000
  11        7PZ         0.00000   0.00000   0.38068   0.00000   0.00000
  12        8PX         0.00000   0.00000   0.00000   0.00000   0.40956
  13        8PY         0.00000   0.00000   0.00000   0.40956   0.00000
  14        8PZ         0.00000   0.00000   0.40956   0.00000   0.00000
  15        9PX         0.00000   0.00000   0.00000   0.00000   0.19466
  16        9PY         0.00000   0.00000   0.00000   0.19466   0.00000
  17        9PZ         0.00000   0.00000   0.19466   0.00000   0.00000
  18       10D 0       -0.00000  -0.00000   0.00000   0.00000   0.00000
  19       10D+1        0.00000   0.00000   0.00000   0.00000   0.00000
  20       10D-1        0.00000   0.00000   0.00000   0.00000   0.00000
  21       10D+2        0.00000  -0.00000   0.00000   0.00000   0.00000
  22       10D-2        0.00000   0.00000   0.00000   0.00000   0.00000
  23       11D 0       -0.00000  -0.00000   0.00000   0.00000   0.00000
  24       11D+1        0.00000   0.00000   0.00000   0.00000   0.00000
  25       11D-1        0.00000   0.00000   0.00000   0.00000   0.00000
  26       11D+2        0.00000   0.00000   0.00000   0.00000   0.00000
  27       11D-2        0.00000   0.00000   0.00000   0.00000   0.00000
  28       12D 0        0.00000  -0.00000   0.00000   0.00000   0.00000
  29       12D+1        0.00000   0.00000   0.00000   0.00000   0.00000
  30       12D-1        0.00000   0.00000   0.00000   0.00000   0.00000
  31       12D+2       -0.00000  -0.00000   0.00000   0.00000   0.00000
  32       12D-2        0.00000   0.00000   0.00000   0.00000   0.00000
  33       13F 0        0.00000   0.00000  -0.00000   0.00000   0.00000
  34       13F+1        0.00000   0.00000   0.00000   0.00000   0.00000
  35       13F-1        0.00000   0.00000   0.00000   0.00000   0.00000
  36       13F+2        0.00000   0.00000  -0.00000   0.00000   0.00000
  37       13F-2        0.00000   0.00000   0.00000   0.00000   0.00000
  38       13F+3        0.00000   0.00000   0.00000   0.00000  -0.00000
  39       13F-3        0.00000   0.00000   0.00000   0.00000   0.00000
  40       14F 0        0.00000   0.00000  -0.00000   0.00000   0.00000
  41       14F+1        0.00000   0.00000   0.00000   0.00000   0.00000
  42       14F-1        0.00000   0.00000   0.00000   0.00000   0.00000
  43       14F+2        0.00000   0.00000   0.00000   0.00000   0.00000
  44       14F-2        0.00000   0.00000   0.00000   0.00000   0.00000
  45       14F+3        0.00000   0.00000   0.00000   0.00000  -0.00000
  46       14F-3        0.00000   0.00000   0.00000   0.00000   0.00000
                           6         7         8         9        10
                       (A1G)--V  (T1U)--V  (T1U)--V  (T1U)--V  (T2G)--V
     Eigenvalues --     0.06033   0.09800   0.09800   0.09800   0.35834
   1 1   N  1S          0.08335   0.00000   0.00000   0.00000   0.00000
   2        2S         -0.10573   0.00000   0.00000   0.00000   0.00000
   3        3S         -0.06054   0.00000   0.00000   0.00000   0.00000
   4        4S         -0.90500   0.00000   0.00000   0.00000   0.00000
   5        5S          1.53748   0.00000   0.00000   0.00000   0.00000
   6        6PX         0.00000   0.00000   0.00000  -0.16865   0.00000
   7        6PY         0.00000   0.00000  -0.16865   0.00000   0.00000
   8        6PZ         0.00000  -0.16865   0.00000   0.00000   0.00000
   9        7PX         0.00000   0.00000   0.00000  -0.15535   0.00000
  10        7PY         0.00000   0.00000  -0.15535   0.00000   0.00000
  11        7PZ         0.00000  -0.15535   0.00000   0.00000   0.00000
  12        8PX         0.00000   0.00000   0.00000  -0.46170   0.00000
  13        8PY         0.00000   0.00000  -0.46170   0.00000   0.00000
  14        8PZ         0.00000  -0.46170   0.00000   0.00000   0.00000
  15        9PX         0.00000   0.00000   0.00000   1.16057   0.00000
  16        9PY         0.00000   0.00000   1.16057   0.00000   0.00000
  17        9PZ         0.00000   1.16057   0.00000   0.00000   0.00000
  18       10D 0       -0.00000   0.00000   0.00000   0.00000   0.00000
  19       10D+1        0.00000   0.00000   0.00000   0.00000   0.03511
  20       10D-1        0.00000   0.00000   0.00000   0.00000   0.00000
  21       10D+2       -0.00000   0.00000   0.00000   0.00000   0.00000
  22       10D-2        0.00000   0.00000   0.00000   0.00000   0.00000
  23       11D 0        0.00000   0.00000   0.00000   0.00000   0.00000
  24       11D+1        0.00000   0.00000   0.00000   0.00000  -0.09369
  25       11D-1        0.00000   0.00000   0.00000   0.00000   0.00000
  26       11D+2        0.00000   0.00000   0.00000   0.00000   0.00000
  27       11D-2        0.00000   0.00000   0.00000   0.00000   0.00000
  28       12D 0       -0.00000   0.00000   0.00000   0.00000   0.00000
  29       12D+1        0.00000   0.00000   0.00000   0.00000   1.04846
  30       12D-1        0.00000   0.00000   0.00000   0.00000   0.00000
  31       12D+2       -0.00000   0.00000   0.00000   0.00000   0.00000
  32       12D-2        0.00000   0.00000   0.00000   0.00000   0.00000
  33       13F 0        0.00000   0.00000   0.00000   0.00000   0.00000
  34       13F+1        0.00000   0.00000   0.00000  -0.00000   0.00000
  35       13F-1        0.00000   0.00000  -0.00000   0.00000   0.00000
  36       13F+2        0.00000  -0.00000   0.00000   0.00000   0.00000
  37       13F-2        0.00000   0.00000   0.00000   0.00000   0.00000
  38       13F+3        0.00000   0.00000   0.00000   0.00000   0.00000
  39       13F-3        0.00000   0.00000  -0.00000   0.00000   0.00000
  40       14F 0        0.00000   0.00000   0.00000   0.00000   0.00000
  41       14F+1        0.00000   0.00000   0.00000  -0.00000   0.00000
  42       14F-1        0.00000   0.00000  -0.00000   0.00000   0.00000
  43       14F+2        0.00000   0.00000   0.00000   0.00000   0.00000
  44       14F-2        0.00000   0.00000   0.00000   0.00000   0.00000
  45       14F+3        0.00000   0.00000   0.00000   0.00000   0.00000
  46       14F-3        0.00000   0.00000  -0.00000   0.00000   0.00000
                          11        12        13        14        15
                       (T2G)--V  (T2G)--V   (EG)--V   (EG)--V  (T1U)--V
     Eigenvalues --     0.35834   0.35834   0.35834   0.35834   0.63543
   1 1   N  1S          0.00000   0.00000   0.00000  -0.00000   0.00000
   2        2S          0.00000   0.00000  -0.00000   0.00000   0.00000
   3        3S          0.00000   0.00000  -0.00000   0.00000   0.00000
   4        4S          0.00000   0.00000   0.00000  -0.00000   0.00000
   5        5S          0.00000   0.00000   0.00000   0.00000   0.00000
   6        6PX         0.00000   0.00000   0.00000   0.00000   0.00000
   7        6PY         0.00000   0.00000   0.00000   0.00000  -0.29506
   8        6PZ         0.00000   0.00000   0.00000   0.00000   0.00000
   9        7PX         0.00000   0.00000   0.00000   0.00000   0.00000
  10        7PY         0.00000   0.00000   0.00000   0.00000  -0.87216
  11        7PZ         0.00000   0.00000   0.00000   0.00000   0.00000
  12        8PX         0.00000   0.00000   0.00000   0.00000   0.00000
  13        8PY         0.00000   0.00000   0.00000   0.00000   1.56890
  14        8PZ         0.00000   0.00000   0.00000   0.00000   0.00000
  15        9PX         0.00000   0.00000   0.00000   0.00000   0.00000
  16        9PY         0.00000   0.00000   0.00000   0.00000  -0.67700
  17        9PZ         0.00000   0.00000   0.00000   0.00000   0.00000
  18       10D 0        0.00000   0.00000  -0.00351   0.03493   0.00000
  19       10D+1        0.00000   0.00000   0.00000   0.00000   0.00000
  20       10D-1        0.03511   0.00000   0.00000   0.00000   0.00000
  21       10D+2        0.00000   0.00000   0.03493   0.00351   0.00000
  22       10D-2        0.00000   0.03511   0.00000   0.00000   0.00000
  23       11D 0        0.00000   0.00000   0.00936  -0.09322   0.00000
  24       11D+1        0.00000   0.00000   0.00000   0.00000   0.00000
  25       11D-1       -0.09369   0.00000   0.00000   0.00000   0.00000
  26       11D+2        0.00000   0.00000  -0.09322  -0.00936   0.00000
  27       11D-2        0.00000  -0.09369   0.00000   0.00000   0.00000
  28       12D 0        0.00000   0.00000  -0.10474   1.04321   0.00000
  29       12D+1        0.00000   0.00000   0.00000   0.00000   0.00000
  30       12D-1        1.04846   0.00000   0.00000   0.00000   0.00000
  31       12D+2        0.00000   0.00000   1.04321   0.10474   0.00000
  32       12D-2        0.00000   1.04846   0.00000   0.00000   0.00000
  33       13F 0        0.00000   0.00000   0.00000   0.00000   0.00000
  34       13F+1        0.00000   0.00000   0.00000   0.00000   0.00000
  35       13F-1        0.00000   0.00000   0.00000   0.00000  -0.00000
  36       13F+2        0.00000   0.00000   0.00000   0.00000   0.00000
  37       13F-2        0.00000   0.00000   0.00000   0.00000   0.00000
  38       13F+3        0.00000   0.00000   0.00000   0.00000   0.00000
  39       13F-3        0.00000   0.00000   0.00000   0.00000  -0.00000
  40       14F 0        0.00000   0.00000   0.00000   0.00000   0.00000
  41       14F+1        0.00000   0.00000   0.00000   0.00000   0.00000
  42       14F-1        0.00000   0.00000   0.00000   0.00000   0.00000
  43       14F+2        0.00000   0.00000   0.00000   0.00000   0.00000
  44       14F-2        0.00000   0.00000   0.00000   0.00000   0.00000
  45       14F+3        0.00000   0.00000   0.00000   0.00000   0.00000
  46       14F-3        0.00000   0.00000   0.00000   0.00000   0.00000
                          16        17        18        19        20
                       (T1U)--V  (T1U)--V  (A1G)--V  (T2U)--V  (T2U)--V
     Eigenvalues --     0.63543   0.63543   0.85009   1.32424   1.32424
   1 1   N  1S          0.00000   0.00000   0.04790   0.00000   0.00000
   2        2S          0.00000   0.00000  -1.54480   0.00000   0.00000
   3        3S          0.00000   0.00000  -0.37429   0.00000   0.00000
   4        4S          0.00000   0.00000   2.70692   0.00000   0.00000
   5        5S          0.00000   0.00000  -1.16214   0.00000   0.00000
   6        6PX         0.00000  -0.29506   0.00000   0.00000   0.00000
   7        6PY         0.00000   0.00000   0.00000   0.00000   0.00000
   8        6PZ        -0.29506   0.00000   0.00000   0.00000  -0.00000
   9        7PX         0.00000  -0.87216   0.00000   0.00000   0.00000
  10        7PY         0.00000   0.00000   0.00000   0.00000   0.00000
  11        7PZ        -0.87216   0.00000   0.00000   0.00000   0.00000
  12        8PX         0.00000   1.56890   0.00000   0.00000   0.00000
  13        8PY         0.00000   0.00000   0.00000  -0.00000   0.00000
  14        8PZ         1.56890   0.00000   0.00000   0.00000  -0.00000
  15        9PX         0.00000  -0.67700   0.00000   0.00000   0.00000
  16        9PY         0.00000   0.00000   0.00000   0.00000   0.00000
  17        9PZ        -0.67700   0.00000   0.00000   0.00000  -0.00000
  18       10D 0        0.00000   0.00000   0.00000   0.00000   0.00000
  19       10D+1        0.00000   0.00000   0.00000   0.00000   0.00000
  20       10D-1        0.00000   0.00000   0.00000   0.00000   0.00000
  21       10D+2        0.00000   0.00000   0.00000   0.00000   0.00000
  22       10D-2        0.00000   0.00000   0.00000   0.00000   0.00000
  23       11D 0        0.00000   0.00000  -0.00000   0.00000   0.00000
  24       11D+1        0.00000   0.00000   0.00000   0.00000   0.00000
  25       11D-1        0.00000   0.00000   0.00000   0.00000   0.00000
  26       11D+2        0.00000   0.00000  -0.00000   0.00000   0.00000
  27       11D-2        0.00000   0.00000   0.00000   0.00000   0.00000
  28       12D 0        0.00000   0.00000   0.00000   0.00000   0.00000
  29       12D+1        0.00000   0.00000   0.00000   0.00000   0.00000
  30       12D-1        0.00000   0.00000   0.00000   0.00000   0.00000
  31       12D+2        0.00000   0.00000   0.00000   0.00000   0.00000
  32       12D-2        0.00000   0.00000   0.00000   0.00000   0.00000
  33       13F 0        0.00000   0.00000   0.00000   0.00000  -0.00000
  34       13F+1        0.00000  -0.00000   0.00000   0.00000   0.00000
  35       13F-1        0.00000   0.00000   0.00000  -0.08433   0.00000
  36       13F+2       -0.00000   0.00000   0.00000   0.00000  -0.10667
  37       13F-2        0.00000   0.00000   0.00000   0.00000   0.00000
  38       13F+3        0.00000   0.00000   0.00000   0.00000   0.00000
  39       13F-3        0.00000   0.00000   0.00000   0.06532   0.00000
  40       14F 0       -0.00000   0.00000   0.00000   0.00000   0.00001
  41       14F+1        0.00000   0.00000   0.00000   0.00000   0.00000
  42       14F-1        0.00000   0.00000   0.00000   0.83143   0.00000
  43       14F+2        0.00000   0.00000   0.00000   0.00000   1.05164
  44       14F-2        0.00000   0.00000   0.00000   0.00000   0.00000
  45       14F+3        0.00000  -0.00000   0.00000   0.00000   0.00000
  46       14F-3        0.00000   0.00000   0.00000  -0.64395   0.00000
                          21        22        23        24        25
                       (T2U)--V  (A2U)--V  (T1U)--V  (T1U)--V  (T1U)--V
     Eigenvalues --     1.32424   1.32424   1.32424   1.32424   1.32424
   1 1   N  1S          0.00000   0.00000   0.00000   0.00000   0.00000
   2        2S          0.00000   0.00000   0.00000   0.00000   0.00000
   3        3S          0.00000   0.00000   0.00000   0.00000   0.00000
   4        4S          0.00000   0.00000   0.00000   0.00000   0.00000
   5        5S          0.00000   0.00000   0.00000   0.00000   0.00000
   6        6PX        -0.00000   0.00000   0.00000   0.00000   0.00000
   7        6PY         0.00000   0.00000   0.00000  -0.00000   0.00000
   8        6PZ         0.00000   0.00000   0.00000   0.00000   0.00000
   9        7PX         0.00000   0.00000   0.00000   0.00000  -0.00000
  10        7PY         0.00000   0.00000   0.00000   0.00000   0.00000
  11        7PZ         0.00000   0.00000  -0.00000   0.00000   0.00000
  12        8PX         0.00000   0.00000   0.00000   0.00000   0.00000
  13        8PY         0.00000   0.00000   0.00000  -0.00000   0.00000
  14        8PZ         0.00000   0.00000   0.00000   0.00000   0.00000
  15        9PX        -0.00000   0.00000   0.00000   0.00000  -0.00000
  16        9PY         0.00000   0.00000   0.00000   0.00000   0.00000
  17        9PZ         0.00000   0.00000  -0.00000   0.00000   0.00000
  18       10D 0        0.00000   0.00000   0.00000   0.00000   0.00000
  19       10D+1        0.00000   0.00000   0.00000   0.00000   0.00000
  20       10D-1        0.00000   0.00000   0.00000   0.00000   0.00000
  21       10D+2        0.00000   0.00000   0.00000   0.00000   0.00000
  22       10D-2        0.00000   0.00000   0.00000   0.00000   0.00000
  23       11D 0        0.00000   0.00000   0.00000   0.00000   0.00000
  24       11D+1        0.00000   0.00000   0.00000   0.00000   0.00000
  25       11D-1        0.00000   0.00000   0.00000   0.00000   0.00000
  26       11D+2        0.00000   0.00000   0.00000   0.00000   0.00000
  27       11D-2        0.00000   0.00000   0.00000   0.00000   0.00000
  28       12D 0        0.00000   0.00000   0.00000   0.00000   0.00000
  29       12D+1        0.00000   0.00000   0.00000   0.00000   0.00000
  30       12D-1        0.00000   0.00000   0.00000   0.00000   0.00000
  31       12D+2        0.00000   0.00000   0.00000   0.00000   0.00000
  32       12D-2        0.00000   0.00000   0.00000   0.00000   0.00000
  33       13F 0        0.00000   0.00000  -0.10667   0.00000   0.00000
  34       13F+1       -0.08433   0.00000   0.00000   0.00000   0.06532
  35       13F-1        0.00000   0.00000   0.00000  -0.06532   0.00000
  36       13F+2        0.00000   0.00000   0.00000   0.00000   0.00000
  37       13F-2        0.00000  -0.10667   0.00000   0.00000   0.00000
  38       13F+3       -0.06532   0.00000   0.00000   0.00000  -0.08433
  39       13F-3        0.00000   0.00000   0.00000  -0.08433   0.00000
  40       14F 0        0.00000   0.00000   1.05164   0.00000   0.00000
  41       14F+1        0.83140   0.00000   0.00000   0.00000  -0.64399
  42       14F-1        0.00000   0.00000   0.00000   0.64395   0.00000
  43       14F+2        0.00000   0.00000  -0.00001   0.00000   0.00000
  44       14F-2        0.00000   1.05164   0.00000   0.00000   0.00000
  45       14F+3        0.64399   0.00000   0.00000   0.00000   0.83140
  46       14F-3        0.00000   0.00000   0.00000   0.83143   0.00000
                          26        27        28        29        30
                       (T2G)--V  (T2G)--V  (T2G)--V   (EG)--V   (EG)--V
     Eigenvalues --     1.37008   1.37008   1.37008   1.37008   1.37008
   1 1   N  1S          0.00000   0.00000   0.00000   0.00000   0.00000
   2        2S          0.00000   0.00000   0.00000  -0.00000  -0.00000
   3        3S          0.00000   0.00000   0.00000  -0.00000  -0.00000
   4        4S          0.00000   0.00000   0.00000   0.00000   0.00000
   5        5S          0.00000   0.00000   0.00000  -0.00000  -0.00000
   6        6PX         0.00000   0.00000   0.00000   0.00000   0.00000
   7        6PY         0.00000   0.00000   0.00000   0.00000   0.00000
   8        6PZ         0.00000   0.00000   0.00000   0.00000   0.00000
   9        7PX         0.00000   0.00000   0.00000   0.00000   0.00000
  10        7PY         0.00000   0.00000   0.00000   0.00000   0.00000
  11        7PZ         0.00000   0.00000   0.00000   0.00000   0.00000
  12        8PX         0.00000   0.00000   0.00000   0.00000   0.00000
  13        8PY         0.00000   0.00000   0.00000   0.00000   0.00000
  14        8PZ         0.00000   0.00000   0.00000   0.00000   0.00000
  15        9PX         0.00000   0.00000   0.00000   0.00000   0.00000
  16        9PY         0.00000   0.00000   0.00000   0.00000   0.00000
  17        9PZ         0.00000   0.00000   0.00000   0.00000   0.00000
  18       10D 0        0.00000   0.00000   0.00000  -0.00134  -0.00048
  19       10D+1        0.00000  -0.00143   0.00000   0.00000   0.00000
  20       10D-1        0.00000   0.00000  -0.00143   0.00000   0.00000
  21       10D+2        0.00000   0.00000   0.00000   0.00048  -0.00134
  22       10D-2       -0.00143   0.00000   0.00000   0.00000   0.00000
  23       11D 0        0.00000   0.00000   0.00000   1.15973   0.41939
  24       11D+1        0.00000   1.23323   0.00000   0.00000   0.00000
  25       11D-1        0.00000   0.00000   1.23323   0.00000   0.00000
  26       11D+2        0.00000   0.00000   0.00000  -0.41939   1.15973
  27       11D-2        1.23323   0.00000   0.00000   0.00000   0.00000
  28       12D 0        0.00000   0.00000   0.00000  -0.62633  -0.22650
  29       12D+1        0.00000  -0.66602   0.00000   0.00000   0.00000
  30       12D-1        0.00000   0.00000  -0.66602   0.00000   0.00000
  31       12D+2        0.00000   0.00000   0.00000   0.22650  -0.62633
  32       12D-2       -0.66602   0.00000   0.00000   0.00000   0.00000
  33       13F 0        0.00000   0.00000   0.00000   0.00000   0.00000
  34       13F+1        0.00000   0.00000   0.00000   0.00000   0.00000
  35       13F-1        0.00000   0.00000   0.00000   0.00000   0.00000
  36       13F+2        0.00000   0.00000   0.00000   0.00000   0.00000
  37       13F-2        0.00000   0.00000   0.00000   0.00000   0.00000
  38       13F+3        0.00000   0.00000   0.00000   0.00000   0.00000
  39       13F-3        0.00000   0.00000   0.00000   0.00000   0.00000
  40       14F 0        0.00000   0.00000   0.00000   0.00000   0.00000
  41       14F+1        0.00000   0.00000   0.00000   0.00000   0.00000
  42       14F-1        0.00000   0.00000   0.00000   0.00000   0.00000
  43       14F+2        0.00000   0.00000   0.00000   0.00000   0.00000
  44       14F-2        0.00000   0.00000   0.00000   0.00000   0.00000
  45       14F+3        0.00000   0.00000   0.00000   0.00000   0.00000
  46       14F-3        0.00000   0.00000   0.00000   0.00000   0.00000
                          31        32        33        34        35
                       (T1U)--V  (T1U)--V  (T1U)--V  (T2U)--V  (T2U)--V
     Eigenvalues --     2.96761   2.96761   2.96761   4.55831   4.55831
   1 1   N  1S          0.00000   0.00000   0.00000   0.00000   0.00000
   2        2S          0.00000   0.00000   0.00000   0.00000   0.00000
   3        3S          0.00000   0.00000   0.00000   0.00000   0.00000
   4        4S          0.00000   0.00000   0.00000   0.00000   0.00000
   5        5S          0.00000   0.00000   0.00000   0.00000   0.00000
   6        6PX         0.00000   0.00000  -1.26494   0.00000   0.00000
   7        6PY        -1.26494   0.00000   0.00000  -0.00000   0.00000
   8        6PZ         0.00000  -1.26494   0.00000   0.00000   0.00000
   9        7PX         0.00000   0.00000   1.60052   0.00000  -0.00000
  10        7PY         1.60052   0.00000   0.00000   0.00000   0.00000
  11        7PZ         0.00000   1.60052   0.00000   0.00000   0.00000
  12        8PX         0.00000   0.00000  -0.88582   0.00000   0.00000
  13        8PY        -0.88582   0.00000   0.00000  -0.00000   0.00000
  14        8PZ         0.00000  -0.88582   0.00000   0.00000   0.00000
  15        9PX         0.00000   0.00000   0.27444   0.00000  -0.00000
  16        9PY         0.27444   0.00000   0.00000   0.00000   0.00000
  17        9PZ         0.00000   0.27444   0.00000   0.00000   0.00000
  18       10D 0        0.00000   0.00000   0.00000   0.00000   0.00000
  19       10D+1        0.00000   0.00000   0.00000   0.00000   0.00000
  20       10D-1        0.00000   0.00000   0.00000   0.00000   0.00000
  21       10D+2        0.00000   0.00000   0.00000   0.00000   0.00000
  22       10D-2        0.00000   0.00000   0.00000   0.00000   0.00000
  23       11D 0        0.00000   0.00000   0.00000   0.00000   0.00000
  24       11D+1        0.00000   0.00000   0.00000   0.00000   0.00000
  25       11D-1        0.00000   0.00000   0.00000   0.00000   0.00000
  26       11D+2        0.00000   0.00000   0.00000   0.00000   0.00000
  27       11D-2        0.00000   0.00000   0.00000   0.00000   0.00000
  28       12D 0        0.00000   0.00000   0.00000   0.00000   0.00000
  29       12D+1        0.00000   0.00000   0.00000   0.00000   0.00000
  30       12D-1        0.00000   0.00000   0.00000   0.00000   0.00000
  31       12D+2        0.00000   0.00000   0.00000   0.00000   0.00000
  32       12D-2        0.00000   0.00000   0.00000   0.00000   0.00000
  33       13F 0        0.00000  -0.00000   0.00000   0.00000   0.00000
  34       13F+1        0.00000   0.00000   0.00000   0.00000   0.92368
  35       13F-1        0.00000   0.00000   0.00000   0.92368   0.00000
  36       13F+2        0.00000  -0.00000   0.00000   0.00000   0.00000
  37       13F-2        0.00000   0.00000   0.00000   0.00000   0.00000
  38       13F+3        0.00000   0.00000  -0.00000   0.00000   0.71541
  39       13F-3        0.00000   0.00000   0.00000  -0.71541   0.00000
  40       14F 0        0.00000   0.00000   0.00000   0.00000   0.00000
  41       14F+1        0.00000   0.00000  -0.00000   0.00000  -0.41113
  42       14F-1       -0.00000   0.00000   0.00000  -0.41113   0.00000
  43       14F+2        0.00000  -0.00000   0.00000   0.00000   0.00000
  44       14F-2        0.00000   0.00000   0.00000   0.00000   0.00000
  45       14F+3        0.00000   0.00000   0.00000   0.00000  -0.31843
  46       14F-3       -0.00000   0.00000   0.00000   0.31843   0.00000
                          36        37        38        39        40
                       (T2U)--V  (A2U)--V  (T1U)--V  (T1U)--V  (T1U)--V
     Eigenvalues --     4.55831   4.55831   4.55831   4.55831   4.55831
   1 1   N  1S          0.00000   0.00000   0.00000   0.00000   0.00000
   2        2S          0.00000   0.00000   0.00000   0.00000   0.00000
   3        3S          0.00000   0.00000   0.00000   0.00000   0.00000
   4        4S          0.00000   0.00000   0.00000   0.00000   0.00000
   5        5S          0.00000   0.00000   0.00000   0.00000   0.00000
   6        6PX         0.00000   0.00000   0.00000  -0.00000   0.00000
   7        6PY         0.00000   0.00000   0.00000   0.00000   0.00000
   8        6PZ        -0.00000   0.00000  -0.00000   0.00000   0.00000
   9        7PX         0.00000   0.00000   0.00000   0.00000   0.00000
  10        7PY         0.00000   0.00000   0.00000   0.00000  -0.00000
  11        7PZ         0.00000   0.00000   0.00000   0.00000   0.00000
  12        8PX         0.00000   0.00000   0.00000  -0.00000   0.00000
  13        8PY         0.00000   0.00000   0.00000   0.00000   0.00000
  14        8PZ         0.00000   0.00000  -0.00000   0.00000   0.00000
  15        9PX         0.00000   0.00000   0.00000   0.00000   0.00000
  16        9PY         0.00000   0.00000   0.00000   0.00000  -0.00000
  17        9PZ        -0.00000   0.00000   0.00000   0.00000   0.00000
  18       10D 0        0.00000   0.00000   0.00000   0.00000   0.00000
  19       10D+1        0.00000   0.00000   0.00000   0.00000   0.00000
  20       10D-1        0.00000   0.00000   0.00000   0.00000   0.00000
  21       10D+2        0.00000   0.00000   0.00000   0.00000   0.00000
  22       10D-2        0.00000   0.00000   0.00000   0.00000   0.00000
  23       11D 0        0.00000   0.00000   0.00000   0.00000   0.00000
  24       11D+1        0.00000   0.00000   0.00000   0.00000   0.00000
  25       11D-1        0.00000   0.00000   0.00000   0.00000   0.00000
  26       11D+2        0.00000   0.00000   0.00000   0.00000   0.00000
  27       11D-2        0.00000   0.00000   0.00000   0.00000   0.00000
  28       12D 0        0.00000   0.00000   0.00000   0.00000   0.00000
  29       12D+1        0.00000   0.00000   0.00000   0.00000   0.00000
  30       12D-1        0.00000   0.00000   0.00000   0.00000   0.00000
  31       12D+2        0.00000   0.00000   0.00000   0.00000   0.00000
  32       12D-2        0.00000   0.00000   0.00000   0.00000   0.00000
  33       13F 0        0.00003   0.00000   1.16833   0.00000   0.00000
  34       13F+1        0.00000   0.00000   0.00000  -0.71541   0.00000
  35       13F-1        0.00000   0.00000   0.00000   0.00000   0.71541
  36       13F+2        1.16833   0.00000  -0.00003   0.00000   0.00000
  37       13F-2        0.00000   1.16833   0.00000   0.00000   0.00000
  38       13F+3        0.00000   0.00000   0.00000   0.92368   0.00000
  39       13F-3        0.00000   0.00000   0.00000   0.00000   0.92368
  40       14F 0       -0.00001   0.00000  -0.52003   0.00000   0.00000
  41       14F+1        0.00000   0.00000   0.00000   0.31843   0.00000
  42       14F-1        0.00000   0.00000   0.00000   0.00000  -0.31843
  43       14F+2       -0.52003   0.00000   0.00001   0.00000   0.00000
  44       14F-2        0.00000  -0.52003   0.00000   0.00000   0.00000
  45       14F+3        0.00000   0.00000   0.00000  -0.41113   0.00000
  46       14F-3        0.00000   0.00000   0.00000   0.00000  -0.41113
                          41        42        43        44        45
                       (T2G)--V  (T2G)--V  (T2G)--V   (EG)--V   (EG)--V
     Eigenvalues --     4.70478   4.70478   4.70478   4.70478   4.70478
   1 1   N  1S          0.00000   0.00000   0.00000  -0.00000  -0.00000
   2        2S          0.00000   0.00000   0.00000  -0.00000  -0.00000
   3        3S          0.00000   0.00000   0.00000   0.00000   0.00000
   4        4S          0.00000   0.00000   0.00000   0.00000   0.00000
   5        5S          0.00000   0.00000   0.00000  -0.00000  -0.00000
   6        6PX         0.00000   0.00000   0.00000   0.00000   0.00000
   7        6PY         0.00000   0.00000   0.00000   0.00000   0.00000
   8        6PZ         0.00000   0.00000   0.00000   0.00000   0.00000
   9        7PX         0.00000   0.00000   0.00000   0.00000   0.00000
  10        7PY         0.00000   0.00000   0.00000   0.00000   0.00000
  11        7PZ         0.00000   0.00000   0.00000   0.00000   0.00000
  12        8PX         0.00000   0.00000   0.00000   0.00000   0.00000
  13        8PY         0.00000   0.00000   0.00000   0.00000   0.00000
  14        8PZ         0.00000   0.00000   0.00000   0.00000   0.00000
  15        9PX         0.00000   0.00000   0.00000   0.00000   0.00000
  16        9PY         0.00000   0.00000   0.00000   0.00000   0.00000
  17        9PZ         0.00000   0.00000   0.00000   0.00000   0.00000
  18       10D 0        0.00000   0.00000   0.00000   0.13838   1.20365
  19       10D+1        0.00000   1.21158   0.00000   0.00000   0.00000
  20       10D-1        0.00000   0.00000   1.21158   0.00000   0.00000
  21       10D+2        0.00000   0.00000   0.00000   1.20365  -0.13838
  22       10D-2        1.21158   0.00000   0.00000   0.00000   0.00000
  23       11D 0        0.00000   0.00000   0.00000  -0.09368  -0.81480
  24       11D+1        0.00000  -0.82017   0.00000   0.00000   0.00000
  25       11D-1        0.00000   0.00000  -0.82017   0.00000   0.00000
  26       11D+2        0.00000   0.00000   0.00000  -0.81480   0.09368
  27       11D-2       -0.82017   0.00000   0.00000   0.00000   0.00000
  28       12D 0        0.00000   0.00000   0.00000   0.03413   0.29684
  29       12D+1        0.00000   0.29879   0.00000   0.00000   0.00000
  30       12D-1        0.00000   0.00000   0.29879   0.00000   0.00000
  31       12D+2        0.00000   0.00000   0.00000   0.29684  -0.03413
  32       12D-2        0.29879   0.00000   0.00000   0.00000   0.00000
  33       13F 0        0.00000   0.00000   0.00000   0.00000   0.00000
  34       13F+1        0.00000   0.00000   0.00000   0.00000   0.00000
  35       13F-1        0.00000   0.00000   0.00000   0.00000   0.00000
  36       13F+2        0.00000   0.00000   0.00000   0.00000   0.00000
  37       13F-2        0.00000   0.00000   0.00000   0.00000   0.00000
  38       13F+3        0.00000   0.00000   0.00000   0.00000   0.00000
  39       13F-3        0.00000   0.00000   0.00000   0.00000   0.00000
  40       14F 0        0.00000   0.00000   0.00000   0.00000   0.00000
  41       14F+1        0.00000   0.00000   0.00000   0.00000   0.00000
  42       14F-1        0.00000   0.00000   0.00000   0.00000   0.00000
  43       14F+2        0.00000   0.00000   0.00000   0.00000   0.00000
  44       14F-2        0.00000   0.00000   0.00000   0.00000   0.00000
  45       14F+3        0.00000   0.00000   0.00000   0.00000   0.00000
  46       14F-3        0.00000   0.00000   0.00000   0.00000   0.00000
                          46
                       (A1G)--V
     Eigenvalues --     5.84491
   1 1   N  1S          1.25944
   2        2S          3.32682
   3        3S         -2.50028
   4        4S         -2.16834
   5        5S          0.68355
   6        6PX         0.00000
   7        6PY         0.00000
   8        6PZ         0.00000
   9        7PX         0.00000
  10        7PY         0.00000
  11        7PZ         0.00000
  12        8PX         0.00000
  13        8PY         0.00000
  14        8PZ         0.00000
  15        9PX         0.00000
  16        9PY         0.00000
  17        9PZ         0.00000
  18       10D 0        0.00000
  19       10D+1        0.00000
  20       10D-1        0.00000
  21       10D+2        0.00000
  22       10D-2        0.00000
  23       11D 0       -0.00000
  24       11D+1        0.00000
  25       11D-1        0.00000
  26       11D+2       -0.00000
  27       11D-2        0.00000
  28       12D 0        0.00000
  29       12D+1        0.00000
  30       12D-1        0.00000
  31       12D+2        0.00000
  32       12D-2        0.00000
  33       13F 0        0.00000
  34       13F+1        0.00000
  35       13F-1        0.00000
  36       13F+2        0.00000
  37       13F-2        0.00000
  38       13F+3        0.00000
  39       13F-3        0.00000
  40       14F 0        0.00000
  41       14F+1        0.00000
  42       14F-1        0.00000
  43       14F+2        0.00000
  44       14F-2        0.00000
  45       14F+3        0.00000
  46       14F-3        0.00000
     Alpha Density Matrix:
                           1         2         3         4         5
   1 1   N  1S          0.99724
   2        2S         -0.14472   0.32819
   3        3S          0.01241   0.09895   0.03320
   4        4S         -0.07677   0.20243   0.06178   0.12502
   5        5S         -0.00177   0.00184   0.00050   0.00112   0.00001
   6        6PX         0.00000   0.00000   0.00000   0.00000   0.00000
   7        6PY         0.00000   0.00000   0.00000   0.00000   0.00000
   8        6PZ         0.00000   0.00000   0.00000   0.00000   0.00000
   9        7PX         0.00000   0.00000   0.00000   0.00000   0.00000
  10        7PY         0.00000   0.00000   0.00000   0.00000   0.00000
  11        7PZ         0.00000   0.00000   0.00000   0.00000   0.00000
  12        8PX         0.00000   0.00000   0.00000   0.00000   0.00000
  13        8PY         0.00000   0.00000   0.00000   0.00000   0.00000
[...]
  33       13F 0       -0.00000  -0.00000   0.00000   0.00000   0.00000
  34       13F+1       -0.00000  -0.00000   0.00000   0.00000   0.00000
  35       13F-1       -0.00000  -0.00000   0.00000   0.00000   0.00000
  36       13F+2       -0.00000   0.00000   0.00000   0.00000   0.00000
  37       13F-2        0.00000  -0.00000   0.00000   0.00000   0.00000
  38       13F+3        0.00000   0.00000   0.00000   0.00000   0.00000
  39       13F-3        0.00000   0.00000   0.00000   0.00000   0.00000
  40       14F 0       -0.00000   0.00000   0.00000   0.00000   0.00000
  41       14F+1        0.00000   0.00000   0.00000   0.00000   0.00000
  42       14F-1        0.00000  -0.00000   0.00000   0.00000   0.00000
  43       14F+2       -0.00000  -0.00000   0.00000   0.00000   0.00000
  44       14F-2        0.00000  -0.00000   0.00000   0.00000   0.00000
  45       14F+3        0.00000   0.00000   0.00000   0.00000   0.00000
  46       14F-3        0.00000   0.00000   0.00000   0.00000   0.00000
                          21        22        23        24        25
  21       10D+2        0.00000
  22       10D-2        0.00000   0.00000
  23       11D 0       -0.00000  -0.00000   0.00000
  24       11D+1        0.00000  -0.00000  -0.00000   0.00000
  25       11D-1        0.00000  -0.00000  -0.00000   0.00000   0.00000
  26       11D+2       -0.00000  -0.00000  -0.00000   0.00000  -0.00000
  27       11D-2       -0.00000  -0.00000   0.00000   0.00000   0.00000
  28       12D 0       -0.00000  -0.00000  -0.00000   0.00000   0.00000
  29       12D+1       -0.00000   0.00000   0.00000  -0.00000  -0.00000
  30       12D-1        0.00000   0.00000   0.00000   0.00000  -0.00000
  31       12D+2        0.00000  -0.00000   0.00000   0.00000   0.00000
  32       12D-2        0.00000   0.00000  -0.00000  -0.00000   0.00000
  33       13F 0        0.00000   0.00000   0.00000   0.00000   0.00000
  34       13F+1        0.00000   0.00000   0.00000   0.00000   0.00000
  35       13F-1        0.00000   0.00000   0.00000   0.00000   0.00000
  36       13F+2        0.00000   0.00000   0.00000   0.00000   0.00000
  37       13F-2        0.00000   0.00000   0.00000   0.00000   0.00000
  38       13F+3        0.00000   0.00000   0.00000   0.00000   0.00000
  39       13F-3        0.00000   0.00000   0.00000   0.00000   0.00000
  40       14F 0        0.00000   0.00000   0.00000   0.00000   0.00000
  41       14F+1        0.00000   0.00000   0.00000   0.00000   0.00000
  42       14F-1        0.00000   0.00000   0.00000   0.00000   0.00000
  43       14F+2        0.00000   0.00000   0.00000   0.00000   0.00000
  44       14F-2        0.00000   0.00000   0.00000   0.00000   0.00000
  45       14F+3        0.00000   0.00000   0.00000   0.00000   0.00000
  46       14F-3        0.00000   0.00000   0.00000   0.00000   0.00000
                          26        27        28        29        30
  26       11D+2        0.00000
  27       11D-2       -0.00000   0.00000
  28       12D 0        0.00000  -0.00000   0.00000
  29       12D+1        0.00000  -0.00000  -0.00000   0.00000
  30       12D-1        0.00000   0.00000  -0.00000   0.00000   0.00000
  31       12D+2       -0.00000   0.00000   0.00000   0.00000   0.00000
  32       12D-2        0.00000  -0.00000   0.00000   0.00000  -0.00000
  33       13F 0        0.00000   0.00000   0.00000   0.00000   0.00000
  34       13F+1        0.00000   0.00000   0.00000   0.00000   0.00000
  35       13F-1        0.00000   0.00000   0.00000   0.00000   0.00000
  36       13F+2        0.00000   0.00000   0.00000   0.00000   0.00000
  37       13F-2        0.00000   0.00000   0.00000   0.00000   0.00000
  38       13F+3        0.00000   0.00000   0.00000   0.00000   0.00000
  39       13F-3        0.00000   0.00000   0.00000   0.00000   0.00000
  40       14F 0        0.00000   0.00000   0.00000   0.00000   0.00000
  41       14F+1        0.00000   0.00000   0.00000   0.00000   0.00000
  42       14F-1        0.00000   0.00000   0.00000   0.00000   0.00000
  43       14F+2        0.00000   0.00000   0.00000   0.00000   0.00000
  44       14F-2        0.00000   0.00000   0.00000   0.00000   0.00000
  45       14F+3        0.00000   0.00000   0.00000   0.00000   0.00000
  46       14F-3        0.00000   0.00000   0.00000   0.00000   0.00000
                          31        32        33        34        35
  31       12D+2        0.00000
  32       12D-2        0.00000   0.00000
  33       13F 0        0.00000   0.00000   0.00000
  34       13F+1        0.00000   0.00000   0.00000   0.00000
  35       13F-1        0.00000   0.00000   0.00000   0.00000   0.00000
  36       13F+2        0.00000   0.00000   0.00000   0.00000   0.00000
  37       13F-2        0.00000   0.00000   0.00000   0.00000   0.00000
  38       13F+3        0.00000   0.00000  -0.00000  -0.00000  -0.00000
  39       13F-3        0.00000   0.00000  -0.00000  -0.00000  -0.00000
  40       14F 0        0.00000   0.00000   0.00000  -0.00000   0.00000
  41       14F+1        0.00000   0.00000   0.00000   0.00000  -0.00000
  42       14F-1        0.00000   0.00000   0.00000  -0.00000   0.00000
  43       14F+2        0.00000   0.00000  -0.00000   0.00000  -0.00000
  44       14F-2        0.00000   0.00000  -0.00000   0.00000   0.00000
  45       14F+3        0.00000   0.00000   0.00000   0.00000  -0.00000
  46       14F-3        0.00000   0.00000  -0.00000  -0.00000   0.00000
                          36        37        38        39        40
  36       13F+2        0.00000
  37       13F-2        0.00000   0.00000
  38       13F+3        0.00000  -0.00000   0.00000
  39       13F-3       -0.00000   0.00000   0.00000   0.00000
  40       14F 0       -0.00000   0.00000   0.00000  -0.00000   0.00000
  41       14F+1       -0.00000  -0.00000   0.00000   0.00000  -0.00000
  42       14F-1       -0.00000   0.00000  -0.00000   0.00000  -0.00000
  43       14F+2       -0.00000  -0.00000  -0.00000   0.00000  -0.00000
  44       14F-2        0.00000   0.00000   0.00000  -0.00000  -0.00000
  45       14F+3        0.00000  -0.00000   0.00000   0.00000   0.00000
  46       14F-3       -0.00000   0.00000  -0.00000   0.00000  -0.00000
                          41        42        43        44        45
  41       14F+1        0.00000
  42       14F-1        0.00000   0.00000
  43       14F+2       -0.00000  -0.00000   0.00000
  44       14F-2       -0.00000   0.00000   0.00000   0.00000
  45       14F+3       -0.00000  -0.00000   0.00000   0.00000   0.00000
  46       14F-3       -0.00000  -0.00000  -0.00000  -0.00000  -0.00000
                          46
  46       14F-3        0.00000
     Gross orbital populations:
                         Total     Alpha     Beta      Spin
   1 1   N  1S          1.95715   0.97746   0.97969  -0.00223
   2        2S          1.05401   0.55765   0.49636   0.06128
   3        3S          0.27457   0.14749   0.12708   0.02041
   4        4S          0.69396   0.31559   0.37837  -0.06277
   5        5S          0.02030   0.00180   0.01850  -0.01670
   6        6PX         0.28673   0.28673   0.00000   0.28673
   7        6PY         0.28673   0.28673   0.00000   0.28673
   8        6PZ         0.28673   0.28673   0.00000   0.28673
   9        7PX         0.44863   0.44863   0.00000   0.44863
  10        7PY         0.44863   0.44863   0.00000   0.44863
  11        7PZ         0.44863   0.44863   0.00000   0.44863
  12        8PX         0.25198   0.25198   0.00000   0.25198
  13        8PY         0.25198   0.25198   0.00000   0.25198
  14        8PZ         0.25198   0.25198   0.00000   0.25198
  15        9PX         0.01266   0.01266   0.00000   0.01266
  16        9PY         0.01266   0.01266   0.00000   0.01266
  17        9PZ         0.01266   0.01266   0.00000   0.01266
  18       10D 0        0.00000   0.00000   0.00000   0.00000
  19       10D+1        0.00000   0.00000   0.00000   0.00000
  20       10D-1        0.00000   0.00000   0.00000   0.00000
  21       10D+2        0.00000   0.00000   0.00000   0.00000
  22       10D-2        0.00000   0.00000   0.00000   0.00000
  23       11D 0        0.00000   0.00000   0.00000   0.00000
  24       11D+1        0.00000   0.00000   0.00000   0.00000
  25       11D-1        0.00000   0.00000   0.00000   0.00000
  26       11D+2        0.00000   0.00000   0.00000   0.00000
  27       11D-2        0.00000   0.00000   0.00000   0.00000
  28       12D 0        0.00000  -0.00000   0.00000  -0.00000
  29       12D+1        0.00000  -0.00000   0.00000  -0.00000
  30       12D-1       -0.00000  -0.00000   0.00000  -0.00000
  31       12D+2        0.00000  -0.00000   0.00000  -0.00000
  32       12D-2        0.00000  -0.00000   0.00000  -0.00000
  33       13F 0        0.00000   0.00000   0.00000   0.00000
  34       13F+1        0.00000   0.00000   0.00000   0.00000
  35       13F-1        0.00000   0.00000   0.00000   0.00000
  36       13F+2        0.00000   0.00000   0.00000   0.00000
  37       13F-2        0.00000   0.00000   0.00000   0.00000
  38       13F+3        0.00000   0.00000   0.00000   0.00000
  39       13F-3        0.00000   0.00000   0.00000   0.00000
  40       14F 0        0.00000   0.00000   0.00000   0.00000
  41       14F+1        0.00000   0.00000   0.00000   0.00000
  42       14F-1        0.00000   0.00000   0.00000   0.00000
  43       14F+2        0.00000   0.00000   0.00000   0.00000
  44       14F-2        0.00000   0.00000   0.00000   0.00000
  45       14F+3        0.00000   0.00000   0.00000   0.00000
  46       14F-3        0.00000   0.00000   0.00000   0.00000
          Condensed to atoms (all electrons):
               1
     1  N    7.000000
          Atomic-Atomic Spin Densities.
               1
     1  N    3.000000
 Mulliken charges and spin densities:
               1          2
     1  N   -0.000000   3.000000
 Sum of Mulliken charges =  -0.00000   3.00000
 Mulliken charges and spin densities with hydrogens summed into heavy atoms:
               1          2
     1  N   -0.000000   3.000000
 Electronic spatial extent (au):  <R**2>=             12.4593
 Charge=             -0.0000 electrons
 Dipole moment (field-independent basis, Debye):
    X=              0.0000    Y=              0.0000    Z=              0.0000  Tot=              0.0000
 Quadrupole moment (field-independent basis, Debye-Ang):
   XX=             -5.5861   YY=             -5.5861   ZZ=             -5.5861
   XY=              0.0000   XZ=              0.0000   YZ=             -0.0000
 Traceless Quadrupole moment (field-independent basis, Debye-Ang):
   XX=              0.0000   YY=              0.0000   ZZ=              0.0000
   XY=              0.0000   XZ=              0.0000   YZ=             -0.0000
 Octapole moment (field-independent basis, Debye-Ang**2):
  XXX=              0.0000  YYY=              0.0000  ZZZ=              0.0000  XYY=              0.0000
  XXY=              0.0000  XXZ=              0.0000  XZZ=              0.0000  YZZ=              0.0000
  YYZ=              0.0000  XYZ=              0.0000
 Hexadecapole moment (field-independent basis, Debye-Ang**3):
 XXXX=             -5.4414 YYYY=             -5.4414 ZZZZ=             -5.4414 XXXY=              0.0000
 XXXZ=             -0.0000 YYYX=             -0.0000 YYYZ=              0.0000 ZZZX=              0.0000
 ZZZY=             -0.0000 XXYY=             -1.8138 XXZZ=             -1.8138 YYZZ=             -1.8138
 XXYZ=             -0.0000 YYXZ=              0.0000 ZZXY=              0.0000
 N-N= 0.000000000000D+00 E-N=-1.282308649797D+02  KE= 5.429565329525D+01
 Symmetry AG   KE= 4.857454115743D+01
 Symmetry B1G  KE= 1.114103097282D-61
 Symmetry B2G  KE= 1.174242655312D-61
 Symmetry B3G  KE= 1.077942397693D-61
 Symmetry AU   KE= 8.369368433009D-54
 Symmetry B1U  KE= 1.907037379272D+00
 Symmetry B2U  KE= 1.907037379272D+00
 Symmetry B3U  KE= 1.907037379272D+00
 Symmetry AG   SP=-2.541942902560D-15
 Symmetry B1G  SP= 1.534077337872D-62
 Symmetry B2G  SP= 1.509290411509D-62
 Symmetry B3G  SP= 1.502569299986D-62
 Symmetry AU   SP= 2.958319938429D-54
 Symmetry B1U  SP= 1.000000000000D+00
 Symmetry B2U  SP= 1.000000000000D+00
 Symmetry B3U  SP= 1.000000000000D+00
 Orbital energies and kinetic energies (alpha):
                                 1                 2
   1         (A1G)--O        -14.441412         21.917906
   2         (A1G)--O         -0.814217          2.441116
   3         (T1U)--O         -0.359309          1.907037
   4         (T1U)--O         -0.359309          1.907037
   5         (T1U)--O         -0.359309          1.907037
   6         (A1G)--V          0.046012          0.371591
   7         (T1U)--V          0.078516          0.288041
   8         (T1U)--V          0.078516          0.288041
   9         (T1U)--V          0.078516          0.288041
  10         (T2G)--V          0.339005          0.520798
  11         (T2G)--V          0.339005          0.520798
  12         (T2G)--V          0.339005          0.520798
  13         (EG)--V           0.339005          0.520798
  14         (EG)--V           0.339005          0.520798
  15         (T1U)--V          0.562772          1.586627
  16         (T1U)--V          0.562772          1.586627
  17         (T1U)--V          0.562772          1.586627
  18         (A1G)--V          0.771873          2.346121
  19         (T2G)--V          1.276549          1.965104
  20         (T2G)--V          1.276549          1.965104
  21         (T2G)--V          1.276549          1.965104
  22         (EG)--V           1.276549          1.965104
  23         (EG)--V           1.276549          1.965104
  24         (T2U)--V          1.285026          1.581721
  25         (T2U)--V          1.285026          1.581721
  26         (T2U)--V          1.285026          1.581721
  27         (A2U)--V          1.285026          1.581721
  28         (T1U)--V          1.285026          1.581721
  29         (T1U)--V          1.285026          1.581721
  30         (T1U)--V          1.285026          1.581721
  31         (T1U)--V          2.845156          7.163820
  32         (T1U)--V          2.845156          7.163820
  33         (T1U)--V          2.845156          7.163820
  34         (T2U)--V          4.437541          5.592546
  35         (T2U)--V          4.437541          5.592546
  36         (T2U)--V          4.437541          5.592546
  37         (A2U)--V          4.437541          5.592546
  38         (T1U)--V          4.437541          5.592546
  39         (T1U)--V          4.437541          5.592546
  40         (T1U)--V          4.437541          5.592546
  41         (T2G)--V          4.537557          6.844572
  42         (T2G)--V          4.537557          6.844572
  43         (T2G)--V          4.537557          6.844572
  44         (EG)--V           4.537557          6.844572
  45         (EG)--V           4.537557          6.844572
  46         (A1G)--V          5.742058         19.721988
 Orbital energies and kinetic energies (beta):
                                 1                 2
   1         (A1G)--O        -14.383197         22.026269
   2         (A1G)--O         -0.619158          2.189249
   3         (T1U)--V         -0.116331          1.395163
   4         (T1U)--V         -0.116331          1.395163
   5         (T1U)--V         -0.116331          1.395163
   6         (A1G)--V          0.060326          0.394774
   7         (T1U)--V          0.098001          0.467103
   8         (T1U)--V          0.098001          0.467103
   9         (T1U)--V          0.098001          0.467103
  10         (T2G)--V          0.358340          0.510687
  11         (T2G)--V          0.358340          0.510687
  12         (T2G)--V          0.358340          0.510687
  13         (EG)--V           0.358340          0.510687
  14         (EG)--V           0.358340          0.510687
  15         (T1U)--V          0.635430          1.814806
  16         (T1U)--V          0.635430          1.814806
  17         (T1U)--V          0.635430          1.814806
  18         (A1G)--V          0.850095          2.450490
  19         (T2U)--V          1.324238          1.579174
  20         (T2U)--V          1.324238          1.579174
  21         (T2U)--V          1.324238          1.579174
  22         (A2U)--V          1.324238          1.579174
  23         (T1U)--V          1.324238          1.579174
  24         (T1U)--V          1.324238          1.579174
  25         (T1U)--V          1.324238          1.579174
  26         (T2G)--V          1.370081          1.956611
  27         (T2G)--V          1.370081          1.956611
  28         (T2G)--V          1.370081          1.956611
  29         (EG)--V           1.370081          1.956611
  30         (EG)--V           1.370081          1.956611
  31         (T1U)--V          2.967607          7.268453
  32         (T1U)--V          2.967607          7.268453
  33         (T1U)--V          2.967607          7.268453
  34         (T2U)--V          4.558314          5.595093
  35         (T2U)--V          4.558314          5.595093
  36         (T2U)--V          4.558314          5.595093
  37         (A2U)--V          4.558314          5.595093
  38         (T1U)--V          4.558314          5.595093
  39         (T1U)--V          4.558314          5.595093
  40         (T1U)--V          4.558314          5.595093
  41         (T2G)--V          4.704785          6.863176
  42         (T2G)--V          4.704785          6.863176
  43         (T2G)--V          4.704785          6.863176
  44         (EG)--V           4.704785          6.863176
  45         (EG)--V           4.704785          6.863176
  46         (A1G)--V          5.844914         19.737940
 Total kinetic energy from orbitals= 5.429565329525D+01
                          Isotropic Fermi Contact Couplings
        Atom                 a.u.       MegaHertz       Gauss      10(-4) cm-1
     1  N(14)              0.02007       2.16121       0.77117       0.72090
 --------------------------------------------------------
       Center         ----  Spin Dipole Couplings  ----
                      3XX-RR        3YY-RR        3ZZ-RR
 --------------------------------------------------------
     1   Atom       -0.000000      0.000000     -0.000000
 --------------------------------------------------------
                        XY            XZ            YZ
 --------------------------------------------------------
     1   Atom        0.000000      0.000000      0.000000
 --------------------------------------------------------


 ---------------------------------------------------------------------------------
              Anisotropic Spin Dipole Couplings in Principal Axis System
 ---------------------------------------------------------------------------------

       Atom             a.u.   MegaHertz   Gauss  10(-4) cm-1        Axes

              Baa    -0.0000    -0.000    -0.000    -0.000  1.0000  0.0000  0.0000
     1 N(14)  Bbb    -0.0000    -0.000    -0.000    -0.000  0.0000  0.0000  1.0000
              Bcc     0.0000     0.000     0.000     0.000 -0.0000  1.0000  0.0000
 

 ---------------------------------------------------------------------------------

 1\1\GINC-LOGIN\SP\UB3LYP\Aug-CC-pVTZ\N1(4)\C7441090\20-Nov-2023\0\\# B
 3LYP/aug-cc-pVTZ EmpiricalDispersion=GD3 Pop=Full\\Nitrogen\\0,4\N,0,0
 .,0.,0.\\Version=ES64L-G16RevA.03\State=4-A1G\HF=-54.6028907\S2=3.7535
 12\S2-1=0.\S2A=3.75\RMSD=1.431e-09\Dipole=0.,0.,0.\Quadrupole=0.,0.,0.
 ,0.,0.,0.\PG=OH [O(N1)]\\@


 SCIENCE AND PEACE WILL TRIUMPH OVER IGNORANCE AND WAR

                          -- PASTEUR
 Job cpu time:       0 days  0 hours  0 minutes 11.0 seconds.
 Elapsed time:       0 days  0 hours  0 minutes  5.0 seconds.
 File lengths (MBytes):  RWF=      5 Int=      0 D2E=      0 Chk=      1 Scr=      1
 Normal termination of Gaussian 16 at Mon Nov 20 23:52:30 2023.
