Sodium                                                                  
SP        UB3LYP                                                      Aug-CC-pVTZ         
Number of atoms                            I                1
Info1-9                                    I   N=           9
          12          11           0           0           0         110
           1          18        -502
Full Title                                 C   N=           1
Sodium      
Route                                      C   N=           5
# B3LYP/aug-cc-pVTZ EmpiricalDispersion=GD3 Pop=Full        
Charge                                     I                0
Multiplicity                               I                2
Number of electrons                        I               11
Number of alpha electrons                  I                6
Number of beta electrons                   I                5
Number of basis functions                  I               50
Number of independent functions            I               50
Number of point charges in /Mol/           I                0
Number of translation vectors              I                0
Atomic numbers                             I   N=           1
          11
Nuclear charges                            R   N=           1
  1.10000000E+01
Current cartesian coordinates              R   N=           3
  0.00000000E+00  0.00000000E+00  0.00000000E+00
Number of symbols in /Mol/                 I                0
Force Field                                I                0
Atom Types                                 C   N=           1
            
Int Atom Types                             I   N=           1
           0
MM charges                                 R   N=           1
  0.00000000E+00
Integer atomic weights                     I   N=           1
          23
Real atomic weights                        R   N=           1
  2.29897697E+01
Atom fragment info                         I   N=           1
           0
Atom residue num                           I   N=           1
           0
Nuclear spins                              I   N=           1
           3
Nuclear ZEff                               R   N=           1
 -1.00400000E+01
Nuclear ZNuc                               R   N=           1
  1.10000000E+01
Nuclear QMom                               R   N=           1
  1.04000000E+01
Nuclear GFac                               R   N=           1
  2.21752000E+00
MicOpt                                     I   N=           1
          -1
Number of residues                         I                0
Number of secondary structures             I                0
SymInf integers                            I   N=          26
           1           8           1           1           1           1
          -1          -1          -1           1          -1          -1
          -1           1          -1          -1          -1          -1
           1           1           1          -1           1           1
           1          -1
RotTr to input orientation                 R   N=          12
  0.00000000E+00  0.00000000E+00 -1.00000000E+00  0.00000000E+00  1.00000000E+00
  0.00000000E+00  1.00000000E+00  0.00000000E+00  0.00000000E+00  0.00000000E+00
  0.00000000E+00  0.00000000E+00
Number of contracted shells                I               16
Number of primitive shells                 I               56
Pure/Cartesian d shells                    I                0
Pure/Cartesian f shells                    I                0
Highest angular momentum                   I                3
Largest degree of contraction              I               12
Shell types                                I   N=          16
           0           0           0           0           0           0
           1           1           1           1           1          -2
          -2          -2          -3          -3
Number of primitives per shell             I   N=          16
          12          10           9           1           1           1
           7           7           1           1           1           1
           1           1           1           1
Shell to atom map                          I   N=          16
           1           1           1           1           1           1
           1           1           1           1           1           1
           1           1           1           1
Primitive exponents                        R   N=          56
  4.23000000E+05  6.33400000E+04  1.44100000E+04  4.07700000E+03  1.32800000E+03
  4.78600000E+02  1.86200000E+02  7.69200000E+01  3.33200000E+01  1.50000000E+01
  6.86900000E+00  2.68300000E+00  1.44100000E+04  1.32800000E+03  4.78600000E+02
  1.86200000E+02  7.69200000E+01  3.33200000E+01  1.50000000E+01  6.86900000E+00
  2.68300000E+00  1.10900000E+00  1.32800000E+03  4.78600000E+02  7.69200000E+01
  3.33200000E+01  1.50000000E+01  6.86900000E+00  2.68300000E+00  1.10900000E+00
  6.01500000E-02  4.54000000E-01  2.38200000E-02  7.41660000E-03  2.43300000E+02
  5.73900000E+01  1.81000000E+01  6.57500000E+00  2.52100000E+00  9.60700000E-01
  3.51200000E-01  5.73900000E+01  1.81000000E+01  6.57500000E+00  2.52100000E+00
  9.60700000E-01  3.51200000E-01  9.82700000E-02  3.73400000E-02  1.50000000E-02
  7.41660000E-03  1.36700000E-01  6.36000000E-02  2.41334400E-02  1.39700000E-01
  7.01585400E-02
Contraction coefficients                   R   N=          56
  1.80663366E-05  1.40465361E-04  7.38623431E-04  3.11260661E-03  1.12109344E-02
  3.52919305E-02  9.60152743E-02  2.13797684E-01  3.48808987E-01  3.24736151E-01
  1.12678774E-01  6.70805171E-03  1.41236211E-06 -1.32935108E-06 -2.42156607E-04
 -1.49840407E-03 -9.90375510E-03 -3.75768234E-02 -1.00806381E-01 -1.97874663E-02
  4.13768156E-01  6.84126677E-01  3.26836636E-06 -8.86643877E-06 -2.99717621E-04
 -5.98261637E-04 -2.56934034E-03  9.37478868E-04 -1.63451181E-03 -2.47254124E-02
  1.00724725E+00  1.00000000E+00  1.00000000E+00  1.00000000E+00  2.24530068E-03
  1.74106388E-02  7.74611782E-02  2.19247060E-01  3.78766602E-01  3.95219996E-01
  1.60564991E-01 -1.01621823E-04 -4.56873247E-04 -4.47365244E-03 -5.10745423E-03
 -3.27505762E-02 -1.84602448E-02  1.01924399E+00  1.00000000E+00  1.00000000E+00
  1.00000000E+00  1.00000000E+00  1.00000000E+00  1.00000000E+00  1.00000000E+00
  1.00000000E+00
Coordinates of each shell                  R   N=          48
  0.00000000E+00  0.00000000E+00  0.00000000E+00  0.00000000E+00  0.00000000E+00
  0.00000000E+00  0.00000000E+00  0.00000000E+00  0.00000000E+00  0.00000000E+00
  0.00000000E+00  0.00000000E+00  0.00000000E+00  0.00000000E+00  0.00000000E+00
  0.00000000E+00  0.00000000E+00  0.00000000E+00  0.00000000E+00  0.00000000E+00
  0.00000000E+00  0.00000000E+00  0.00000000E+00  0.00000000E+00  0.00000000E+00
  0.00000000E+00  0.00000000E+00  0.00000000E+00  0.00000000E+00  0.00000000E+00
  0.00000000E+00  0.00000000E+00  0.00000000E+00  0.00000000E+00  0.00000000E+00
  0.00000000E+00  0.00000000E+00  0.00000000E+00  0.00000000E+00  0.00000000E+00
  0.00000000E+00  0.00000000E+00  0.00000000E+00  0.00000000E+00  0.00000000E+00
  0.00000000E+00  0.00000000E+00  0.00000000E+00
Num ILSW                                   I              100
ILSW                                       I   N=         100
           1           0           0           0           2           0
           0           0           0           0         402          -1
           5           0           0           0           0           0
           0           0           1           0           0           0
           1           0           0           0           0           0
           0           0      100000           0          -1           0
           0           0           0           0           0           0
           0           0           0           1           0           0
           0 -2000000000           1           0           0           0
           0           0         131          52           0           0
           0           0           5           0           0           0
           0           0           0           0           0           1
           0           0           0           0           0           0
           0           0           0           0           0           0
           0           0           0           0           0           0
           0           0           0           0           0           0
           0           0           0           0
Num RLSW                                   I               52
RLSW                                       R   N=          52
  8.00000000E-01  7.20000000E-01  1.00000000E+00  8.10000000E-01  2.00000000E-01
  0.00000000E+00  0.00000000E+00  1.00000000E+00  0.00000000E+00  0.00000000E+00
  0.00000000E+00  0.00000000E+00  1.00000000E+00  0.00000000E+00  0.00000000E+00
  0.00000000E+00  0.00000000E+00  1.00000000E+00  0.00000000E+00  0.00000000E+00
  0.00000000E+00  0.00000000E+00  1.00000000E+00  0.00000000E+00  0.00000000E+00
  0.00000000E+00  0.00000000E+00  1.00000000E+00  0.00000000E+00  0.00000000E+00
  0.00000000E+00  0.00000000E+00  1.00000000E+00  0.00000000E+00  0.00000000E+00
  0.00000000E+00  0.00000000E+00  0.00000000E+00  1.00000000E+00  1.00000000E+00
  0.00000000E+00  1.00000000E+00  0.00000000E+00  0.00000000E+00  0.00000000E+00
  0.00000000E+00  0.00000000E+00  0.00000000E+00  0.00000000E+00  0.00000000E+00
  0.00000000E+00  0.00000000E+00
MxBond                                     I                1
NBond                                      I   N=           1
           0
IBond                                      I   N=           1
           0
RBond                                      R   N=           1
  0.00000000E+00
Virial Ratio                               R      2.005092569794338E+00
SCF Energy                                 R     -1.622970238879682E+02
Total Energy                               R     -1.622970238879682E+02
S**2                                       R      7.500080567041962E-01
S**2 after annihilation                    R      7.500000000494977E-01
RMS Density                                R      9.222245984921713E-10
Job Status                                 I                1
Nuclear derivative order                   I                0
External E-field                           R   N=          35
  0.00000000E+00  0.00000000E+00  0.00000000E+00  0.00000000E+00  0.00000000E+00
  0.00000000E+00  0.00000000E+00  0.00000000E+00  0.00000000E+00  0.00000000E+00
  0.00000000E+00  0.00000000E+00  0.00000000E+00  0.00000000E+00  0.00000000E+00
  0.00000000E+00  0.00000000E+00  0.00000000E+00  0.00000000E+00  0.00000000E+00
  0.00000000E+00  0.00000000E+00  0.00000000E+00  0.00000000E+00  0.00000000E+00
  0.00000000E+00  0.00000000E+00  0.00000000E+00  0.00000000E+00  0.00000000E+00
  0.00000000E+00  0.00000000E+00  0.00000000E+00  0.00000000E+00  0.00000000E+00
IOpCl                                      I                1
IROHF                                      I                0
Alpha Orbital Energies                     R   N=          50
 -3.84998350E+01 -2.22945947E+00 -1.16083087E+00 -1.16083087E+00 -1.16083087E+00
 -1.28138188E-01 -2.10045489E-02 -2.10045489E-02 -2.10045489E-02  9.49286493E-04
  1.21839095E-02  1.21839095E-02  1.21839095E-02  3.75190074E-02  3.75190074E-02
  3.75190074E-02  3.75190074E-02  3.75190074E-02  6.54922591E-02  6.54922591E-02
  6.54922591E-02  8.10128495E-02  1.57312091E-01  1.57312091E-01  1.57312091E-01
  1.57312091E-01  1.57312091E-01  2.06830386E-01  2.06830386E-01  2.06830386E-01
  2.06830386E-01  2.06830386E-01  2.06830386E-01  2.06830386E-01  2.42076281E-01
  2.42076281E-01  2.42076281E-01  4.58262680E-01  4.58262680E-01  4.58262680E-01
  4.58262680E-01  4.58262680E-01  6.25967231E-01  6.25967231E-01  6.25967231E-01
  6.25967231E-01  6.25967232E-01  6.25967232E-01  6.25967232E-01  1.45903008E+00
Beta Orbital Energies                      R   N=          50
 -3.84980402E+01 -2.22600938E+00 -1.15855611E+00 -1.15855611E+00 -1.15855611E+00
 -6.30132710E-02 -3.09910805E-04 -3.09910805E-04 -3.09910805E-04  8.64034207E-03
  2.13035348E-02  2.13035348E-02  2.13035348E-02  5.10344588E-02  5.10344588E-02
  5.10344588E-02  5.10344588E-02  5.10344588E-02  7.99216928E-02  7.99216928E-02
  7.99216928E-02  9.69418858E-02  1.83458008E-01  1.83458008E-01  1.83458008E-01
  1.83458008E-01  1.83458008E-01  2.33618298E-01  2.33618298E-01  2.33618298E-01
  2.33618298E-01  2.33618298E-01  2.33618298E-01  2.33618298E-01  2.60005415E-01
  2.60005415E-01  2.60005415E-01  4.78256344E-01  4.78256344E-01  4.78256344E-01
  4.78256344E-01  4.78256344E-01  6.50560889E-01  6.50560889E-01  6.50560889E-01
  6.50560889E-01  6.50560889E-01  6.50560889E-01  6.50560889E-01  1.47024858E+00
Alpha MO coefficients                      R   N=        2500
  9.99451574E-01  3.76135488E-03  1.18450665E-03 -2.55947712E-03 -8.99081518E-04
  2.67150506E-04  0.00000000E+00  0.00000000E+00  0.00000000E+00  0.00000000E+00
  0.00000000E+00  0.00000000E+00  0.00000000E+00  0.00000000E+00  0.00000000E+00
  0.00000000E+00  0.00000000E+00  0.00000000E+00  0.00000000E+00  0.00000000E+00
  0.00000000E+00 -5.08530221E-16  0.00000000E+00  0.00000000E+00  4.17592605E-16
  0.00000000E+00  5.41427124E-16  0.00000000E+00  0.00000000E+00 -1.10356976E-15
  0.00000000E+00 -2.46528720E-16  0.00000000E+00  0.00000000E+00  6.94072501E-16
  0.00000000E+00  0.00000000E+00  0.00000000E+00  0.00000000E+00  0.00000000E+00
  0.00000000E+00  0.00000000E+00  0.00000000E+00  0.00000000E+00  0.00000000E+00
  0.00000000E+00  0.00000000E+00  0.00000000E+00  0.00000000E+00  0.00000000E+00
 -2.45014782E-01  8.10082882E-01  1.37682712E-02  2.54675978E-01 -8.54681873E-03
  2.36124575E-03  0.00000000E+00  0.00000000E+00  0.00000000E+00  0.00000000E+00
  0.00000000E+00  0.00000000E+00  0.00000000E+00  0.00000000E+00  0.00000000E+00
  0.00000000E+00  0.00000000E+00  0.00000000E+00  0.00000000E+00  0.00000000E+00
  0.00000000E+00 -2.86830521E-16  0.00000000E+00  0.00000000E+00  1.32290736E-15
  0.00000000E+00  4.47416256E-16  0.00000000E+00  0.00000000E+00 -3.06780905E-16
  0.00000000E+00 -2.20263219E-16  0.00000000E+00  0.00000000E+00 -1.90973635E-16
  0.00000000E+00  0.00000000E+00  0.00000000E+00  0.00000000E+00  0.00000000E+00
  0.00000000E+00  0.00000000E+00  0.00000000E+00  0.00000000E+00  0.00000000E+00
  0.00000000E+00  0.00000000E+00  0.00000000E+00  0.00000000E+00  0.00000000E+00
  0.00000000E+00  0.00000000E+00  0.00000000E+00  0.00000000E+00  0.00000000E+00
  0.00000000E+00  0.00000000E+00  0.00000000E+00  9.96351145E-01  0.00000000E+00
  0.00000000E+00  2.22868091E-02  0.00000000E+00  0.00000000E+00 -1.20509370E-02
  0.00000000E+00  0.00000000E+00  8.06895377E-03  0.00000000E+00  0.00000000E+00
 -3.33665473E-03  0.00000000E+00  0.00000000E+00  0.00000000E+00  0.00000000E+00
  0.00000000E+00  0.00000000E+00  0.00000000E+00  0.00000000E+00  0.00000000E+00
  0.00000000E+00  0.00000000E+00  0.00000000E+00  0.00000000E+00  0.00000000E+00
  0.00000000E+00 -2.02437056E-13  0.00000000E+00  0.00000000E+00 -5.50123723E-17
  0.00000000E+00  0.00000000E+00  0.00000000E+00  5.14880217E-14  0.00000000E+00
  0.00000000E+00 -1.83730738E-16  0.00000000E+00  0.00000000E+00  0.00000000E+00
  0.00000000E+00  0.00000000E+00  0.00000000E+00  0.00000000E+00  0.00000000E+00
  0.00000000E+00  0.00000000E+00  9.96351145E-01  0.00000000E+00  0.00000000E+00
  2.22868091E-02  0.00000000E+00  0.00000000E+00 -1.20509370E-02  0.00000000E+00
  0.00000000E+00  8.06895377E-03  0.00000000E+00  0.00000000E+00 -3.33665473E-03
  0.00000000E+00  0.00000000E+00  0.00000000E+00  0.00000000E+00  0.00000000E+00
  0.00000000E+00  0.00000000E+00  0.00000000E+00  0.00000000E+00  0.00000000E+00
  0.00000000E+00  0.00000000E+00  0.00000000E+00  0.00000000E+00  0.00000000E+00
  0.00000000E+00  0.00000000E+00  0.00000000E+00  1.24832002E-13  0.00000000E+00
  0.00000000E+00  0.00000000E+00  1.59300744E-13  0.00000000E+00  0.00000000E+00
 -3.21527011E-14  0.00000000E+00  0.00000000E+00  0.00000000E+00 -4.01387028E-14
  0.00000000E+00  0.00000000E+00  0.00000000E+00  0.00000000E+00  0.00000000E+00
  0.00000000E+00  9.96351145E-01  0.00000000E+00  0.00000000E+00  2.22868091E-02
  0.00000000E+00  0.00000000E+00 -1.20509370E-02  0.00000000E+00  0.00000000E+00
  8.06895377E-03  0.00000000E+00  0.00000000E+00 -3.33665473E-03  0.00000000E+00
  0.00000000E+00  0.00000000E+00  0.00000000E+00  0.00000000E+00  0.00000000E+00
  0.00000000E+00  0.00000000E+00  0.00000000E+00  0.00000000E+00  0.00000000E+00
  0.00000000E+00  0.00000000E+00  0.00000000E+00  0.00000000E+00  0.00000000E+00
  0.00000000E+00  0.00000000E+00  1.23377204E-13  0.00000000E+00  0.00000000E+00
  0.00000000E+00 -1.60167322E-13  0.00000000E+00  0.00000000E+00 -3.09731230E-14
  0.00000000E+00  0.00000000E+00  0.00000000E+00  4.08155721E-14  0.00000000E+00
  4.27881029E-02 -1.83962935E-01  7.42695724E-01 -1.41093237E-01  3.32652215E-01
  2.57637013E-02  0.00000000E+00  0.00000000E+00  0.00000000E+00  0.00000000E+00
  0.00000000E+00  0.00000000E+00  0.00000000E+00  0.00000000E+00  0.00000000E+00
  0.00000000E+00  0.00000000E+00  0.00000000E+00  0.00000000E+00  0.00000000E+00
  0.00000000E+00  9.80738186E-16  0.00000000E+00  0.00000000E+00 -8.19862193E-16
  0.00000000E+00 -1.93126795E-15  0.00000000E+00  0.00000000E+00  5.31613291E-16
  0.00000000E+00  7.99960558E-16  0.00000000E+00  0.00000000E+00  6.19618207E-16
  0.00000000E+00  0.00000000E+00  0.00000000E+00  0.00000000E+00  0.00000000E+00
  0.00000000E+00  0.00000000E+00  0.00000000E+00  0.00000000E+00  0.00000000E+00
  0.00000000E+00  0.00000000E+00  0.00000000E+00  0.00000000E+00  0.00000000E+00
  0.00000000E+00  0.00000000E+00  0.00000000E+00  0.00000000E+00  0.00000000E+00
  0.00000000E+00  0.00000000E+00  0.00000000E+00 -1.01160555E-01  0.00000000E+00
  0.00000000E+00  1.95594416E-01  0.00000000E+00  0.00000000E+00  4.42906833E-01
  0.00000000E+00  0.00000000E+00  3.41376975E-01  0.00000000E+00  0.00000000E+00
  1.88297394E-01  0.00000000E+00  0.00000000E+00  0.00000000E+00  0.00000000E+00
  0.00000000E+00  0.00000000E+00  0.00000000E+00  0.00000000E+00  0.00000000E+00
  0.00000000E+00  0.00000000E+00  0.00000000E+00  0.00000000E+00  0.00000000E+00
  0.00000000E+00  1.47784452E-13  0.00000000E+00  0.00000000E+00 -2.05567886E-16
  0.00000000E+00  0.00000000E+00  0.00000000E+00 -2.38177716E-11  0.00000000E+00
  0.00000000E+00  1.37483616E-15  0.00000000E+00  0.00000000E+00  0.00000000E+00
  0.00000000E+00  0.00000000E+00  0.00000000E+00  0.00000000E+00  0.00000000E+00
  0.00000000E+00 -1.01160555E-01  0.00000000E+00  0.00000000E+00  1.95594416E-01
  0.00000000E+00  0.00000000E+00  4.42906833E-01  0.00000000E+00  0.00000000E+00
  3.41376975E-01  0.00000000E+00  0.00000000E+00  1.88297394E-01  0.00000000E+00
  0.00000000E+00  0.00000000E+00  0.00000000E+00  0.00000000E+00  0.00000000E+00
  0.00000000E+00  0.00000000E+00  0.00000000E+00  0.00000000E+00  0.00000000E+00
  0.00000000E+00  0.00000000E+00  0.00000000E+00  0.00000000E+00  0.00000000E+00
  0.00000000E+00  0.00000000E+00 -9.17448945E-14  0.00000000E+00  0.00000000E+00
  0.00000000E+00  1.17027630E-13  0.00000000E+00  0.00000000E+00  1.45861705E-11
  0.00000000E+00  0.00000000E+00  0.00000000E+00 -1.88311011E-11  0.00000000E+00
  0.00000000E+00  0.00000000E+00  0.00000000E+00  0.00000000E+00  0.00000000E+00
  0.00000000E+00  0.00000000E+00 -1.01160555E-01  0.00000000E+00  0.00000000E+00
  1.95594416E-01  0.00000000E+00  0.00000000E+00  4.42906833E-01  0.00000000E+00
  0.00000000E+00  3.41376975E-01  0.00000000E+00  0.00000000E+00  1.88297394E-01
  0.00000000E+00  0.00000000E+00  0.00000000E+00  0.00000000E+00  0.00000000E+00
  0.00000000E+00  0.00000000E+00  0.00000000E+00  0.00000000E+00  0.00000000E+00
  0.00000000E+00  0.00000000E+00  0.00000000E+00  0.00000000E+00  0.00000000E+00
  0.00000000E+00  0.00000000E+00  0.00000000E+00 -9.17844663E-14  0.00000000E+00
  0.00000000E+00  0.00000000E+00 -1.16431873E-13  0.00000000E+00  0.00000000E+00
  1.45874046E-11  0.00000000E+00  0.00000000E+00  0.00000000E+00  1.88294145E-11
 -1.39718185E-02  6.32582509E-02 -2.43034083E-01  4.48735023E-02 -7.60073464E-01
  1.47461908E+00  0.00000000E+00  0.00000000E+00  0.00000000E+00  0.00000000E+00
  0.00000000E+00  0.00000000E+00  0.00000000E+00  0.00000000E+00  0.00000000E+00
  0.00000000E+00  0.00000000E+00  0.00000000E+00  0.00000000E+00  0.00000000E+00
  0.00000000E+00 -4.50677699E-15  0.00000000E+00  0.00000000E+00 -4.22820415E-16
  0.00000000E+00  8.32255416E-15  0.00000000E+00  0.00000000E+00 -5.20098142E-15
  0.00000000E+00 -1.35544484E-14  0.00000000E+00  0.00000000E+00  1.32903404E-14
  0.00000000E+00  0.00000000E+00  0.00000000E+00  0.00000000E+00  0.00000000E+00
  0.00000000E+00  0.00000000E+00  0.00000000E+00  0.00000000E+00  0.00000000E+00
  0.00000000E+00  0.00000000E+00  0.00000000E+00  0.00000000E+00  0.00000000E+00
  0.00000000E+00  0.00000000E+00  0.00000000E+00  0.00000000E+00  0.00000000E+00
  0.00000000E+00  0.00000000E+00  0.00000000E+00  5.67392901E-02  0.00000000E+00
  0.00000000E+00 -1.71589513E-01  0.00000000E+00  0.00000000E+00 -2.81176035E-02
  0.00000000E+00  0.00000000E+00 -1.25667920E+00  0.00000000E+00  0.00000000E+00
  1.78288543E+00  0.00000000E+00  0.00000000E+00  0.00000000E+00  0.00000000E+00
  0.00000000E+00  0.00000000E+00  0.00000000E+00  0.00000000E+00  0.00000000E+00
  0.00000000E+00  0.00000000E+00  0.00000000E+00  0.00000000E+00  0.00000000E+00
  0.00000000E+00  1.13495708E-12  0.00000000E+00  0.00000000E+00 -2.46463247E-16
  0.00000000E+00  0.00000000E+00  0.00000000E+00  1.00633244E-11  0.00000000E+00
  0.00000000E+00  1.54485734E-16  0.00000000E+00  0.00000000E+00  0.00000000E+00
  0.00000000E+00  0.00000000E+00  0.00000000E+00  0.00000000E+00  0.00000000E+00
  0.00000000E+00  5.67392901E-02  0.00000000E+00  0.00000000E+00 -1.71589513E-01
  0.00000000E+00  0.00000000E+00 -2.81176035E-02  0.00000000E+00  0.00000000E+00
 -1.25667920E+00  0.00000000E+00  0.00000000E+00  1.78288543E+00  0.00000000E+00
  0.00000000E+00  0.00000000E+00  0.00000000E+00  0.00000000E+00  0.00000000E+00
  0.00000000E+00  0.00000000E+00  0.00000000E+00  0.00000000E+00  0.00000000E+00
  0.00000000E+00  0.00000000E+00  0.00000000E+00  0.00000000E+00  0.00000000E+00
  0.00000000E+00  0.00000000E+00 -6.92083784E-13  0.00000000E+00  0.00000000E+00
  0.00000000E+00  8.96127603E-13  0.00000000E+00  0.00000000E+00 -6.16721483E-12
  0.00000000E+00  0.00000000E+00  0.00000000E+00  7.95871076E-12  0.00000000E+00
  0.00000000E+00  0.00000000E+00  0.00000000E+00  0.00000000E+00  0.00000000E+00
  0.00000000E+00  0.00000000E+00  5.67392901E-02  0.00000000E+00  0.00000000E+00
 -1.71589513E-01  0.00000000E+00  0.00000000E+00 -2.81176035E-02  0.00000000E+00
  0.00000000E+00 -1.25667920E+00  0.00000000E+00  0.00000000E+00  1.78288543E+00
  0.00000000E+00  0.00000000E+00  0.00000000E+00  0.00000000E+00  0.00000000E+00
  0.00000000E+00  0.00000000E+00  0.00000000E+00  0.00000000E+00  0.00000000E+00
  0.00000000E+00  0.00000000E+00  0.00000000E+00  0.00000000E+00  0.00000000E+00
  0.00000000E+00  0.00000000E+00  0.00000000E+00 -6.91871881E-13  0.00000000E+00
  0.00000000E+00  0.00000000E+00 -8.95594313E-13  0.00000000E+00  0.00000000E+00
 -6.16884052E-12  0.00000000E+00  0.00000000E+00  0.00000000E+00 -7.95976232E-12
  0.00000000E+00  0.00000000E+00  0.00000000E+00  0.00000000E+00  0.00000000E+00
  0.00000000E+00  0.00000000E+00  0.00000000E+00  0.00000000E+00  0.00000000E+00
  0.00000000E+00  0.00000000E+00  0.00000000E+00  0.00000000E+00  0.00000000E+00
  0.00000000E+00  0.00000000E+00  0.00000000E+00  0.00000000E+00  0.00000000E+00
  0.00000000E+00  0.00000000E+00  0.00000000E+00  1.00968756E-01  0.00000000E+00
  0.00000000E+00  0.00000000E+00  0.00000000E+00 -1.20767191E-01  0.00000000E+00
  0.00000000E+00  0.00000000E+00  0.00000000E+00  1.04857592E+00  0.00000000E+00
  0.00000000E+00  0.00000000E+00  0.00000000E+00  0.00000000E+00  0.00000000E+00
  0.00000000E+00  0.00000000E+00  0.00000000E+00  0.00000000E+00  0.00000000E+00
  0.00000000E+00  0.00000000E+00  0.00000000E+00  0.00000000E+00  0.00000000E+00
  0.00000000E+00  0.00000000E+00  0.00000000E+00  0.00000000E+00  0.00000000E+00
  0.00000000E+00  0.00000000E+00  0.00000000E+00  0.00000000E+00  0.00000000E+00
  0.00000000E+00  0.00000000E+00  0.00000000E+00  0.00000000E+00  0.00000000E+00
  0.00000000E+00  0.00000000E+00  0.00000000E+00  0.00000000E+00  0.00000000E+00
  0.00000000E+00  0.00000000E+00  0.00000000E+00  0.00000000E+00  0.00000000E+00
  1.00968756E-01  0.00000000E+00  0.00000000E+00  0.00000000E+00  0.00000000E+00
 -1.20767191E-01  0.00000000E+00  0.00000000E+00  0.00000000E+00  0.00000000E+00
  1.04857592E+00  0.00000000E+00  0.00000000E+00  0.00000000E+00  0.00000000E+00
  0.00000000E+00  0.00000000E+00  0.00000000E+00  0.00000000E+00  0.00000000E+00
  0.00000000E+00  0.00000000E+00  0.00000000E+00  0.00000000E+00  0.00000000E+00
  0.00000000E+00  0.00000000E+00  0.00000000E+00  0.00000000E+00  0.00000000E+00
  0.00000000E+00  0.00000000E+00  0.00000000E+00  0.00000000E+00  0.00000000E+00
  0.00000000E+00  0.00000000E+00  0.00000000E+00  0.00000000E+00  0.00000000E+00
  0.00000000E+00  0.00000000E+00  0.00000000E+00  0.00000000E+00  0.00000000E+00
  0.00000000E+00  0.00000000E+00  1.00968756E-01  0.00000000E+00  0.00000000E+00
  0.00000000E+00  0.00000000E+00 -1.20767191E-01  0.00000000E+00  0.00000000E+00
  0.00000000E+00  0.00000000E+00  1.04857592E+00  0.00000000E+00  0.00000000E+00
  0.00000000E+00  0.00000000E+00  0.00000000E+00  0.00000000E+00  0.00000000E+00
  0.00000000E+00  0.00000000E+00  0.00000000E+00  0.00000000E+00  0.00000000E+00
  0.00000000E+00  0.00000000E+00  0.00000000E+00  0.00000000E+00  0.00000000E+00
  3.55052614E-16 -1.03753590E-15  1.78886283E-14 -1.27574843E-15 -2.21674827E-14
  5.83461814E-15  0.00000000E+00  0.00000000E+00  0.00000000E+00  0.00000000E+00
  0.00000000E+00  0.00000000E+00  0.00000000E+00  0.00000000E+00  0.00000000E+00
  0.00000000E+00  0.00000000E+00  0.00000000E+00  0.00000000E+00  0.00000000E+00
  0.00000000E+00  5.83373386E-02  0.00000000E+00  0.00000000E+00  8.24102212E-02
  0.00000000E+00 -6.97764023E-02  0.00000000E+00  0.00000000E+00 -9.85696106E-02
  0.00000000E+00  6.05842156E-01  0.00000000E+00  0.00000000E+00  8.55842713E-01
  0.00000000E+00  0.00000000E+00  0.00000000E+00  0.00000000E+00  0.00000000E+00
  0.00000000E+00  0.00000000E+00  0.00000000E+00  0.00000000E+00  0.00000000E+00
  0.00000000E+00  0.00000000E+00  0.00000000E+00  0.00000000E+00  0.00000000E+00
 -8.61955927E-16  2.14678466E-15 -4.22617724E-14  4.09801090E-15  4.30708553E-14
 -1.17892203E-15  0.00000000E+00  0.00000000E+00  0.00000000E+00  0.00000000E+00
  0.00000000E+00  0.00000000E+00  0.00000000E+00  0.00000000E+00  0.00000000E+00
  0.00000000E+00  0.00000000E+00  0.00000000E+00  0.00000000E+00  0.00000000E+00
  0.00000000E+00  8.24102212E-02  0.00000000E+00  0.00000000E+00 -5.83373386E-02
  0.00000000E+00 -9.85696106E-02  0.00000000E+00  0.00000000E+00  6.97764023E-02
  0.00000000E+00  8.55842713E-01  0.00000000E+00  0.00000000E+00 -6.05842156E-01
  0.00000000E+00  0.00000000E+00  0.00000000E+00  0.00000000E+00  0.00000000E+00
  0.00000000E+00  0.00000000E+00  0.00000000E+00  0.00000000E+00  0.00000000E+00
  0.00000000E+00  0.00000000E+00  0.00000000E+00  0.00000000E+00  0.00000000E+00
  0.00000000E+00  0.00000000E+00  0.00000000E+00  0.00000000E+00  0.00000000E+00
  0.00000000E+00  0.00000000E+00  0.00000000E+00  1.00560534E-01  0.00000000E+00
  0.00000000E+00 -7.04003312E-02  0.00000000E+00  0.00000000E+00 -1.73297315E+00
  0.00000000E+00  0.00000000E+00  3.15240769E+00  0.00000000E+00  0.00000000E+00
 -1.68035144E+00  0.00000000E+00  0.00000000E+00  0.00000000E+00  0.00000000E+00
  0.00000000E+00  0.00000000E+00  0.00000000E+00  0.00000000E+00  0.00000000E+00
  0.00000000E+00  0.00000000E+00  0.00000000E+00  0.00000000E+00  0.00000000E+00
  0.00000000E+00  6.03728203E-12  0.00000000E+00  0.00000000E+00 -1.02676502E-15
  0.00000000E+00  0.00000000E+00  0.00000000E+00  9.62813045E-12  0.00000000E+00
  0.00000000E+00  3.45022529E-15  0.00000000E+00  0.00000000E+00  0.00000000E+00
  0.00000000E+00  0.00000000E+00  0.00000000E+00  0.00000000E+00  0.00000000E+00
  0.00000000E+00  0.00000000E+00  1.00560534E-01  0.00000000E+00  0.00000000E+00
 -7.04003312E-02  0.00000000E+00  0.00000000E+00 -1.73297315E+00  0.00000000E+00
  0.00000000E+00  3.15240769E+00  0.00000000E+00  0.00000000E+00 -1.68035144E+00
  0.00000000E+00  0.00000000E+00  0.00000000E+00  0.00000000E+00  0.00000000E+00
  0.00000000E+00  0.00000000E+00  0.00000000E+00  0.00000000E+00  0.00000000E+00
  0.00000000E+00  0.00000000E+00  0.00000000E+00  0.00000000E+00  0.00000000E+00
  0.00000000E+00  0.00000000E+00  0.00000000E+00 -3.69819895E-12  0.00000000E+00
  0.00000000E+00  0.00000000E+00 -4.77246837E-12  0.00000000E+00  0.00000000E+00
 -5.88692097E-12  0.00000000E+00  0.00000000E+00  0.00000000E+00 -7.61265049E-12
  0.00000000E+00  0.00000000E+00  0.00000000E+00  0.00000000E+00  0.00000000E+00
  0.00000000E+00  1.00560534E-01  0.00000000E+00  0.00000000E+00 -7.04003312E-02
  0.00000000E+00  0.00000000E+00 -1.73297315E+00  0.00000000E+00  0.00000000E+00
  3.15240769E+00  0.00000000E+00  0.00000000E+00 -1.68035144E+00  0.00000000E+00
  0.00000000E+00  0.00000000E+00  0.00000000E+00  0.00000000E+00  0.00000000E+00
  0.00000000E+00  0.00000000E+00  0.00000000E+00  0.00000000E+00  0.00000000E+00
  0.00000000E+00  0.00000000E+00  0.00000000E+00  0.00000000E+00  0.00000000E+00
  0.00000000E+00  0.00000000E+00 -3.69987003E-12  0.00000000E+00  0.00000000E+00
  0.00000000E+00  4.77312216E-12  0.00000000E+00  0.00000000E+00 -5.88789877E-12
  0.00000000E+00  0.00000000E+00  0.00000000E+00  7.61204553E-12  0.00000000E+00