 Entering Gaussian System, Link 0=g16
 Input=Na.com
 Output=Na.log
 Initial command:
 /usr/site/hpc/x86_64/glibc-2.17/broadwell/gaussian/g16_a.03/pgi-16.5/g16/l1.exe "/home/c744/c7441090/data/Gau-3859556.inp" -scrdir="/home/c744/c7441090/data/"
 Entering Link 1 = /usr/site/hpc/x86_64/glibc-2.17/broadwell/gaussian/g16_a.03/pgi-16.5/g16/l1.exe PID=   3859557.
  
 Copyright (c) 1988,1990,1992,1993,1995,1998,2003,2009,2016,
            Gaussian, Inc.  All Rights Reserved.
  
 This is part of the Gaussian(R) 16 program.  It is based on
 the Gaussian(R) 09 system (copyright 2009, Gaussian, Inc.),
 the Gaussian(R) 03 system (copyright 2003, Gaussian, Inc.),
 the Gaussian(R) 98 system (copyright 1998, Gaussian, Inc.),
 the Gaussian(R) 94 system (copyright 1995, Gaussian, Inc.),
 the Gaussian 92(TM) system (copyright 1992, Gaussian, Inc.),
 the Gaussian 90(TM) system (copyright 1990, Gaussian, Inc.),
 the Gaussian 88(TM) system (copyright 1988, Gaussian, Inc.),
 the Gaussian 86(TM) system (copyright 1986, Carnegie Mellon
 University), and the Gaussian 82(TM) system (copyright 1983,
 Carnegie Mellon University). Gaussian is a federally registered
 trademark of Gaussian, Inc.
  
 This software contains proprietary and confidential information,
 including trade secrets, belonging to Gaussian, Inc.
  
 This software is provided under written license and may be
 used, copied, transmitted, or stored only in accord with that
 written license.
  
 The following legend is applicable only to US Government
 contracts under FAR:
  
                    RESTRICTED RIGHTS LEGEND
  
 Use, reproduction and disclosure by the US Government is
 subject to restrictions as set forth in subparagraphs (a)
 and (c) of the Commercial Computer Software - Restricted
 Rights clause in FAR 52.227-19.
  
 Gaussian, Inc.
 340 Quinnipiac St., Bldg. 40, Wallingford CT 06492
  
  
 ---------------------------------------------------------------
 Warning -- This program may not be used in any manner that
 competes with the business of Gaussian, Inc. or will provide
 assistance to any competitor of Gaussian, Inc.  The licensee
 of this program is prohibited from giving any competitor of
 Gaussian, Inc. access to this program.  By using this program,
 the user acknowledges that Gaussian, Inc. is engaged in the
 business of creating and licensing software in the field of
 computational chemistry and represents and warrants to the
 licensee that it is not a competitor of Gaussian, Inc. and that
 it will not use this program in any manner prohibited above.
 ---------------------------------------------------------------
  

 Cite this work as:
 Gaussian 16, Revision A.03,
 M. J. Frisch, G. W. Trucks, H. B. Schlegel, G. E. Scuseria, 
 M. A. Robb, J. R. Cheeseman, G. Scalmani, V. Barone, 
 G. A. Petersson, H. Nakatsuji, X. Li, M. Caricato, A. V. Marenich, 
 J. Bloino, B. G. Janesko, R. Gomperts, B. Mennucci, H. P. Hratchian, 
 J. V. Ortiz, A. F. Izmaylov, J. L. Sonnenberg, D. Williams-Young, 
 F. Ding, F. Lipparini, F. Egidi, J. Goings, B. Peng, A. Petrone, 
 T. Henderson, D. Ranasinghe, V. G. Zakrzewski, J. Gao, N. Rega, 
 G. Zheng, W. Liang, M. Hada, M. Ehara, K. Toyota, R. Fukuda, 
 J. Hasegawa, M. Ishida, T. Nakajima, Y. Honda, O. Kitao, H. Nakai, 
 T. Vreven, K. Throssell, J. A. Montgomery, Jr., J. E. Peralta, 
 F. Ogliaro, M. J. Bearpark, J. J. Heyd, E. N. Brothers, K. N. Kudin, 
 V. N. Staroverov, T. A. Keith, R. Kobayashi, J. Normand, 
 K. Raghavachari, A. P. Rendell, J. C. Burant, S. S. Iyengar, 
 J. Tomasi, M. Cossi, J. M. Millam, M. Klene, C. Adamo, R. Cammi, 
 J. W. Ochterski, R. L. Martin, K. Morokuma, O. Farkas, 
 J. B. Foresman, and D. J. Fox, Gaussian, Inc., Wallingford CT, 2016.
 
 ******************************************
 Gaussian 16:  ES64L-G16RevA.03 25-Dec-2016
                20-Nov-2023 
 ******************************************
 %NProcShared=4
 Will use up to    4 processors via shared memory.
 %Mem=1GB
 %Chk=Na.chk
 ----------------------------------------------------
 # B3LYP/aug-cc-pVTZ EmpiricalDispersion=GD3 Pop=Full
 ----------------------------------------------------
 1/38=1,172=1/1;
 2/12=2,17=6,18=5,40=1/2;
 3/5=16,6=1,7=10,11=2,25=1,30=1,74=-5,124=31/1,2,3;
 4//1;
 5/5=2,38=5/2;
 6/7=3,28=1/1;
 99/5=1,9=1/99;
 ------
 Sodium
 ------
 Symbolic Z-matrix:
 Charge =  0 Multiplicity = 2
 Na                    0.        0.        0. 
 
                          Input orientation:                          
 ---------------------------------------------------------------------
 Center     Atomic      Atomic             Coordinates (Angstroms)
 Number     Number       Type             X           Y           Z
 ---------------------------------------------------------------------
      1         11           0        0.000000    0.000000    0.000000
 ---------------------------------------------------------------------
 Stoichiometry    Na(2)
 Framework group  OH[O(Na)]
 Deg. of freedom     0
 Full point group                 OH      NOp  48
 Largest Abelian subgroup         D2H     NOp   8
 Largest concise Abelian subgroup C1      NOp   1
                         Standard orientation:                         
 ---------------------------------------------------------------------
 Center     Atomic      Atomic             Coordinates (Angstroms)
 Number     Number       Type             X           Y           Z
 ---------------------------------------------------------------------
      1         11           0        0.000000    0.000000    0.000000
 ---------------------------------------------------------------------
 Standard basis: Aug-CC-pVTZ (5D, 7F)
 There are    15 symmetry adapted cartesian basis functions of AG  symmetry.
 There are     3 symmetry adapted cartesian basis functions of B1G symmetry.
 There are     3 symmetry adapted cartesian basis functions of B2G symmetry.
 There are     3 symmetry adapted cartesian basis functions of B3G symmetry.
 There are     2 symmetry adapted cartesian basis functions of AU  symmetry.
 There are    11 symmetry adapted cartesian basis functions of B1U symmetry.
 There are    11 symmetry adapted cartesian basis functions of B2U symmetry.
 There are    11 symmetry adapted cartesian basis functions of B3U symmetry.
 There are    12 symmetry adapted basis functions of AG  symmetry.
 There are     3 symmetry adapted basis functions of B1G symmetry.
 There are     3 symmetry adapted basis functions of B2G symmetry.
 There are     3 symmetry adapted basis functions of B3G symmetry.
 There are     2 symmetry adapted basis functions of AU  symmetry.
 There are     9 symmetry adapted basis functions of B1U symmetry.
 There are     9 symmetry adapted basis functions of B2U symmetry.
 There are     9 symmetry adapted basis functions of B3U symmetry.
    50 basis functions,   123 primitive gaussians,    59 cartesian basis functions
     6 alpha electrons        5 beta electrons
       nuclear repulsion energy         0.0000000000 Hartrees.
 NAtoms=    1 NActive=    1 NUniq=    1 SFac= 1.00D+00 NAtFMM=   60 NAOKFM=F Big=F
 Integral buffers will be    131072 words long.
 Raffenetti 2 integral format.
 Two-electron integral symmetry is turned on.
 Nuclear repulsion after empirical dispersion term =        0.0000000000 Hartrees.
 One-electron integrals computed using PRISM.
 NBasis=    50 RedAO= T EigKep=  3.09D-02  NBF=    12     3     3     3     2     9     9     9
 NBsUse=    50 1.00D-06 EigRej= -1.00D+00 NBFU=    12     3     3     3     2     9     9     9
 ExpMin= 7.42D-03 ExpMax= 4.23D+05 ExpMxC= 1.33D+03 IAcc=3 IRadAn=         5 AccDes= 0.00D+00
 Harris functional with IExCor=  402 and IRadAn=       5 diagonalized for initial guess.
 HarFok:  IExCor=  402 AccDes= 0.00D+00 IRadAn=         5 IDoV= 1 UseB2=F ITyADJ=14
 ICtDFT=  3500011 ScaDFX=  1.000000  1.000000  1.000000  1.000000
 FoFCou: FMM=F IPFlag=           0 FMFlag=      100000 FMFlg1=           0
         NFxFlg=           0 DoJE=T BraDBF=F KetDBF=T FulRan=T
         wScrn=  0.000000 ICntrl=       500 IOpCl=  0 I1Cent=   200000004 NGrid=           0
         NMat0=    1 NMatS0=      1 NMatT0=    0 NMatD0=    1 NMtDS0=    0 NMtDT0=    0
 Petite list used in FoFCou.
 Initial guess orbital symmetries:
 Alpha Orbitals:
       Occupied  (A1G) (A1G) (T1U) (T1U) (T1U) (A1G)
       Virtual   (T1U) (T1U) (T1U) (A1G) (T1U) (T1U) (T1U) (T2G)
                 (T2G) (T2G) (EG) (EG) (T1U) (T1U) (T1U) (A1G)
                 (T2G) (T2G) (T2G) (EG) (EG) (T2U) (T2U) (T2U)
                 (A2U) (T1U) (T1U) (T1U) (T1U) (T1U) (T1U) (T2G)
                 (T2G) (T2G) (EG) (EG) (T2U) (T2U) (T2U) (A2U)
                 (T1U) (T1U) (T1U) (A1G)
 Beta  Orbitals:
       Occupied  (A1G) (A1G) (T1U) (T1U) (T1U)
       Virtual   (A1G) (T1U) (T1U) (T1U) (A1G) (T1U) (T1U) (T1U)
                 (T2G) (T2G) (T2G) (EG) (EG) (T1U) (T1U) (T1U)
                 (A1G) (T2G) (T2G) (T2G) (EG) (EG) (T2U) (T2U)
                 (T2U) (A2U) (T1U) (T1U) (T1U) (T1U) (T1U) (T1U)
                 (T2G) (T2G) (T2G) (EG) (EG) (T2U) (T2U) (T2U)
                 (A2U) (T1U) (T1U) (T1U) (A1G)
 The electronic state of the initial guess is 2-A1G.
 Initial guess <Sx>= 0.0000 <Sy>= 0.0000 <Sz>= 0.5000 <S**2>= 0.7500 S= 0.5000
 Keep R1 and R2 ints in memory in symmetry-blocked form, NReq=4341620.
 Requested convergence on RMS density matrix=1.00D-08 within 128 cycles.
 Requested convergence on MAX density matrix=1.00D-06.
 Requested convergence on             energy=1.00D-06.
 No special actions if energy rises.
 SCF Done:  E(UB3LYP) =  -162.297023888     A.U. after    7 cycles
            NFock=  7  Conv=0.92D-09     -V/T= 2.0051
 <Sx>= 0.0000 <Sy>= 0.0000 <Sz>= 0.5000 <S**2>= 0.7500 S= 0.5000
 <L.S>= 0.000000000000E+00
 Annihilation of the first spin contaminant:
 S**2 before annihilation     0.7500,   after     0.7500

 **********************************************************************

            Population analysis using the SCF density.

 **********************************************************************

 Orbital symmetries:
 Alpha Orbitals:
       Occupied  (A1G) (A1G) (T1U) (T1U) (T1U) (A1G)
       Virtual   (T1U) (T1U) (T1U) (A1G) (T1U) (T1U) (T1U) (T2G)
                 (T2G) (T2G) (EG) (EG) (T1U) (T1U) (T1U) (A1G)
                 (T2G) (T2G) (T2G) (EG) (EG) (T2U) (T2U) (T2U)
                 (A2U) (T1U) (T1U) (T1U) (T1U) (T1U) (T1U) (T2G)
                 (T2G) (T2G) (EG) (EG) (T2U) (T2U) (T2U) (A2U)
                 (T1U) (T1U) (T1U) (A1G)
 Beta  Orbitals:
       Occupied  (A1G) (A1G) (T1U) (T1U) (T1U)
       Virtual   (A1G) (T1U) (T1U) (T1U) (A1G) (T1U) (T1U) (T1U)
                 (T2G) (T2G) (T2G) (EG) (EG) (T1U) (T1U) (T1U)
                 (A1G) (T2G) (T2G) (T2G) (EG) (EG) (T2U) (T2U)
                 (T2U) (A2U) (T1U) (T1U) (T1U) (T1U) (T1U) (T1U)
                 (T2G) (T2G) (T2G) (EG) (EG) (T2U) (T2U) (T2U)
                 (A2U) (T1U) (T1U) (T1U) (A1G)
 The electronic state is 2-A1G.
 Alpha  occ. eigenvalues --  -38.49984  -2.22946  -1.16083  -1.16083  -1.16083
 Alpha  occ. eigenvalues --   -0.12814
 Alpha virt. eigenvalues --   -0.02100  -0.02100  -0.02100   0.00095   0.01218
 Alpha virt. eigenvalues --    0.01218   0.01218   0.03752   0.03752   0.03752
 Alpha virt. eigenvalues --    0.03752   0.03752   0.06549   0.06549   0.06549
 Alpha virt. eigenvalues --    0.08101   0.15731   0.15731   0.15731   0.15731
 Alpha virt. eigenvalues --    0.15731   0.20683   0.20683   0.20683   0.20683
 Alpha virt. eigenvalues --    0.20683   0.20683   0.20683   0.24208   0.24208
 Alpha virt. eigenvalues --    0.24208   0.45826   0.45826   0.45826   0.45826
 Alpha virt. eigenvalues --    0.45826   0.62597   0.62597   0.62597   0.62597
 Alpha virt. eigenvalues --    0.62597   0.62597   0.62597   1.45903
  Beta  occ. eigenvalues --  -38.49804  -2.22601  -1.15856  -1.15856  -1.15856
  Beta virt. eigenvalues --   -0.06301  -0.00031  -0.00031  -0.00031   0.00864
  Beta virt. eigenvalues --    0.02130   0.02130   0.02130   0.05103   0.05103
  Beta virt. eigenvalues --    0.05103   0.05103   0.05103   0.07992   0.07992
  Beta virt. eigenvalues --    0.07992   0.09694   0.18346   0.18346   0.18346
  Beta virt. eigenvalues --    0.18346   0.18346   0.23362   0.23362   0.23362
  Beta virt. eigenvalues --    0.23362   0.23362   0.23362   0.23362   0.26001
  Beta virt. eigenvalues --    0.26001   0.26001   0.47826   0.47826   0.47826
  Beta virt. eigenvalues --    0.47826   0.47826   0.65056   0.65056   0.65056
  Beta virt. eigenvalues --    0.65056   0.65056   0.65056   0.65056   1.47025
     Alpha Molecular Orbital Coefficients:
                           1         2         3         4         5
                       (A1G)--O  (A1G)--O  (T1U)--O  (T1U)--O  (T1U)--O
     Eigenvalues --   -38.49984  -2.22946  -1.16083  -1.16083  -1.16083
   1 1   Na 1S          0.99945  -0.24501   0.00000   0.00000   0.00000
   2        2S          0.00376   0.81008   0.00000   0.00000   0.00000
   3        3S          0.00118   0.01377   0.00000   0.00000   0.00000
   4        4S         -0.00256   0.25468   0.00000   0.00000   0.00000
   5        5S         -0.00090  -0.00855   0.00000   0.00000   0.00000
   6        6S          0.00027   0.00236   0.00000   0.00000   0.00000
   7        7PX         0.00000   0.00000   0.00000   0.00000   0.99635
   8        7PY         0.00000   0.00000   0.00000   0.99635   0.00000
   9        7PZ         0.00000   0.00000   0.99635   0.00000   0.00000
  10        8PX         0.00000   0.00000   0.00000   0.00000   0.02229
  11        8PY         0.00000   0.00000   0.00000   0.02229   0.00000
  12        8PZ         0.00000   0.00000   0.02229   0.00000   0.00000
  13        9PX         0.00000   0.00000   0.00000   0.00000  -0.01205
  14        9PY         0.00000   0.00000   0.00000  -0.01205   0.00000
  15        9PZ         0.00000   0.00000  -0.01205   0.00000   0.00000
  16       10PX         0.00000   0.00000   0.00000   0.00000   0.00807
  17       10PY         0.00000   0.00000   0.00000   0.00807   0.00000
  18       10PZ         0.00000   0.00000   0.00807   0.00000   0.00000
  19       11PX         0.00000   0.00000   0.00000   0.00000  -0.00334
  20       11PY         0.00000   0.00000   0.00000  -0.00334   0.00000
  21       11PZ         0.00000   0.00000  -0.00334   0.00000   0.00000
  22       12D 0       -0.00000  -0.00000   0.00000   0.00000   0.00000
  23       12D+1        0.00000   0.00000   0.00000   0.00000   0.00000
  24       12D-1        0.00000   0.00000   0.00000   0.00000   0.00000
  25       12D+2        0.00000   0.00000   0.00000   0.00000   0.00000
  26       12D-2        0.00000   0.00000   0.00000   0.00000   0.00000
  27       13D 0        0.00000   0.00000   0.00000   0.00000   0.00000
  28       13D+1        0.00000   0.00000   0.00000   0.00000   0.00000
  29       13D-1        0.00000   0.00000   0.00000   0.00000   0.00000
  30       13D+2       -0.00000  -0.00000   0.00000   0.00000   0.00000
  31       13D-2        0.00000   0.00000   0.00000   0.00000   0.00000
  32       14D 0       -0.00000  -0.00000   0.00000   0.00000   0.00000
  33       14D+1        0.00000   0.00000   0.00000   0.00000   0.00000
  34       14D-1        0.00000   0.00000   0.00000   0.00000   0.00000
  35       14D+2        0.00000  -0.00000   0.00000   0.00000   0.00000
  36       14D-2        0.00000   0.00000   0.00000   0.00000   0.00000
  37       15F 0        0.00000   0.00000  -0.00000   0.00000   0.00000
  38       15F+1        0.00000   0.00000   0.00000   0.00000   0.00000
  39       15F-1        0.00000   0.00000   0.00000   0.00000   0.00000
  40       15F+2        0.00000   0.00000  -0.00000   0.00000   0.00000
  41       15F-2        0.00000   0.00000   0.00000   0.00000   0.00000
  42       15F+3        0.00000   0.00000   0.00000   0.00000  -0.00000
  43       15F-3        0.00000   0.00000   0.00000   0.00000   0.00000
  44       16F 0        0.00000   0.00000   0.00000   0.00000   0.00000
  45       16F+1        0.00000   0.00000   0.00000   0.00000  -0.00000
  46       16F-1        0.00000   0.00000   0.00000  -0.00000   0.00000
  47       16F+2        0.00000   0.00000  -0.00000   0.00000   0.00000
  48       16F-2        0.00000   0.00000   0.00000   0.00000   0.00000
  49       16F+3        0.00000   0.00000   0.00000   0.00000   0.00000
  50       16F-3        0.00000   0.00000   0.00000  -0.00000   0.00000
                           6         7         8         9        10
                       (A1G)--O  (T1U)--V  (T1U)--V  (T1U)--V  (A1G)--V
     Eigenvalues --    -0.12814  -0.02100  -0.02100  -0.02100   0.00095
   1 1   Na 1S          0.04279   0.00000   0.00000   0.00000  -0.01397
   2        2S         -0.18396   0.00000   0.00000   0.00000   0.06326
   3        3S          0.74270   0.00000   0.00000   0.00000  -0.24303
   4        4S         -0.14109   0.00000   0.00000   0.00000   0.04487
   5        5S          0.33265   0.00000   0.00000   0.00000  -0.76007
   6        6S          0.02576   0.00000   0.00000   0.00000   1.47462
   7        7PX         0.00000   0.00000  -0.10116   0.00000   0.00000
   8        7PY         0.00000   0.00000   0.00000  -0.10116   0.00000
   9        7PZ         0.00000  -0.10116   0.00000   0.00000   0.00000
  10        8PX         0.00000   0.00000   0.19559   0.00000   0.00000
  11        8PY         0.00000   0.00000   0.00000   0.19559   0.00000
  12        8PZ         0.00000   0.19559   0.00000   0.00000   0.00000
  13        9PX         0.00000   0.00000   0.44291   0.00000   0.00000
  14        9PY         0.00000   0.00000   0.00000   0.44291   0.00000
  15        9PZ         0.00000   0.44291   0.00000   0.00000   0.00000
  16       10PX         0.00000   0.00000   0.34138   0.00000   0.00000
  17       10PY         0.00000   0.00000   0.00000   0.34138   0.00000
  18       10PZ         0.00000   0.34138   0.00000   0.00000   0.00000
  19       11PX         0.00000   0.00000   0.18830   0.00000   0.00000
  20       11PY         0.00000   0.00000   0.00000   0.18830   0.00000
  21       11PZ         0.00000   0.18830   0.00000   0.00000   0.00000
  22       12D 0        0.00000   0.00000   0.00000   0.00000  -0.00000
  23       12D+1        0.00000   0.00000   0.00000   0.00000   0.00000
  24       12D-1        0.00000   0.00000   0.00000   0.00000   0.00000
  25       12D+2       -0.00000   0.00000   0.00000   0.00000  -0.00000
  26       12D-2        0.00000   0.00000   0.00000   0.00000   0.00000
  27       13D 0       -0.00000   0.00000   0.00000   0.00000   0.00000
  28       13D+1        0.00000   0.00000   0.00000   0.00000   0.00000
  29       13D-1        0.00000   0.00000   0.00000   0.00000   0.00000
  30       13D+2        0.00000   0.00000   0.00000   0.00000  -0.00000
  31       13D-2        0.00000   0.00000   0.00000   0.00000   0.00000
  32       14D 0        0.00000   0.00000   0.00000   0.00000  -0.00000
  33       14D+1        0.00000   0.00000   0.00000   0.00000   0.00000
  34       14D-1        0.00000   0.00000   0.00000   0.00000   0.00000
  35       14D+2        0.00000   0.00000   0.00000   0.00000   0.00000
  36       14D-2        0.00000   0.00000   0.00000   0.00000   0.00000
  37       15F 0        0.00000   0.00000   0.00000   0.00000   0.00000
  38       15F+1        0.00000   0.00000  -0.00000   0.00000   0.00000
  39       15F-1        0.00000   0.00000   0.00000  -0.00000   0.00000
  40       15F+2        0.00000  -0.00000   0.00000   0.00000   0.00000
  41       15F-2        0.00000   0.00000   0.00000   0.00000   0.00000
  42       15F+3        0.00000   0.00000   0.00000   0.00000   0.00000
  43       15F-3        0.00000   0.00000   0.00000  -0.00000   0.00000
  44       16F 0        0.00000  -0.00000   0.00000   0.00000   0.00000
  45       16F+1        0.00000   0.00000   0.00000   0.00000   0.00000
  46       16F-1        0.00000   0.00000   0.00000   0.00000   0.00000
  47       16F+2        0.00000   0.00000   0.00000   0.00000   0.00000
  48       16F-2        0.00000   0.00000   0.00000   0.00000   0.00000
  49       16F+3        0.00000   0.00000  -0.00000   0.00000   0.00000
  50       16F-3        0.00000   0.00000   0.00000   0.00000   0.00000
                          11        12        13        14        15
                       (T1U)--V  (T1U)--V  (T1U)--V  (T2G)--V  (T2G)--V
     Eigenvalues --     0.01218   0.01218   0.01218   0.03752   0.03752
   1 1   Na 1S          0.00000   0.00000   0.00000   0.00000   0.00000
   2        2S          0.00000   0.00000   0.00000   0.00000   0.00000
   3        3S          0.00000   0.00000   0.00000   0.00000   0.00000
   4        4S          0.00000   0.00000   0.00000   0.00000   0.00000
   5        5S          0.00000   0.00000   0.00000   0.00000   0.00000
   6        6S          0.00000   0.00000   0.00000   0.00000   0.00000
   7        7PX         0.00000   0.05674   0.00000   0.00000   0.00000
   8        7PY         0.00000   0.00000   0.05674   0.00000   0.00000
   9        7PZ         0.05674   0.00000   0.00000   0.00000   0.00000
  10        8PX         0.00000  -0.17159   0.00000   0.00000   0.00000
  11        8PY         0.00000   0.00000  -0.17159   0.00000   0.00000
  12        8PZ        -0.17159   0.00000   0.00000   0.00000   0.00000
  13        9PX         0.00000  -0.02812   0.00000   0.00000   0.00000
  14        9PY         0.00000   0.00000  -0.02812   0.00000   0.00000
  15        9PZ        -0.02812   0.00000   0.00000   0.00000   0.00000
  16       10PX         0.00000  -1.25668   0.00000   0.00000   0.00000
  17       10PY         0.00000   0.00000  -1.25668   0.00000   0.00000
  18       10PZ        -1.25668   0.00000   0.00000   0.00000   0.00000
  19       11PX         0.00000   1.78289   0.00000   0.00000   0.00000
  20       11PY         0.00000   0.00000   1.78289   0.00000   0.00000
  21       11PZ         1.78289   0.00000   0.00000   0.00000   0.00000
  22       12D 0        0.00000   0.00000   0.00000   0.00000   0.00000
  23       12D+1        0.00000   0.00000   0.00000   0.00000   0.00000
  24       12D-1        0.00000   0.00000   0.00000   0.10097   0.00000
  25       12D+2        0.00000   0.00000   0.00000   0.00000   0.00000
  26       12D-2        0.00000   0.00000   0.00000   0.00000   0.10097
  27       13D 0        0.00000   0.00000   0.00000   0.00000   0.00000
  28       13D+1        0.00000   0.00000   0.00000   0.00000   0.00000
  29       13D-1        0.00000   0.00000   0.00000  -0.12077   0.00000
  30       13D+2        0.00000   0.00000   0.00000   0.00000   0.00000
  31       13D-2        0.00000   0.00000   0.00000   0.00000  -0.12077
  32       14D 0        0.00000   0.00000   0.00000   0.00000   0.00000
  33       14D+1        0.00000   0.00000   0.00000   0.00000   0.00000
  34       14D-1        0.00000   0.00000   0.00000   1.04858   0.00000
  35       14D+2        0.00000   0.00000   0.00000   0.00000   0.00000
  36       14D-2        0.00000   0.00000   0.00000   0.00000   1.04858
  37       15F 0        0.00000   0.00000   0.00000   0.00000   0.00000
  38       15F+1        0.00000  -0.00000   0.00000   0.00000   0.00000
  39       15F-1        0.00000   0.00000  -0.00000   0.00000   0.00000
  40       15F+2       -0.00000   0.00000   0.00000   0.00000   0.00000
  41       15F-2        0.00000   0.00000   0.00000   0.00000   0.00000
  42       15F+3        0.00000   0.00000   0.00000   0.00000   0.00000
  43       15F-3        0.00000   0.00000  -0.00000   0.00000   0.00000
  44       16F 0        0.00000   0.00000   0.00000   0.00000   0.00000
  45       16F+1        0.00000  -0.00000   0.00000   0.00000   0.00000
  46       16F-1        0.00000   0.00000  -0.00000   0.00000   0.00000
  47       16F+2        0.00000   0.00000   0.00000   0.00000   0.00000
  48       16F-2        0.00000   0.00000   0.00000   0.00000   0.00000
  49       16F+3        0.00000   0.00000   0.00000   0.00000   0.00000
  50       16F-3        0.00000   0.00000  -0.00000   0.00000   0.00000
                          16        17        18        19        20
                       (T2G)--V   (EG)--V   (EG)--V  (T1U)--V  (T1U)--V
     Eigenvalues --     0.03752   0.03752   0.03752   0.06549   0.06549
   1 1   Na 1S          0.00000   0.00000  -0.00000   0.00000   0.00000
   2        2S          0.00000  -0.00000   0.00000   0.00000   0.00000
   3        3S          0.00000   0.00000  -0.00000   0.00000   0.00000
   4        4S          0.00000  -0.00000   0.00000   0.00000   0.00000
   5        5S          0.00000  -0.00000   0.00000   0.00000   0.00000
   6        6S          0.00000   0.00000  -0.00000   0.00000   0.00000
   7        7PX         0.00000   0.00000   0.00000   0.00000   0.00000
   8        7PY         0.00000   0.00000   0.00000   0.00000   0.10056
   9        7PZ         0.00000   0.00000   0.00000   0.10056   0.00000
  10        8PX         0.00000   0.00000   0.00000   0.00000   0.00000
  11        8PY         0.00000   0.00000   0.00000   0.00000  -0.07040
  12        8PZ         0.00000   0.00000   0.00000  -0.07040   0.00000
  13        9PX         0.00000   0.00000   0.00000   0.00000   0.00000
  14        9PY         0.00000   0.00000   0.00000   0.00000  -1.73297
  15        9PZ         0.00000   0.00000   0.00000  -1.73297   0.00000
  16       10PX         0.00000   0.00000   0.00000   0.00000   0.00000
  17       10PY         0.00000   0.00000   0.00000   0.00000   3.15241
  18       10PZ         0.00000   0.00000   0.00000   3.15241   0.00000
  19       11PX         0.00000   0.00000   0.00000   0.00000   0.00000
  20       11PY         0.00000   0.00000   0.00000   0.00000  -1.68035
  21       11PZ         0.00000   0.00000   0.00000  -1.68035   0.00000
  22       12D 0        0.00000   0.05834   0.08241   0.00000   0.00000
  23       12D+1        0.10097   0.00000   0.00000   0.00000   0.00000
  24       12D-1        0.00000   0.00000   0.00000   0.00000   0.00000
  25       12D+2        0.00000   0.08241  -0.05834   0.00000   0.00000
  26       12D-2        0.00000   0.00000   0.00000   0.00000   0.00000
  27       13D 0        0.00000  -0.06978  -0.09857   0.00000   0.00000
  28       13D+1       -0.12077   0.00000   0.00000   0.00000   0.00000
  29       13D-1        0.00000   0.00000   0.00000   0.00000   0.00000
  30       13D+2        0.00000  -0.09857   0.06978   0.00000   0.00000
  31       13D-2        0.00000   0.00000   0.00000   0.00000   0.00000
  32       14D 0        0.00000   0.60584   0.85584   0.00000   0.00000
  33       14D+1        1.04858   0.00000   0.00000   0.00000   0.00000
  34       14D-1        0.00000   0.00000   0.00000   0.00000   0.00000
  35       14D+2        0.00000   0.85584  -0.60584   0.00000   0.00000
  36       14D-2        0.00000   0.00000   0.00000   0.00000   0.00000
  37       15F 0        0.00000   0.00000   0.00000   0.00000   0.00000
  38       15F+1        0.00000   0.00000   0.00000   0.00000   0.00000
  39       15F-1        0.00000   0.00000   0.00000   0.00000  -0.00000
  40       15F+2        0.00000   0.00000   0.00000  -0.00000   0.00000
  41       15F-2        0.00000   0.00000   0.00000   0.00000   0.00000
  42       15F+3        0.00000   0.00000   0.00000   0.00000   0.00000
  43       15F-3        0.00000   0.00000   0.00000   0.00000  -0.00000
  44       16F 0        0.00000   0.00000   0.00000   0.00000   0.00000
  45       16F+1        0.00000   0.00000   0.00000   0.00000   0.00000
  46       16F-1        0.00000   0.00000   0.00000   0.00000  -0.00000
  47       16F+2        0.00000   0.00000   0.00000   0.00000   0.00000
  48       16F-2        0.00000   0.00000   0.00000   0.00000   0.00000
  49       16F+3        0.00000   0.00000   0.00000   0.00000   0.00000
  50       16F-3        0.00000   0.00000   0.00000   0.00000  -0.00000
                          21        22        23        24        25
                       (T1U)--V  (A1G)--V  (T2G)--V  (T2G)--V  (T2G)--V
     Eigenvalues --     0.06549   0.08101   0.15731   0.15731   0.15731
   1 1   Na 1S          0.00000  -0.04578   0.00000   0.00000   0.00000
   2        2S          0.00000   0.12229   0.00000   0.00000   0.00000
   3        3S          0.00000  -2.43731   0.00000   0.00000   0.00000
   4        4S          0.00000   0.17974   0.00000   0.00000   0.00000
   5        5S          0.00000   3.29728   0.00000   0.00000   0.00000
   6        6S          0.00000  -1.29696   0.00000   0.00000   0.00000
   7        7PX         0.10056   0.00000   0.00000   0.00000   0.00000
   8        7PY         0.00000   0.00000   0.00000   0.00000   0.00000
   9        7PZ         0.00000   0.00000   0.00000   0.00000   0.00000
  10        8PX        -0.07040   0.00000   0.00000   0.00000   0.00000
  11        8PY         0.00000   0.00000   0.00000   0.00000   0.00000
  12        8PZ         0.00000   0.00000   0.00000   0.00000   0.00000
  13        9PX        -1.73297   0.00000   0.00000   0.00000   0.00000
  14        9PY         0.00000   0.00000   0.00000   0.00000   0.00000
  15        9PZ         0.00000   0.00000   0.00000   0.00000   0.00000
  16       10PX         3.15241   0.00000   0.00000   0.00000   0.00000
  17       10PY         0.00000   0.00000   0.00000   0.00000   0.00000
  18       10PZ         0.00000   0.00000   0.00000   0.00000   0.00000
  19       11PX        -1.68035   0.00000   0.00000   0.00000   0.00000
  20       11PY         0.00000   0.00000   0.00000   0.00000   0.00000
  21       11PZ         0.00000   0.00000   0.00000   0.00000   0.00000
  22       12D 0        0.00000   0.00000   0.00000   0.00000   0.00000
  23       12D+1        0.00000   0.00000   0.00000  -0.13778   0.00000
  24       12D-1        0.00000   0.00000   0.00000   0.00000  -0.13778
  25       12D+2        0.00000   0.00000   0.00000   0.00000   0.00000
  26       12D-2        0.00000   0.00000  -0.13778   0.00000   0.00000
  27       13D 0        0.00000  -0.00000   0.00000   0.00000   0.00000
  28       13D+1        0.00000   0.00000   0.00000   1.49223   0.00000
  29       13D-1        0.00000   0.00000   0.00000   0.00000   1.49223
  30       13D+2        0.00000   0.00000   0.00000   0.00000   0.00000
  31       13D-2        0.00000   0.00000   1.49223   0.00000   0.00000
  32       14D 0        0.00000  -0.00000   0.00000   0.00000   0.00000
  33       14D+1        0.00000   0.00000   0.00000  -0.94663   0.00000
  34       14D-1        0.00000   0.00000   0.00000   0.00000  -0.94663
  35       14D+2        0.00000   0.00000   0.00000   0.00000   0.00000
  36       14D-2        0.00000   0.00000  -0.94663   0.00000   0.00000
  37       15F 0        0.00000   0.00000   0.00000   0.00000   0.00000
  38       15F+1       -0.00000   0.00000   0.00000   0.00000   0.00000
  39       15F-1        0.00000   0.00000   0.00000   0.00000   0.00000
  40       15F+2        0.00000   0.00000   0.00000   0.00000   0.00000
  41       15F-2        0.00000   0.00000   0.00000   0.00000   0.00000
  42       15F+3        0.00000   0.00000   0.00000   0.00000   0.00000
  43       15F-3        0.00000   0.00000   0.00000   0.00000   0.00000
  44       16F 0        0.00000   0.00000   0.00000   0.00000   0.00000
  45       16F+1       -0.00000   0.00000   0.00000   0.00000   0.00000
  46       16F-1        0.00000   0.00000   0.00000   0.00000   0.00000
  47       16F+2        0.00000   0.00000   0.00000   0.00000   0.00000
  48       16F-2        0.00000   0.00000   0.00000   0.00000   0.00000
  49       16F+3        0.00000   0.00000   0.00000   0.00000   0.00000
  50       16F-3        0.00000   0.00000   0.00000   0.00000   0.00000
                          26        27        28        29        30
                        (EG)--V   (EG)--V  (T2U)--V  (T2U)--V  (T2U)--V
     Eigenvalues --     0.15731   0.15731   0.20683   0.20683   0.20683
   1 1   Na 1S          0.00000   0.00000   0.00000   0.00000   0.00000
   2        2S         -0.00000  -0.00000   0.00000   0.00000   0.00000
   3        3S          0.00000   0.00000   0.00000   0.00000   0.00000
   4        4S         -0.00000  -0.00000   0.00000   0.00000   0.00000
   5        5S         -0.00000  -0.00000   0.00000   0.00000   0.00000
   6        6S          0.00000   0.00000   0.00000   0.00000   0.00000
   7        7PX         0.00000   0.00000   0.00000   0.00000   0.00000
   8        7PY         0.00000   0.00000   0.00000   0.00000   0.00000
   9        7PZ         0.00000   0.00000   0.00000   0.00000  -0.00000
  10        8PX         0.00000   0.00000   0.00000  -0.00000   0.00000
  11        8PY         0.00000   0.00000  -0.00000   0.00000   0.00000
  12        8PZ         0.00000   0.00000   0.00000   0.00000   0.00000
  13        9PX         0.00000   0.00000   0.00000   0.00000   0.00000
  14        9PY         0.00000   0.00000   0.00000   0.00000   0.00000
  15        9PZ         0.00000   0.00000   0.00000   0.00000  -0.00000
  16       10PX         0.00000   0.00000   0.00000  -0.00000   0.00000
  17       10PY         0.00000   0.00000  -0.00000   0.00000   0.00000
  18       10PZ         0.00000   0.00000   0.00000   0.00000   0.00000
  19       11PX         0.00000   0.00000   0.00000   0.00000   0.00000
  20       11PY         0.00000   0.00000   0.00000   0.00000   0.00000
  21       11PZ         0.00000   0.00000   0.00000   0.00000   0.00000
  22       12D 0        0.07737  -0.11400   0.00000   0.00000   0.00000
  23       12D+1        0.00000   0.00000   0.00000   0.00000   0.00000
  24       12D-1        0.00000   0.00000   0.00000   0.00000   0.00000
  25       12D+2       -0.11400  -0.07737   0.00000   0.00000   0.00000
  26       12D-2        0.00000   0.00000   0.00000   0.00000   0.00000
  27       13D 0       -0.83794   1.23475   0.00000   0.00000   0.00000
  28       13D+1        0.00000   0.00000   0.00000   0.00000   0.00000
  29       13D-1        0.00000   0.00000   0.00000   0.00000   0.00000
  30       13D+2        1.23475   0.83794   0.00000   0.00000   0.00000
  31       13D-2        0.00000   0.00000   0.00000   0.00000   0.00000
  32       14D 0        0.53156  -0.78329   0.00000   0.00000   0.00000
  33       14D+1        0.00000   0.00000   0.00000   0.00000   0.00000
  34       14D-1        0.00000   0.00000   0.00000   0.00000   0.00000
  35       14D+2       -0.78329  -0.53156   0.00000   0.00000   0.00000
  36       14D-2        0.00000   0.00000   0.00000   0.00000   0.00000
  37       15F 0        0.00000   0.00000   0.00000   0.00000   0.00001
  38       15F+1        0.00000   0.00000   0.00000  -0.22779   0.00000
  39       15F-1        0.00000   0.00000  -0.22778   0.00000   0.00000
  40       15F+2        0.00000   0.00000   0.00000   0.00000  -0.28814
  41       15F-2        0.00000   0.00000   0.00000   0.00000   0.00000
  42       15F+3        0.00000   0.00000   0.00000  -0.17646   0.00000
  43       15F-3        0.00000   0.00000   0.17646   0.00000   0.00000
  44       16F 0        0.00000   0.00000   0.00000   0.00000  -0.00002
  45       16F+1        0.00000   0.00000   0.00000   0.95239   0.00000
  46       16F-1        0.00000   0.00000   0.95238   0.00000   0.00000
  47       16F+2        0.00000   0.00000   0.00000   0.00000   1.20473
  48       16F-2        0.00000   0.00000   0.00000   0.00000   0.00000
  49       16F+3        0.00000   0.00000   0.00000   0.73777   0.00000
  50       16F-3        0.00000   0.00000  -0.73779   0.00000   0.00000
                          31        32        33        34        35
                       (A2U)--V  (T1U)--V  (T1U)--V  (T1U)--V  (T1U)--V
     Eigenvalues --     0.20683   0.20683   0.20683   0.20683   0.24208
   1 1   Na 1S          0.00000   0.00000   0.00000   0.00000   0.00000
   2        2S          0.00000   0.00000   0.00000   0.00000   0.00000
   3        3S          0.00000   0.00000   0.00000   0.00000   0.00000
   4        4S          0.00000   0.00000   0.00000   0.00000   0.00000
   5        5S          0.00000   0.00000   0.00000   0.00000   0.00000
   6        6S          0.00000   0.00000   0.00000   0.00000   0.00000
   7        7PX         0.00000   0.00000  -0.00000   0.00000   0.00000
   8        7PY         0.00000   0.00000   0.00000   0.00000   0.00000
   9        7PZ         0.00000   0.00000   0.00000  -0.00000   0.19242
  10        8PX         0.00000   0.00000   0.00000   0.00000   0.00000
  11        8PY         0.00000  -0.00000   0.00000   0.00000   0.00000
  12        8PZ         0.00000   0.00000   0.00000   0.00000  -1.94730
  13        9PX         0.00000   0.00000  -0.00000   0.00000   0.00000
  14        9PY         0.00000   0.00000   0.00000   0.00000   0.00000
  15        9PZ         0.00000   0.00000   0.00000  -0.00000   2.86964
  16       10PX         0.00000   0.00000   0.00000   0.00000   0.00000
  17       10PY         0.00000  -0.00000   0.00000   0.00000   0.00000
  18       10PZ         0.00000   0.00000   0.00000   0.00000  -2.19091
  19       11PX         0.00000   0.00000  -0.00000   0.00000   0.00000
  20       11PY         0.00000   0.00000   0.00000   0.00000   0.00000
  21       11PZ         0.00000   0.00000   0.00000  -0.00000   0.88736
  22       12D 0        0.00000   0.00000   0.00000   0.00000   0.00000
  23       12D+1        0.00000   0.00000   0.00000   0.00000   0.00000
  24       12D-1        0.00000   0.00000   0.00000   0.00000   0.00000
  25       12D+2        0.00000   0.00000   0.00000   0.00000   0.00000
  26       12D-2        0.00000   0.00000   0.00000   0.00000   0.00000
  27       13D 0        0.00000   0.00000   0.00000   0.00000   0.00000
  28       13D+1        0.00000   0.00000   0.00000   0.00000   0.00000
  29       13D-1        0.00000   0.00000   0.00000   0.00000   0.00000
  30       13D+2        0.00000   0.00000   0.00000   0.00000   0.00000
  31       13D-2        0.00000   0.00000   0.00000   0.00000   0.00000
  32       14D 0        0.00000   0.00000   0.00000   0.00000   0.00000
  33       14D+1        0.00000   0.00000   0.00000   0.00000   0.00000
  34       14D-1        0.00000   0.00000   0.00000   0.00000   0.00000
  35       14D+2        0.00000   0.00000   0.00000   0.00000   0.00000
  36       14D-2        0.00000   0.00000   0.00000   0.00000   0.00000
  37       15F 0        0.00000   0.00000   0.00000  -0.28814  -0.00000
  38       15F+1        0.00000   0.00000   0.17646   0.00000   0.00000
  39       15F-1        0.00000  -0.17646   0.00000   0.00000   0.00000
  40       15F+2        0.00000   0.00000   0.00000  -0.00001  -0.00000
  41       15F-2       -0.28814   0.00000   0.00000   0.00000   0.00000
  42       15F+3        0.00000   0.00000  -0.22779   0.00000   0.00000
  43       15F-3        0.00000  -0.22778   0.00000   0.00000   0.00000
  44       16F 0        0.00000   0.00000   0.00000   1.20473   0.00000
  45       16F+1        0.00000   0.00000  -0.73777   0.00000   0.00000
  46       16F-1        0.00000   0.73779   0.00000   0.00000   0.00000
  47       16F+2        0.00000   0.00000   0.00000   0.00002   0.00000
  48       16F-2        1.20473   0.00000   0.00000   0.00000   0.00000
  49       16F+3        0.00000   0.00000   0.95239   0.00000   0.00000
  50       16F-3        0.00000   0.95238   0.00000   0.00000   0.00000
                          36        37        38        39        40
                       (T1U)--V  (T1U)--V  (T2G)--V  (T2G)--V  (T2G)--V
     Eigenvalues --     0.24208   0.24208   0.45826   0.45826   0.45826
   1 1   Na 1S          0.00000   0.00000   0.00000   0.00000   0.00000
   2        2S          0.00000   0.00000   0.00000   0.00000   0.00000
   3        3S          0.00000   0.00000   0.00000   0.00000   0.00000
   4        4S          0.00000   0.00000   0.00000   0.00000   0.00000
   5        5S          0.00000   0.00000   0.00000   0.00000   0.00000
   6        6S          0.00000   0.00000   0.00000   0.00000   0.00000
   7        7PX         0.00000   0.19242   0.00000   0.00000   0.00000
   8        7PY         0.19242   0.00000   0.00000   0.00000   0.00000
   9        7PZ         0.00000   0.00000   0.00000   0.00000   0.00000
  10        8PX         0.00000  -1.94730   0.00000   0.00000   0.00000
  11        8PY        -1.94730   0.00000   0.00000   0.00000   0.00000
  12        8PZ         0.00000   0.00000   0.00000   0.00000   0.00000
  13        9PX         0.00000   2.86964   0.00000   0.00000   0.00000
  14        9PY         2.86964   0.00000   0.00000   0.00000   0.00000
  15        9PZ         0.00000   0.00000   0.00000   0.00000   0.00000
  16       10PX         0.00000  -2.19091   0.00000   0.00000   0.00000
  17       10PY        -2.19091   0.00000   0.00000   0.00000   0.00000
  18       10PZ         0.00000   0.00000   0.00000   0.00000   0.00000
  19       11PX         0.00000   0.88736   0.00000   0.00000   0.00000
  20       11PY         0.88736   0.00000   0.00000   0.00000   0.00000
  21       11PZ         0.00000   0.00000   0.00000   0.00000   0.00000
  22       12D 0        0.00000   0.00000   0.00000   0.00000   0.00000
  23       12D+1        0.00000   0.00000   1.79355   0.00000   0.00000
  24       12D-1        0.00000   0.00000   0.00000   0.00000   1.79355
  25       12D+2        0.00000   0.00000   0.00000   0.00000   0.00000
  26       12D-2        0.00000   0.00000   0.00000   1.79355   0.00000
  27       13D 0        0.00000   0.00000   0.00000   0.00000   0.00000
  28       13D+1        0.00000   0.00000  -1.76986   0.00000   0.00000
  29       13D-1        0.00000   0.00000   0.00000   0.00000  -1.76986
  30       13D+2        0.00000   0.00000   0.00000   0.00000   0.00000
  31       13D-2        0.00000   0.00000   0.00000  -1.76986   0.00000
  32       14D 0        0.00000   0.00000   0.00000   0.00000   0.00000
  33       14D+1        0.00000   0.00000   0.58420   0.00000   0.00000
  34       14D-1        0.00000   0.00000   0.00000   0.00000   0.58420
  35       14D+2        0.00000   0.00000   0.00000   0.00000   0.00000
  36       14D-2        0.00000   0.00000   0.00000   0.58420   0.00000
  37       15F 0        0.00000   0.00000   0.00000   0.00000   0.00000
  38       15F+1        0.00000   0.00000   0.00000   0.00000   0.00000
  39       15F-1        0.00000   0.00000   0.00000   0.00000   0.00000
  40       15F+2        0.00000   0.00000   0.00000   0.00000   0.00000
  41       15F-2        0.00000   0.00000   0.00000   0.00000   0.00000
  42       15F+3        0.00000  -0.00000   0.00000   0.00000   0.00000
  43       15F-3        0.00000   0.00000   0.00000   0.00000   0.00000
  44       16F 0        0.00000   0.00000   0.00000   0.00000   0.00000
  45       16F+1        0.00000  -0.00000   0.00000   0.00000   0.00000
  46       16F-1       -0.00000   0.00000   0.00000   0.00000   0.00000
  47       16F+2        0.00000   0.00000   0.00000   0.00000   0.00000
  48       16F-2        0.00000   0.00000   0.00000   0.00000   0.00000
  49       16F+3        0.00000   0.00000   0.00000   0.00000   0.00000
  50       16F-3       -0.00000   0.00000   0.00000   0.00000   0.00000
                          41        42        43        44        45
                        (EG)--V   (EG)--V  (T2U)--V  (T2U)--V  (T2U)--V
     Eigenvalues --     0.45826   0.45826   0.62597   0.62597   0.62597
   1 1   Na 1S          0.00000   0.00000   0.00000   0.00000   0.00000
   2        2S         -0.00000  -0.00000   0.00000   0.00000   0.00000
   3        3S          0.00000   0.00000   0.00000   0.00000   0.00000
   4        4S         -0.00000   0.00000   0.00000   0.00000   0.00000
   5        5S         -0.00000  -0.00000   0.00000   0.00000   0.00000
   6        6S          0.00000   0.00000   0.00000   0.00000   0.00000
   7        7PX         0.00000   0.00000   0.00000   0.00000   0.00000
   8        7PY         0.00000   0.00000   0.00000   0.00000   0.00000
   9        7PZ         0.00000   0.00000   0.00000   0.00000   0.00000
  10        8PX         0.00000   0.00000   0.00000   0.00000   0.00000
  11        8PY         0.00000   0.00000   0.00000  -0.00000   0.00000
  12        8PZ         0.00000   0.00000   0.00000   0.00000   0.00000
  13        9PX         0.00000   0.00000   0.00000   0.00000  -0.00000
  14        9PY         0.00000   0.00000   0.00000   0.00000   0.00000
  15        9PZ         0.00000   0.00000   0.00000   0.00000   0.00000
  16       10PX         0.00000   0.00000   0.00000   0.00000   0.00000
  17       10PY         0.00000   0.00000   0.00000  -0.00000   0.00000
  18       10PZ         0.00000   0.00000  -0.00000   0.00000   0.00000
  19       11PX         0.00000   0.00000   0.00000   0.00000  -0.00000
  20       11PY         0.00000   0.00000   0.00000   0.00000   0.00000
  21       11PZ         0.00000   0.00000   0.00000   0.00000   0.00000
  22       12D 0       -0.25950   1.77468   0.00000   0.00000   0.00000
  23       12D+1        0.00000   0.00000   0.00000   0.00000   0.00000
  24       12D-1        0.00000   0.00000   0.00000   0.00000   0.00000
  25       12D+2        1.77468   0.25950   0.00000   0.00000   0.00000
  26       12D-2        0.00000   0.00000   0.00000   0.00000   0.00000
  27       13D 0        0.25608  -1.75123   0.00000   0.00000   0.00000
  28       13D+1        0.00000   0.00000   0.00000   0.00000   0.00000
  29       13D-1        0.00000   0.00000   0.00000   0.00000   0.00000
  30       13D+2       -1.75123  -0.25608   0.00000   0.00000   0.00000
  31       13D-2        0.00000   0.00000   0.00000   0.00000   0.00000
  32       14D 0       -0.08453   0.57805   0.00000   0.00000   0.00000
  33       14D+1        0.00000   0.00000   0.00000   0.00000   0.00000
  34       14D-1        0.00000   0.00000   0.00000   0.00000   0.00000
  35       14D+2        0.57805   0.08453   0.00000   0.00000   0.00000
  36       14D-2        0.00000   0.00000   0.00000   0.00000   0.00000
  37       15F 0        0.00000   0.00000  -0.00010   0.00000   0.00000
  38       15F+1        0.00000   0.00000   0.00000   0.00000   1.21732
  39       15F-1        0.00000   0.00000   0.00000   1.21726   0.00000
  40       15F+2        0.00000   0.00000   1.53976   0.00000   0.00000
  41       15F-2        0.00000   0.00000   0.00000   0.00000   0.00000
  42       15F+3        0.00000   0.00000   0.00000   0.00000   0.94287
  43       15F-3        0.00000   0.00000   0.00000  -0.94294   0.00000
  44       16F 0        0.00000   0.00000   0.00007   0.00000   0.00000
  45       16F+1        0.00000   0.00000   0.00000   0.00000  -0.79159
  46       16F-1        0.00000   0.00000   0.00000  -0.79155   0.00000
  47       16F+2        0.00000   0.00000  -1.00126   0.00000   0.00000
  48       16F-2        0.00000   0.00000   0.00000   0.00000   0.00000
  49       16F+3        0.00000   0.00000   0.00000   0.00000  -0.61312
  50       16F-3        0.00000   0.00000   0.00000   0.61317   0.00000
                          46        47        48        49        50
                       (A2U)--V  (T1U)--V  (T1U)--V  (T1U)--V  (A1G)--V
     Eigenvalues --     0.62597   0.62597   0.62597   0.62597   1.45903
   1 1   Na 1S          0.00000   0.00000   0.00000   0.00000   0.09454
   2        2S          0.00000   0.00000   0.00000   0.00000  -1.67132
   3        3S          0.00000   0.00000   0.00000   0.00000  -1.39919
   4        4S          0.00000   0.00000   0.00000   0.00000   2.14677
   5        5S          0.00000   0.00000   0.00000   0.00000   1.06704
   6        6S          0.00000   0.00000   0.00000   0.00000  -0.31254
   7        7PX         0.00000   0.00000   0.00000  -0.00000   0.00000
   8        7PY         0.00000   0.00000   0.00000   0.00000   0.00000
   9        7PZ         0.00000   0.00000  -0.00000   0.00000   0.00000
  10        8PX         0.00000   0.00000   0.00000   0.00000   0.00000
  11        8PY         0.00000  -0.00000   0.00000   0.00000   0.00000
  12        8PZ         0.00000   0.00000   0.00000   0.00000   0.00000
  13        9PX         0.00000   0.00000   0.00000  -0.00000   0.00000
  14        9PY         0.00000   0.00000   0.00000   0.00000   0.00000
  15        9PZ         0.00000   0.00000  -0.00000   0.00000   0.00000
  16       10PX         0.00000   0.00000   0.00000   0.00000   0.00000
  17       10PY         0.00000  -0.00000   0.00000   0.00000   0.00000
  18       10PZ         0.00000   0.00000   0.00000   0.00000   0.00000
  19       11PX         0.00000   0.00000   0.00000  -0.00000   0.00000
  20       11PY         0.00000   0.00000   0.00000   0.00000   0.00000
  21       11PZ         0.00000   0.00000  -0.00000   0.00000   0.00000
  22       12D 0        0.00000   0.00000   0.00000   0.00000  -0.00000
  23       12D+1        0.00000   0.00000   0.00000   0.00000   0.00000
  24       12D-1        0.00000   0.00000   0.00000   0.00000   0.00000
  25       12D+2        0.00000   0.00000   0.00000   0.00000  -0.00000
  26       12D-2        0.00000   0.00000   0.00000   0.00000   0.00000
  27       13D 0        0.00000   0.00000   0.00000   0.00000   0.00000
  28       13D+1        0.00000   0.00000   0.00000   0.00000   0.00000
  29       13D-1        0.00000   0.00000   0.00000   0.00000   0.00000
  30       13D+2        0.00000   0.00000   0.00000   0.00000   0.00000
  31       13D-2        0.00000   0.00000   0.00000   0.00000   0.00000
  32       14D 0        0.00000   0.00000   0.00000   0.00000  -0.00000
  33       14D+1        0.00000   0.00000   0.00000   0.00000   0.00000
  34       14D-1        0.00000   0.00000   0.00000   0.00000   0.00000
  35       14D+2        0.00000   0.00000   0.00000   0.00000  -0.00000
  36       14D-2        0.00000   0.00000   0.00000   0.00000   0.00000
  37       15F 0        0.00000   0.00000   1.53976   0.00000   0.00000
  38       15F+1        0.00000   0.00000   0.00000  -0.94287   0.00000
  39       15F-1        0.00000   0.94294   0.00000   0.00000   0.00000
  40       15F+2        0.00000   0.00000   0.00010   0.00000   0.00000
  41       15F-2        1.53976   0.00000   0.00000   0.00000   0.00000
  42       15F+3        0.00000   0.00000   0.00000   1.21732   0.00000
  43       15F-3        0.00000   1.21726   0.00000   0.00000   0.00000
  44       16F 0        0.00000   0.00000  -1.00126   0.00000   0.00000
  45       16F+1        0.00000   0.00000   0.00000   0.61312   0.00000
  46       16F-1        0.00000  -0.61317   0.00000   0.00000   0.00000
  47       16F+2        0.00000   0.00000  -0.00007   0.00000   0.00000
  48       16F-2       -1.00126   0.00000   0.00000   0.00000   0.00000
  49       16F+3        0.00000   0.00000   0.00000  -0.79159   0.00000
  50       16F-3        0.00000  -0.79155   0.00000   0.00000   0.00000
     Beta Molecular Orbital Coefficients:
                           1         2         3         4         5
                       (A1G)--O  (A1G)--O  (T1U)--O  (T1U)--O  (T1U)--O
     Eigenvalues --   -38.49804  -2.22601  -1.15856  -1.15856  -1.15856
   1 1   Na 1S          0.99945  -0.24496   0.00000   0.00000   0.00000
   2        2S          0.00377   0.80924   0.00000   0.00000   0.00000
   3        3S          0.00119   0.01370   0.00000   0.00000   0.00000
   4        4S         -0.00257   0.25563   0.00000   0.00000   0.00000
   5        5S         -0.00090  -0.00855   0.00000   0.00000   0.00000
   6        6S          0.00027   0.00237   0.00000   0.00000   0.00000
   7        7PX         0.00000   0.00000   0.00000   0.00000   0.99671
   8        7PY         0.00000   0.00000   0.99671   0.00000   0.00000
   9        7PZ         0.00000   0.00000   0.00000   0.99671   0.00000
  10        8PX         0.00000   0.00000   0.00000   0.00000   0.02053
  11        8PY         0.00000   0.00000   0.02053   0.00000   0.00000
  12        8PZ         0.00000   0.00000   0.00000   0.02053   0.00000
  13        9PX         0.00000   0.00000   0.00000   0.00000  -0.01184
  14        9PY         0.00000   0.00000  -0.01184   0.00000   0.00000
  15        9PZ         0.00000   0.00000   0.00000  -0.01184   0.00000
  16       10PX         0.00000   0.00000   0.00000   0.00000   0.00791
  17       10PY         0.00000   0.00000   0.00791   0.00000   0.00000
  18       10PZ         0.00000   0.00000   0.00000   0.00791   0.00000
  19       11PX         0.00000   0.00000   0.00000   0.00000  -0.00328
  20       11PY         0.00000   0.00000  -0.00328   0.00000   0.00000
  21       11PZ         0.00000   0.00000   0.00000  -0.00328   0.00000
  22       12D 0       -0.00000   0.00000   0.00000   0.00000   0.00000
  23       12D+1        0.00000   0.00000   0.00000   0.00000   0.00000
  24       12D-1        0.00000   0.00000   0.00000   0.00000   0.00000
  25       12D+2        0.00000   0.00000   0.00000   0.00000   0.00000
  26       12D-2        0.00000   0.00000   0.00000   0.00000   0.00000
  27       13D 0       -0.00000  -0.00000   0.00000   0.00000   0.00000
  28       13D+1        0.00000   0.00000   0.00000   0.00000   0.00000
  29       13D-1        0.00000   0.00000   0.00000   0.00000   0.00000
  30       13D+2       -0.00000  -0.00000   0.00000   0.00000   0.00000
  31       13D-2        0.00000   0.00000   0.00000   0.00000   0.00000
  32       14D 0        0.00000  -0.00000   0.00000   0.00000   0.00000
  33       14D+1        0.00000   0.00000   0.00000   0.00000   0.00000
  34       14D-1        0.00000   0.00000   0.00000   0.00000   0.00000
  35       14D+2        0.00000   0.00000   0.00000   0.00000   0.00000
  36       14D-2        0.00000   0.00000   0.00000   0.00000   0.00000
  37       15F 0        0.00000   0.00000   0.00000  -0.00000   0.00000
  38       15F+1        0.00000   0.00000   0.00000   0.00000   0.00000
  39       15F-1        0.00000   0.00000   0.00000   0.00000   0.00000
  40       15F+2        0.00000   0.00000   0.00000   0.00000   0.00000
  41       15F-2        0.00000   0.00000   0.00000   0.00000   0.00000
  42       15F+3        0.00000   0.00000   0.00000   0.00000  -0.00000
  43       15F-3        0.00000   0.00000   0.00000   0.00000   0.00000
  44       16F 0        0.00000   0.00000   0.00000   0.00000   0.00000
  45       16F+1        0.00000   0.00000   0.00000   0.00000  -0.00000
  46       16F-1        0.00000   0.00000  -0.00000   0.00000   0.00000
  47       16F+2        0.00000   0.00000   0.00000  -0.00000   0.00000
  48       16F-2        0.00000   0.00000   0.00000   0.00000   0.00000
  49       16F+3        0.00000   0.00000   0.00000   0.00000   0.00000
  50       16F-3        0.00000   0.00000  -0.00000   0.00000   0.00000
                           6         7         8         9        10
                       (A1G)--V  (T1U)--V  (T1U)--V  (T1U)--V  (A1G)--V
     Eigenvalues --    -0.06301  -0.00031  -0.00031  -0.00031   0.00864
   1 1   Na 1S          0.04122   0.00000   0.00000   0.00000  -0.01488
   2        2S         -0.18251   0.00000   0.00000   0.00000   0.07286
   3        3S          0.67844   0.00000   0.00000   0.00000  -0.16552
   4        4S         -0.12683   0.00000   0.00000   0.00000   0.04304
   5        5S          0.32702   0.00000   0.00000   0.00000  -0.96254
   6        6S          0.12002   0.00000   0.00000   0.00000   1.53672
   7        7PX         0.00000   0.00000   0.00000  -0.06525   0.00000
   8        7PY         0.00000   0.00000  -0.06525   0.00000   0.00000
   9        7PZ         0.00000  -0.06525   0.00000   0.00000   0.00000
  10        8PX         0.00000   0.00000   0.00000   0.12294   0.00000
  11        8PY         0.00000   0.00000   0.12294   0.00000   0.00000
  12        8PZ         0.00000   0.12294   0.00000   0.00000   0.00000
  13        9PX         0.00000   0.00000   0.00000   0.25142   0.00000
  14        9PY         0.00000   0.00000   0.25142   0.00000   0.00000
  15        9PZ         0.00000   0.25142   0.00000   0.00000   0.00000
  16       10PX         0.00000   0.00000   0.00000   0.10329   0.00000
  17       10PY         0.00000   0.00000   0.10329   0.00000   0.00000
  18       10PZ         0.00000   0.10329   0.00000   0.00000   0.00000
  19       11PX         0.00000   0.00000   0.00000   0.70152   0.00000
  20       11PY         0.00000   0.00000   0.70152   0.00000   0.00000
  21       11PZ         0.00000   0.70152   0.00000   0.00000   0.00000
  22       12D 0        0.00000   0.00000   0.00000   0.00000  -0.00000
  23       12D+1        0.00000   0.00000   0.00000   0.00000   0.00000
  24       12D-1        0.00000   0.00000   0.00000   0.00000   0.00000
  25       12D+2        0.00000   0.00000   0.00000   0.00000  -0.00000
  26       12D-2        0.00000   0.00000   0.00000   0.00000   0.00000
  27       13D 0       -0.00000   0.00000   0.00000   0.00000   0.00000
  28       13D+1        0.00000   0.00000   0.00000   0.00000   0.00000
  29       13D-1        0.00000   0.00000   0.00000   0.00000   0.00000
  30       13D+2       -0.00000   0.00000   0.00000   0.00000  -0.00000
  31       13D-2        0.00000   0.00000   0.00000   0.00000   0.00000
  32       14D 0        0.00000   0.00000   0.00000   0.00000  -0.00000
  33       14D+1        0.00000   0.00000   0.00000   0.00000   0.00000
  34       14D-1        0.00000   0.00000   0.00000   0.00000   0.00000
  35       14D+2        0.00000   0.00000   0.00000   0.00000   0.00000
  36       14D-2        0.00000   0.00000   0.00000   0.00000   0.00000
  37       15F 0        0.00000   0.00000   0.00000   0.00000   0.00000
  38       15F+1        0.00000   0.00000   0.00000  -0.00000   0.00000
  39       15F-1        0.00000   0.00000  -0.00000   0.00000   0.00000
  40       15F+2        0.00000   0.00000   0.00000   0.00000   0.00000
  41       15F-2        0.00000   0.00000   0.00000   0.00000   0.00000
  42       15F+3        0.00000   0.00000   0.00000   0.00000   0.00000
  43       15F-3        0.00000   0.00000  -0.00000   0.00000   0.00000
  44       16F 0        0.00000  -0.00000   0.00000   0.00000   0.00000
  45       16F+1        0.00000   0.00000   0.00000   0.00000   0.00000
  46       16F-1        0.00000   0.00000   0.00000   0.00000   0.00000
  47       16F+2        0.00000  -0.00000   0.00000   0.00000   0.00000
  48       16F-2        0.00000   0.00000   0.00000   0.00000   0.00000
  49       16F+3        0.00000   0.00000   0.00000  -0.00000   0.00000
  50       16F-3        0.00000   0.00000   0.00000   0.00000   0.00000
                          11        12        13        14        15
                       (T1U)--V  (T1U)--V  (T1U)--V  (T2G)--V  (T2G)--V
     Eigenvalues --     0.02130   0.02130   0.02130   0.05103   0.05103
   1 1   Na 1S          0.00000   0.00000   0.00000   0.00000   0.00000
   2        2S          0.00000   0.00000   0.00000   0.00000   0.00000
   3        3S          0.00000   0.00000   0.00000   0.00000   0.00000
   4        4S          0.00000   0.00000   0.00000   0.00000   0.00000
   5        5S          0.00000   0.00000   0.00000   0.00000   0.00000
   6        6S          0.00000   0.00000   0.00000   0.00000   0.00000
   7        7PX         0.00000   0.07278   0.00000   0.00000   0.00000
   8        7PY         0.00000   0.00000   0.07278   0.00000   0.00000
   9        7PZ         0.07278   0.00000   0.00000   0.00000   0.00000
  10        8PX         0.00000  -0.22691   0.00000   0.00000   0.00000
  11        8PY         0.00000   0.00000  -0.22691   0.00000   0.00000
  12        8PZ        -0.22691   0.00000   0.00000   0.00000   0.00000
  13        9PX         0.00000   0.10295   0.00000   0.00000   0.00000
  14        9PY         0.00000   0.00000   0.10295   0.00000   0.00000
  15        9PZ         0.10295   0.00000   0.00000   0.00000   0.00000
  16       10PX         0.00000  -1.78435   0.00000   0.00000   0.00000
  17       10PY         0.00000   0.00000  -1.78435   0.00000   0.00000
  18       10PZ        -1.78435   0.00000   0.00000   0.00000   0.00000
  19       11PX         0.00000   1.84346   0.00000   0.00000   0.00000
  20       11PY         0.00000   0.00000   1.84346   0.00000   0.00000
  21       11PZ         1.84346   0.00000   0.00000   0.00000   0.00000
  22       12D 0        0.00000   0.00000   0.00000   0.00000   0.00000
  23       12D+1        0.00000   0.00000   0.00000   0.00000   0.12118
  24       12D-1        0.00000   0.00000   0.00000   0.00000   0.00000
  25       12D+2        0.00000   0.00000   0.00000   0.00000   0.00000
  26       12D-2        0.00000   0.00000   0.00000   0.12118   0.00000
  27       13D 0        0.00000   0.00000   0.00000   0.00000   0.00000
  28       13D+1        0.00000   0.00000   0.00000   0.00000  -0.23720
  29       13D-1        0.00000   0.00000   0.00000   0.00000   0.00000
  30       13D+2        0.00000   0.00000   0.00000   0.00000   0.00000
  31       13D-2        0.00000   0.00000   0.00000  -0.23720   0.00000
  32       14D 0        0.00000   0.00000   0.00000   0.00000   0.00000
  33       14D+1        0.00000   0.00000   0.00000   0.00000   1.11675
  34       14D-1        0.00000   0.00000   0.00000   0.00000   0.00000
  35       14D+2        0.00000   0.00000   0.00000   0.00000   0.00000
  36       14D-2        0.00000   0.00000   0.00000   1.11675   0.00000
  37       15F 0       -0.00000   0.00000   0.00000   0.00000   0.00000
  38       15F+1        0.00000   0.00000   0.00000   0.00000   0.00000
  39       15F-1        0.00000   0.00000   0.00000   0.00000   0.00000
  40       15F+2       -0.00000   0.00000   0.00000   0.00000   0.00000
  41       15F-2        0.00000   0.00000   0.00000   0.00000   0.00000
  42       15F+3        0.00000  -0.00000   0.00000   0.00000   0.00000
  43       15F-3        0.00000   0.00000   0.00000   0.00000   0.00000
  44       16F 0        0.00000   0.00000   0.00000   0.00000   0.00000
  45       16F+1        0.00000  -0.00000   0.00000   0.00000   0.00000
  46       16F-1        0.00000   0.00000  -0.00000   0.00000   0.00000
  47       16F+2        0.00000   0.00000   0.00000   0.00000   0.00000
  48       16F-2        0.00000   0.00000   0.00000   0.00000   0.00000
  49       16F+3        0.00000   0.00000   0.00000   0.00000   0.00000
  50       16F-3        0.00000   0.00000  -0.00000   0.00000   0.00000
                          16        17        18        19        20
                       (T2G)--V   (EG)--V   (EG)--V  (T1U)--V  (T1U)--V
     Eigenvalues --     0.05103   0.05103   0.05103   0.07992   0.07992
   1 1   Na 1S          0.00000   0.00000  -0.00000   0.00000   0.00000
   2        2S          0.00000  -0.00000   0.00000   0.00000   0.00000
   3        3S          0.00000   0.00000  -0.00000   0.00000   0.00000
   4        4S          0.00000  -0.00000   0.00000   0.00000   0.00000
   5        5S          0.00000  -0.00000   0.00000   0.00000   0.00000
   6        6S          0.00000   0.00000   0.00000   0.00000   0.00000
   7        7PX         0.00000   0.00000   0.00000   0.00000   0.00000
   8        7PY         0.00000   0.00000   0.00000   0.00000   0.11409
   9        7PZ         0.00000   0.00000   0.00000   0.11409   0.00000
  10        8PX         0.00000   0.00000   0.00000   0.00000   0.00000
  11        8PY         0.00000   0.00000   0.00000   0.00000  -0.07788
  12        8PZ         0.00000   0.00000   0.00000  -0.07788   0.00000
  13        9PX         0.00000   0.00000   0.00000   0.00000   0.00000
  14        9PY         0.00000   0.00000   0.00000   0.00000  -1.82053
  15        9PZ         0.00000   0.00000   0.00000  -1.82053   0.00000
  16       10PX         0.00000   0.00000   0.00000   0.00000   0.00000
  17       10PY         0.00000   0.00000   0.00000   0.00000   2.95309
  18       10PZ         0.00000   0.00000   0.00000   2.95309   0.00000
  19       11PX         0.00000   0.00000   0.00000   0.00000   0.00000
  20       11PY         0.00000   0.00000   0.00000   0.00000  -1.48523
  21       11PZ         0.00000   0.00000   0.00000  -1.48523   0.00000
  22       12D 0        0.00000  -0.01019   0.12075   0.00000   0.00000
  23       12D+1        0.00000   0.00000   0.00000   0.00000   0.00000
  24       12D-1        0.12118   0.00000   0.00000   0.00000   0.00000
  25       12D+2        0.00000   0.12075   0.01019   0.00000   0.00000
  26       12D-2        0.00000   0.00000   0.00000   0.00000   0.00000
  27       13D 0        0.00000   0.01994  -0.23636   0.00000   0.00000
  28       13D+1        0.00000   0.00000   0.00000   0.00000   0.00000
  29       13D-1       -0.23720   0.00000   0.00000   0.00000   0.00000
  30       13D+2        0.00000  -0.23636  -0.01994   0.00000   0.00000
  31       13D-2        0.00000   0.00000   0.00000   0.00000   0.00000
  32       14D 0        0.00000  -0.09390   1.11280   0.00000   0.00000
  33       14D+1        0.00000   0.00000   0.00000   0.00000   0.00000
  34       14D-1        1.11675   0.00000   0.00000   0.00000   0.00000
  35       14D+2        0.00000   1.11280   0.09390   0.00000   0.00000
  36       14D-2        0.00000   0.00000   0.00000   0.00000   0.00000
  37       15F 0        0.00000   0.00000   0.00000   0.00000   0.00000
  38       15F+1        0.00000   0.00000   0.00000   0.00000   0.00000
  39       15F-1        0.00000   0.00000   0.00000   0.00000  -0.00000
  40       15F+2        0.00000   0.00000   0.00000  -0.00000   0.00000
  41       15F-2        0.00000   0.00000   0.00000   0.00000   0.00000
  42       15F+3        0.00000   0.00000   0.00000   0.00000   0.00000
  43       15F-3        0.00000   0.00000   0.00000   0.00000  -0.00000
  44       16F 0        0.00000   0.00000   0.00000   0.00000   0.00000
  45       16F+1        0.00000   0.00000   0.00000   0.00000   0.00000
  46       16F-1        0.00000   0.00000   0.00000   0.00000  -0.00000
  47       16F+2        0.00000   0.00000   0.00000   0.00000   0.00000
  48       16F-2        0.00000   0.00000   0.00000   0.00000   0.00000
  49       16F+3        0.00000   0.00000   0.00000   0.00000   0.00000
  50       16F-3        0.00000   0.00000   0.00000   0.00000  -0.00000
                          21        22        23        24        25
                       (T1U)--V  (A1G)--V  (T2G)--V  (T2G)--V  (T2G)--V
     Eigenvalues --     0.07992   0.09694   0.18346   0.18346   0.18346
   1 1   Na 1S          0.00000  -0.04741   0.00000   0.00000   0.00000
   2        2S          0.00000   0.13052   0.00000   0.00000   0.00000
   3        3S          0.00000  -2.45984   0.00000   0.00000   0.00000
   4        4S          0.00000   0.18299   0.00000   0.00000   0.00000
   5        5S          0.00000   3.24450   0.00000   0.00000   0.00000
   6        6S          0.00000  -1.21728   0.00000   0.00000   0.00000
   7        7PX         0.11409   0.00000   0.00000   0.00000   0.00000
   8        7PY         0.00000   0.00000   0.00000   0.00000   0.00000
   9        7PZ         0.00000   0.00000   0.00000   0.00000   0.00000
  10        8PX        -0.07788   0.00000   0.00000   0.00000   0.00000
  11        8PY         0.00000   0.00000   0.00000   0.00000   0.00000
  12        8PZ         0.00000   0.00000   0.00000   0.00000   0.00000
  13        9PX        -1.82053   0.00000   0.00000   0.00000   0.00000
  14        9PY         0.00000   0.00000   0.00000   0.00000   0.00000
  15        9PZ         0.00000   0.00000   0.00000   0.00000   0.00000
  16       10PX         2.95309   0.00000   0.00000   0.00000   0.00000
  17       10PY         0.00000   0.00000   0.00000   0.00000   0.00000
  18       10PZ         0.00000   0.00000   0.00000   0.00000   0.00000
  19       11PX        -1.48523   0.00000   0.00000   0.00000   0.00000
  20       11PY         0.00000   0.00000   0.00000   0.00000   0.00000
  21       11PZ         0.00000   0.00000   0.00000   0.00000   0.00000
  22       12D 0        0.00000   0.00000   0.00000   0.00000   0.00000
  23       12D+1        0.00000   0.00000   0.00000  -0.13235   0.00000
  24       12D-1        0.00000   0.00000   0.00000   0.00000  -0.13235
  25       12D+2        0.00000   0.00000   0.00000   0.00000   0.00000
  26       12D-2        0.00000   0.00000  -0.13235   0.00000   0.00000
  27       13D 0        0.00000  -0.00000   0.00000   0.00000   0.00000
  28       13D+1        0.00000   0.00000   0.00000   1.48193   0.00000
  29       13D-1        0.00000   0.00000   0.00000   0.00000   1.48193
  30       13D+2        0.00000   0.00000   0.00000   0.00000   0.00000
  31       13D-2        0.00000   0.00000   1.48193   0.00000   0.00000
  32       14D 0        0.00000  -0.00000   0.00000   0.00000   0.00000
  33       14D+1        0.00000   0.00000   0.00000  -0.87027   0.00000
  34       14D-1        0.00000   0.00000   0.00000   0.00000  -0.87027
  35       14D+2        0.00000  -0.00000   0.00000   0.00000   0.00000
  36       14D-2        0.00000   0.00000  -0.87027   0.00000   0.00000
  37       15F 0        0.00000   0.00000   0.00000   0.00000   0.00000
  38       15F+1       -0.00000   0.00000   0.00000   0.00000   0.00000
  39       15F-1        0.00000   0.00000   0.00000   0.00000   0.00000
  40       15F+2        0.00000   0.00000   0.00000   0.00000   0.00000
  41       15F-2        0.00000   0.00000   0.00000   0.00000   0.00000
  42       15F+3        0.00000   0.00000   0.00000   0.00000   0.00000
  43       15F-3        0.00000   0.00000   0.00000   0.00000   0.00000
  44       16F 0        0.00000   0.00000   0.00000   0.00000   0.00000
  45       16F+1       -0.00000   0.00000   0.00000   0.00000   0.00000
  46       16F-1        0.00000   0.00000   0.00000   0.00000   0.00000
  47       16F+2        0.00000   0.00000   0.00000   0.00000   0.00000
  48       16F-2        0.00000   0.00000   0.00000   0.00000   0.00000
  49       16F+3        0.00000   0.00000   0.00000   0.00000   0.00000
  50       16F-3        0.00000   0.00000   0.00000   0.00000   0.00000
                          26        27        28        29        30
                        (EG)--V   (EG)--V  (T2U)--V  (T2U)--V  (T2U)--V
     Eigenvalues --     0.18346   0.18346   0.23362   0.23362   0.23362
   1 1   Na 1S          0.00000  -0.00000   0.00000   0.00000   0.00000
   2        2S         -0.00000   0.00000   0.00000   0.00000   0.00000
   3        3S          0.00000  -0.00000   0.00000   0.00000   0.00000
   4        4S         -0.00000  -0.00000   0.00000   0.00000   0.00000
   5        5S         -0.00000   0.00000   0.00000   0.00000   0.00000
   6        6S          0.00000  -0.00000   0.00000   0.00000   0.00000
   7        7PX         0.00000   0.00000   0.00000   0.00000   0.00000
   8        7PY         0.00000   0.00000   0.00000   0.00000   0.00000
   9        7PZ         0.00000   0.00000   0.00000  -0.00000   0.00000
  10        8PX         0.00000   0.00000   0.00000   0.00000  -0.00000
  11        8PY         0.00000   0.00000  -0.00000   0.00000   0.00000
  12        8PZ         0.00000   0.00000   0.00000   0.00000   0.00000
  13        9PX         0.00000   0.00000   0.00000   0.00000   0.00000
  14        9PY         0.00000   0.00000   0.00000   0.00000   0.00000
  15        9PZ         0.00000   0.00000   0.00000  -0.00000   0.00000
  16       10PX         0.00000   0.00000   0.00000   0.00000  -0.00000
  17       10PY         0.00000   0.00000  -0.00000   0.00000   0.00000
  18       10PZ         0.00000   0.00000   0.00000   0.00000   0.00000
  19       11PX         0.00000   0.00000   0.00000   0.00000   0.00000
  20       11PY         0.00000   0.00000   0.00000   0.00000   0.00000
  21       11PZ         0.00000   0.00000   0.00000  -0.00000   0.00000
  22       12D 0        0.00061  -0.13235   0.00000   0.00000   0.00000
  23       12D+1        0.00000   0.00000   0.00000   0.00000   0.00000
  24       12D-1        0.00000   0.00000   0.00000   0.00000   0.00000
  25       12D+2       -0.13235  -0.00061   0.00000   0.00000   0.00000
  26       12D-2        0.00000   0.00000   0.00000   0.00000   0.00000
  27       13D 0       -0.00684   1.48192   0.00000   0.00000   0.00000
  28       13D+1        0.00000   0.00000   0.00000   0.00000   0.00000
  29       13D-1        0.00000   0.00000   0.00000   0.00000   0.00000
  30       13D+2        1.48192   0.00684   0.00000   0.00000   0.00000
  31       13D-2        0.00000   0.00000   0.00000   0.00000   0.00000
  32       14D 0        0.00402  -0.87026   0.00000   0.00000   0.00000
  33       14D+1        0.00000   0.00000   0.00000   0.00000   0.00000
  34       14D-1        0.00000   0.00000   0.00000   0.00000   0.00000
  35       14D+2       -0.87026  -0.00402   0.00000   0.00000   0.00000
  36       14D-2        0.00000   0.00000   0.00000   0.00000   0.00000
  37       15F 0        0.00000   0.00000   0.00000   0.00000   0.00000
  38       15F+1        0.00000   0.00000   0.00000   0.00000  -0.23670
  39       15F-1        0.00000   0.00000  -0.23670   0.00000   0.00000
  40       15F+2        0.00000   0.00000   0.00000  -0.29941   0.00000
  41       15F-2        0.00000   0.00000   0.00000   0.00000   0.00000
  42       15F+3        0.00000   0.00000   0.00000   0.00000  -0.18336
  43       15F-3        0.00000   0.00000   0.18336   0.00000   0.00000
  44       16F 0        0.00000   0.00000   0.00000  -0.00001   0.00000
  45       16F+1        0.00000   0.00000   0.00000   0.00000   0.95818
  46       16F-1        0.00000   0.00000   0.95818   0.00000   0.00000
  47       16F+2        0.00000   0.00000   0.00000   1.21203   0.00000
  48       16F-2        0.00000   0.00000   0.00000   0.00000   0.00000
  49       16F+3        0.00000   0.00000   0.00000   0.00000   0.74223
  50       16F-3        0.00000   0.00000  -0.74223   0.00000   0.00000
                          31        32        33        34        35
                       (A2U)--V  (T1U)--V  (T1U)--V  (T1U)--V  (T1U)--V
     Eigenvalues --     0.23362   0.23362   0.23362   0.23362   0.26001
   1 1   Na 1S          0.00000   0.00000   0.00000   0.00000   0.00000
   2        2S          0.00000   0.00000   0.00000   0.00000   0.00000
   3        3S          0.00000   0.00000   0.00000   0.00000   0.00000
   4        4S          0.00000   0.00000   0.00000   0.00000   0.00000
   5        5S          0.00000   0.00000   0.00000   0.00000   0.00000
   6        6S          0.00000   0.00000   0.00000   0.00000   0.00000
   7        7PX         0.00000   0.00000   0.00000  -0.00000   0.00000
   8        7PY         0.00000   0.00000   0.00000   0.00000   0.00000
   9        7PZ         0.00000   0.00000  -0.00000   0.00000   0.19315
  10        8PX         0.00000   0.00000   0.00000   0.00000   0.00000
  11        8PY         0.00000  -0.00000   0.00000   0.00000   0.00000
  12        8PZ         0.00000   0.00000   0.00000   0.00000  -1.94731
  13        9PX         0.00000   0.00000   0.00000  -0.00000   0.00000
  14        9PY         0.00000   0.00000   0.00000   0.00000   0.00000
  15        9PZ         0.00000   0.00000  -0.00000   0.00000   2.83669
  16       10PX         0.00000   0.00000   0.00000   0.00000   0.00000
  17       10PY         0.00000  -0.00000   0.00000   0.00000   0.00000
  18       10PZ         0.00000   0.00000   0.00000   0.00000  -2.12561
  19       11PX         0.00000   0.00000   0.00000  -0.00000   0.00000
  20       11PY         0.00000   0.00000   0.00000   0.00000   0.00000
  21       11PZ         0.00000   0.00000  -0.00000   0.00000   0.85366
  22       12D 0        0.00000   0.00000   0.00000   0.00000   0.00000
  23       12D+1        0.00000   0.00000   0.00000   0.00000   0.00000
  24       12D-1        0.00000   0.00000   0.00000   0.00000   0.00000
  25       12D+2        0.00000   0.00000   0.00000   0.00000   0.00000
  26       12D-2        0.00000   0.00000   0.00000   0.00000   0.00000
  27       13D 0        0.00000   0.00000   0.00000   0.00000   0.00000
  28       13D+1        0.00000   0.00000   0.00000   0.00000   0.00000
  29       13D-1        0.00000   0.00000   0.00000   0.00000   0.00000
  30       13D+2        0.00000   0.00000   0.00000   0.00000   0.00000
  31       13D-2        0.00000   0.00000   0.00000   0.00000   0.00000
  32       14D 0        0.00000   0.00000   0.00000   0.00000   0.00000
  33       14D+1        0.00000   0.00000   0.00000   0.00000   0.00000
  34       14D-1        0.00000   0.00000   0.00000   0.00000   0.00000
  35       14D+2        0.00000   0.00000   0.00000   0.00000   0.00000
  36       14D-2        0.00000   0.00000   0.00000   0.00000   0.00000
  37       15F 0        0.00000   0.00000  -0.29941   0.00000  -0.00000
  38       15F+1        0.00000   0.00000   0.00000   0.18336   0.00000
  39       15F-1        0.00000  -0.18336   0.00000   0.00000   0.00000
  40       15F+2        0.00000   0.00000  -0.00000   0.00000  -0.00000
  41       15F-2       -0.29941   0.00000   0.00000   0.00000   0.00000
  42       15F+3        0.00000   0.00000   0.00000  -0.23670   0.00000
  43       15F-3        0.00000  -0.23670   0.00000   0.00000   0.00000
  44       16F 0        0.00000   0.00000   1.21203   0.00000   0.00000
  45       16F+1        0.00000   0.00000   0.00000  -0.74223   0.00000
  46       16F-1        0.00000   0.74223   0.00000   0.00000   0.00000
  47       16F+2        0.00000   0.00000   0.00001   0.00000   0.00000
  48       16F-2        1.21203   0.00000   0.00000   0.00000   0.00000
  49       16F+3        0.00000   0.00000   0.00000   0.95818   0.00000
  50       16F-3        0.00000   0.95818   0.00000   0.00000   0.00000
                          36        37        38        39        40
                       (T1U)--V  (T1U)--V  (T2G)--V  (T2G)--V  (T2G)--V
     Eigenvalues --     0.26001   0.26001   0.47826   0.47826   0.47826
   1 1   Na 1S          0.00000   0.00000   0.00000   0.00000   0.00000
   2        2S          0.00000   0.00000   0.00000   0.00000   0.00000
   3        3S          0.00000   0.00000   0.00000   0.00000   0.00000
   4        4S          0.00000   0.00000   0.00000   0.00000   0.00000
   5        5S          0.00000   0.00000   0.00000   0.00000   0.00000
   6        6S          0.00000   0.00000   0.00000   0.00000   0.00000
   7        7PX         0.00000   0.19315   0.00000   0.00000   0.00000
   8        7PY         0.19315   0.00000   0.00000   0.00000   0.00000
   9        7PZ         0.00000   0.00000   0.00000   0.00000   0.00000
  10        8PX         0.00000  -1.94731   0.00000   0.00000   0.00000
  11        8PY        -1.94731   0.00000   0.00000   0.00000   0.00000
  12        8PZ         0.00000   0.00000   0.00000   0.00000   0.00000
  13        9PX         0.00000   2.83669   0.00000   0.00000   0.00000
  14        9PY         2.83669   0.00000   0.00000   0.00000   0.00000
  15        9PZ         0.00000   0.00000   0.00000   0.00000   0.00000
  16       10PX         0.00000  -2.12561   0.00000   0.00000   0.00000
  17       10PY        -2.12561   0.00000   0.00000   0.00000   0.00000
  18       10PZ         0.00000   0.00000   0.00000   0.00000   0.00000
  19       11PX         0.00000   0.85366   0.00000   0.00000   0.00000
  20       11PY         0.85366   0.00000   0.00000   0.00000   0.00000
  21       11PZ         0.00000   0.00000   0.00000   0.00000   0.00000
  22       12D 0        0.00000   0.00000   0.00000   0.00000   0.00000
  23       12D+1        0.00000   0.00000   1.79271   0.00000   0.00000
  24       12D-1        0.00000   0.00000   0.00000   0.00000   1.79271
  25       12D+2        0.00000   0.00000   0.00000   0.00000   0.00000
  26       12D-2        0.00000   0.00000   0.00000   1.79271   0.00000
  27       13D 0        0.00000   0.00000   0.00000   0.00000   0.00000
  28       13D+1        0.00000   0.00000  -1.76674   0.00000   0.00000
  29       13D-1        0.00000   0.00000   0.00000   0.00000  -1.76674
  30       13D+2        0.00000   0.00000   0.00000   0.00000   0.00000
  31       13D-2        0.00000   0.00000   0.00000  -1.76674   0.00000
  32       14D 0        0.00000   0.00000   0.00000   0.00000   0.00000
[...]
  41       15F-2       -0.00000   0.00000   0.00000   0.00000   0.00000
  42       15F+3        0.00000   0.00000   0.00000   0.00000   0.00000
  43       15F-3       -0.00000   0.00000   0.00000   0.00000   0.00000
  44       16F 0        0.00000   0.00000   0.00000   0.00000   0.00000
  45       16F+1        0.00000   0.00000   0.00000   0.00000   0.00000
  46       16F-1       -0.00000   0.00000   0.00000   0.00000   0.00000
  47       16F+2       -0.00000   0.00000   0.00000   0.00000   0.00000
  48       16F-2        0.00000   0.00000   0.00000   0.00000   0.00000
  49       16F+3        0.00000   0.00000   0.00000   0.00000   0.00000
  50       16F-3        0.00000   0.00000   0.00000   0.00000   0.00000
                          26        27        28        29        30
  26       12D-2        0.00000
  27       13D 0        0.00000   0.00000
  28       13D+1       -0.00000  -0.00000   0.00000
  29       13D-1       -0.00000  -0.00000   0.00000   0.00000
  30       13D+2        0.00000  -0.00000   0.00000   0.00000   0.00000
  31       13D-2       -0.00000   0.00000   0.00000  -0.00000   0.00000
  32       14D 0       -0.00000  -0.00000  -0.00000  -0.00000  -0.00000
  33       14D+1        0.00000  -0.00000  -0.00000  -0.00000  -0.00000
  34       14D-1       -0.00000  -0.00000  -0.00000  -0.00000  -0.00000
  35       14D+2       -0.00000   0.00000   0.00000   0.00000  -0.00000
  36       14D-2        0.00000  -0.00000  -0.00000  -0.00000   0.00000
  37       15F 0        0.00000   0.00000   0.00000   0.00000   0.00000
  38       15F+1        0.00000   0.00000   0.00000   0.00000   0.00000
  39       15F-1        0.00000   0.00000   0.00000   0.00000   0.00000
  40       15F+2        0.00000   0.00000   0.00000   0.00000   0.00000
  41       15F-2        0.00000   0.00000   0.00000   0.00000   0.00000
  42       15F+3        0.00000   0.00000   0.00000   0.00000   0.00000
  43       15F-3        0.00000   0.00000   0.00000   0.00000   0.00000
  44       16F 0        0.00000   0.00000   0.00000   0.00000   0.00000
  45       16F+1        0.00000   0.00000   0.00000   0.00000   0.00000
  46       16F-1        0.00000   0.00000   0.00000   0.00000   0.00000
  47       16F+2        0.00000   0.00000   0.00000   0.00000   0.00000
  48       16F-2        0.00000   0.00000   0.00000   0.00000   0.00000
  49       16F+3        0.00000   0.00000   0.00000   0.00000   0.00000
  50       16F-3        0.00000   0.00000   0.00000   0.00000   0.00000
                          31        32        33        34        35
  31       13D-2        0.00000
  32       14D 0        0.00000   0.00000
  33       14D+1       -0.00000  -0.00000   0.00000
  34       14D-1        0.00000   0.00000  -0.00000   0.00000
  35       14D+2        0.00000   0.00000   0.00000   0.00000   0.00000
  36       14D-2       -0.00000  -0.00000  -0.00000   0.00000   0.00000
  37       15F 0        0.00000   0.00000   0.00000   0.00000   0.00000
  38       15F+1        0.00000   0.00000   0.00000   0.00000   0.00000
  39       15F-1        0.00000   0.00000   0.00000   0.00000   0.00000
  40       15F+2        0.00000   0.00000   0.00000   0.00000   0.00000
  41       15F-2        0.00000   0.00000   0.00000   0.00000   0.00000
  42       15F+3        0.00000   0.00000   0.00000   0.00000   0.00000
  43       15F-3        0.00000   0.00000   0.00000   0.00000   0.00000
  44       16F 0        0.00000   0.00000   0.00000   0.00000   0.00000
  45       16F+1        0.00000   0.00000   0.00000   0.00000   0.00000
  46       16F-1        0.00000   0.00000   0.00000   0.00000   0.00000
  47       16F+2        0.00000   0.00000   0.00000   0.00000   0.00000
  48       16F-2        0.00000   0.00000   0.00000   0.00000   0.00000
  49       16F+3        0.00000   0.00000   0.00000   0.00000   0.00000
  50       16F-3        0.00000   0.00000   0.00000   0.00000   0.00000
                          36        37        38        39        40
  36       14D-2        0.00000
  37       15F 0        0.00000   0.00000
  38       15F+1        0.00000   0.00000   0.00000
  39       15F-1        0.00000   0.00000  -0.00000   0.00000
  40       15F+2        0.00000   0.00000  -0.00000   0.00000   0.00000
  41       15F-2        0.00000  -0.00000  -0.00000  -0.00000   0.00000
  42       15F+3        0.00000   0.00000   0.00000  -0.00000   0.00000
  43       15F-3        0.00000   0.00000  -0.00000   0.00000   0.00000
  44       16F 0        0.00000  -0.00000   0.00000   0.00000  -0.00000
  45       16F+1        0.00000   0.00000  -0.00000   0.00000  -0.00000
  46       16F-1        0.00000   0.00000  -0.00000  -0.00000   0.00000
  47       16F+2        0.00000  -0.00000  -0.00000   0.00000  -0.00000
  48       16F-2        0.00000  -0.00000  -0.00000   0.00000  -0.00000
  49       16F+3        0.00000  -0.00000   0.00000   0.00000   0.00000
  50       16F-3        0.00000   0.00000   0.00000   0.00000   0.00000
                          41        42        43        44        45
  41       15F-2        0.00000
  42       15F+3        0.00000   0.00000
  43       15F-3        0.00000  -0.00000   0.00000
  44       16F 0        0.00000   0.00000   0.00000   0.00000
  45       16F+1       -0.00000  -0.00000   0.00000  -0.00000   0.00000
  46       16F-1       -0.00000   0.00000  -0.00000   0.00000   0.00000
  47       16F+2       -0.00000  -0.00000   0.00000   0.00000   0.00000
  48       16F-2       -0.00000   0.00000  -0.00000   0.00000  -0.00000
  49       16F+3        0.00000  -0.00000   0.00000   0.00000  -0.00000
  50       16F-3        0.00000  -0.00000  -0.00000  -0.00000  -0.00000
                          46        47        48        49        50
  46       16F-1        0.00000
  47       16F+2       -0.00000   0.00000
  48       16F-2       -0.00000  -0.00000   0.00000
  49       16F+3       -0.00000   0.00000  -0.00000   0.00000
  50       16F-3       -0.00000   0.00000  -0.00000   0.00000   0.00000
     Gross orbital populations:
                         Total     Alpha     Beta      Spin
   1 1   Na 1S          1.99969   0.99985   0.99984   0.00001
   2        2S          1.56218   0.78759   0.77458   0.01301
   3        3S          0.69865   0.69427   0.00439   0.68988
   4        4S          0.41814   0.19556   0.22258  -0.02702
   5        5S          0.30479   0.30637  -0.00158   0.30796
   6        6S          0.01654   0.01635   0.00019   0.01617
   7        7PX         1.99283   0.99623   0.99661  -0.00038
   8        7PY         1.99283   0.99623   0.99661  -0.00038
   9        7PZ         1.99283   0.99623   0.99661  -0.00038
  10        8PX         0.00907   0.00474   0.00433   0.00041
  11        8PY         0.00907   0.00474   0.00433   0.00041
  12        8PZ         0.00907   0.00474   0.00433   0.00041
  13        9PX        -0.00237  -0.00120  -0.00117  -0.00004
  14        9PY        -0.00237  -0.00120  -0.00117  -0.00004
  15        9PZ        -0.00237  -0.00120  -0.00117  -0.00004
  16       10PX         0.00057   0.00029   0.00028   0.00001
  17       10PY         0.00057   0.00029   0.00028   0.00001
  18       10PZ         0.00057   0.00029   0.00028   0.00001
  19       11PX        -0.00010  -0.00005  -0.00005  -0.00000
  20       11PY        -0.00010  -0.00005  -0.00005  -0.00000
  21       11PZ        -0.00010  -0.00005  -0.00005  -0.00000
  22       12D 0        0.00000   0.00000   0.00000  -0.00000
  23       12D+1        0.00000   0.00000   0.00000  -0.00000
  24       12D-1        0.00000   0.00000   0.00000   0.00000
  25       12D+2        0.00000   0.00000   0.00000  -0.00000
  26       12D-2        0.00000   0.00000   0.00000  -0.00000
  27       13D 0        0.00000   0.00000   0.00000   0.00000
  28       13D+1        0.00000   0.00000   0.00000   0.00000
  29       13D-1        0.00000   0.00000   0.00000   0.00000
  30       13D+2        0.00000   0.00000   0.00000   0.00000
  31       13D-2        0.00000   0.00000   0.00000   0.00000
  32       14D 0        0.00000   0.00000   0.00000   0.00000
  33       14D+1        0.00000   0.00000   0.00000   0.00000
  34       14D-1        0.00000   0.00000   0.00000   0.00000
  35       14D+2        0.00000   0.00000   0.00000   0.00000
  36       14D-2        0.00000   0.00000   0.00000   0.00000
  37       15F 0        0.00000   0.00000   0.00000   0.00000
  38       15F+1        0.00000   0.00000   0.00000   0.00000
  39       15F-1        0.00000   0.00000   0.00000   0.00000
  40       15F+2        0.00000   0.00000  -0.00000   0.00000
  41       15F-2        0.00000   0.00000   0.00000   0.00000
  42       15F+3        0.00000   0.00000   0.00000   0.00000
  43       15F-3        0.00000   0.00000   0.00000   0.00000
  44       16F 0       -0.00000  -0.00000  -0.00000  -0.00000
  45       16F+1       -0.00000  -0.00000  -0.00000  -0.00000
  46       16F-1       -0.00000  -0.00000  -0.00000  -0.00000
  47       16F+2        0.00000   0.00000   0.00000  -0.00000
  48       16F-2       -0.00000  -0.00000  -0.00000  -0.00000
  49       16F+3       -0.00000  -0.00000  -0.00000  -0.00000
  50       16F-3       -0.00000  -0.00000  -0.00000  -0.00000
          Condensed to atoms (all electrons):
               1
     1  Na  11.000000
          Atomic-Atomic Spin Densities.
               1
     1  Na   1.000000
 Mulliken charges and spin densities:
               1          2
     1  Na   0.000000   1.000000
 Sum of Mulliken charges =   0.00000   1.00000
 Mulliken charges and spin densities with hydrogens summed into heavy atoms:
               1          2
     1  Na   0.000000   1.000000
 Electronic spatial extent (au):  <R**2>=             25.3850
 Charge=              0.0000 electrons
 Dipole moment (field-independent basis, Debye):
    X=              0.0000    Y=              0.0000    Z=              0.0000  Tot=              0.0000
 Quadrupole moment (field-independent basis, Debye-Ang):
   XX=            -11.3812   YY=            -11.3812   ZZ=            -11.3812
   XY=              0.0000   XZ=              0.0000   YZ=             -0.0000
 Traceless Quadrupole moment (field-independent basis, Debye-Ang):
   XX=             -0.0000   YY=             -0.0000   ZZ=             -0.0000
   XY=              0.0000   XZ=              0.0000   YZ=             -0.0000
 Octapole moment (field-independent basis, Debye-Ang**2):
  XXX=              0.0000  YYY=              0.0000  ZZZ=              0.0000  XYY=              0.0000
  XXY=              0.0000  XXZ=              0.0000  XZZ=              0.0000  YZZ=              0.0000
  YYZ=              0.0000  XYZ=              0.0000
 Hexadecapole moment (field-independent basis, Debye-Ang**3):
 XXXX=            -48.5747 YYYY=            -48.5747 ZZZZ=            -48.5747 XXXY=              0.0000
 XXXZ=             -0.0000 YYYX=             -0.0000 YYYZ=              0.0000 ZZZX=              0.0000
 ZZZY=             -0.0000 XXYY=            -16.1916 XXZZ=            -16.1916 YYZZ=            -16.1916
 XXYZ=             -0.0000 YYXZ=              0.0000 ZZXY=              0.0000
 N-N= 0.000000000000D+00 E-N=-3.892175159226D+02  KE= 1.614747026945D+02
 Symmetry AG   KE= 1.263401634381D+02
 Symmetry B1G  KE= 5.886415521895D-62
 Symmetry B2G  KE= 6.001822931898D-62
 Symmetry B3G  KE= 6.226754820322D-62
 Symmetry AU   KE= 5.473325414333D-58
 Symmetry B1U  KE= 1.171151308545D+01
 Symmetry B2U  KE= 1.171151308545D+01
 Symmetry B3U  KE= 1.171151308545D+01
 Symmetry AG   SP= 1.000000000000D+00
 Symmetry B1G  SP= 4.682879836041D-62
 Symmetry B2G  SP= 4.106718359129D-62
 Symmetry B3G  SP= 6.007482954454D-62
 Symmetry AU   SP= 3.139455245000D-58
 Symmetry B1U  SP=-2.019749864628D-15
 Symmetry B2U  SP=-1.798806240911D-15
 Symmetry B3U  SP=-1.576201581436D-15
 Orbital energies and kinetic energies (alpha):
                                 1                 2
   1         (A1G)--O        -38.499835         56.220483
   2         (A1G)--O         -2.229459          6.778448
   3         (T1U)--O         -1.160831          5.853562
   4         (T1U)--O         -1.160831          5.853562
   5         (T1U)--O         -1.160831          5.853562
   6         (A1G)--O         -0.128138          0.348218
   7         (T1U)--V         -0.021005          0.133240
   8         (T1U)--V         -0.021005          0.133240
   9         (T1U)--V         -0.021005          0.133240
  10         (A1G)--V          0.000949          0.058573
  11         (T1U)--V          0.012184          0.059007
  12         (T1U)--V          0.012184          0.059007
  13         (T1U)--V          0.012184          0.059007
  14         (T2G)--V          0.037519          0.083708
  15         (T2G)--V          0.037519          0.083708
  16         (T2G)--V          0.037519          0.083708
  17         (EG)--V           0.037519          0.083708
  18         (EG)--V           0.037519          0.083708
  19         (T1U)--V          0.065492          0.183835
  20         (T1U)--V          0.065492          0.183835
  21         (T1U)--V          0.065492          0.183835
  22         (A1G)--V          0.081013          0.381534
  23         (T2G)--V          0.157312          0.261773
  24         (T2G)--V          0.157312          0.261773
  25         (T2G)--V          0.157312          0.261773
  26         (EG)--V           0.157312          0.261773
  27         (EG)--V           0.157312          0.261773
  28         (T2U)--V          0.206830          0.285787
  29         (T2U)--V          0.206830          0.285787
  30         (T2U)--V          0.206830          0.285787
  31         (A2U)--V          0.206830          0.285787
  32         (T1U)--V          0.206830          0.285787
  33         (T1U)--V          0.206830          0.285787
  34         (T1U)--V          0.206830          0.285787
  35         (T1U)--V          0.242076          0.681890
  36         (T1U)--V          0.242076          0.681890
  37         (T1U)--V          0.242076          0.681890
  38         (T2G)--V          0.458263          0.685281
  39         (T2G)--V          0.458263          0.685281
  40         (T2G)--V          0.458263          0.685281
  41         (EG)--V           0.458263          0.685281
  42         (EG)--V           0.458263          0.685281
  43         (T2U)--V          0.625967          0.809343
  44         (T2U)--V          0.625967          0.809343
  45         (T2U)--V          0.625967          0.809343
  46         (A2U)--V          0.625967          0.809343
  47         (T1U)--V          0.625967          0.809343
  48         (T1U)--V          0.625967          0.809343
  49         (T1U)--V          0.625967          0.809343
  50         (A1G)--V          1.459030          5.944985
 Orbital energies and kinetic energies (beta):
                                 1                 2
   1         (A1G)--O        -38.498040         56.220130
   2         (A1G)--O         -2.226009          6.772884
   3         (T1U)--O         -1.158556          5.857951
   4         (T1U)--O         -1.158556          5.857951
   5         (T1U)--O         -1.158556          5.857951
   6         (A1G)--V         -0.063013          0.325273
   7         (T1U)--V         -0.000310          0.063175
   8         (T1U)--V         -0.000310          0.063175
   9         (T1U)--V         -0.000310          0.063175
  10         (A1G)--V          0.008640          0.067170
  11         (T1U)--V          0.021304          0.088997
  12         (T1U)--V          0.021304          0.088997
  13         (T1U)--V          0.021304          0.088997
  14         (T2G)--V          0.051034          0.079579
  15         (T2G)--V          0.051034          0.079579
  16         (T2G)--V          0.051034          0.079579
  17         (EG)--V           0.051034          0.079579
  18         (EG)--V           0.051034          0.079579
  19         (T1U)--V          0.079922          0.216006
  20         (T1U)--V          0.079922          0.216006
  21         (T1U)--V          0.079922          0.216006
  22         (A1G)--V          0.096942          0.406409
  23         (T2G)--V          0.183458          0.265929
  24         (T2G)--V          0.183458          0.265929
  25         (T2G)--V          0.183458          0.265929
  26         (EG)--V           0.183458          0.265929
  27         (EG)--V           0.183458          0.265929
  28         (T2U)--V          0.233618          0.285321
  29         (T2U)--V          0.233618          0.285321
  30         (T2U)--V          0.233618          0.285321
  31         (A2U)--V          0.233618          0.285321
  32         (T1U)--V          0.233618          0.285321
  33         (T1U)--V          0.233618          0.285321
  34         (T1U)--V          0.233618          0.285321
  35         (T1U)--V          0.260005          0.685406
  36         (T1U)--V          0.260005          0.685406
  37         (T1U)--V          0.260005          0.685406
  38         (T2G)--V          0.478256          0.685254
  39         (T2G)--V          0.478256          0.685254
  40         (T2G)--V          0.478256          0.685254
  41         (EG)--V           0.478256          0.685254
  42         (EG)--V           0.478256          0.685254
  43         (T2U)--V          0.650561          0.809809
  44         (T2U)--V          0.650561          0.809809
  45         (T2U)--V          0.650561          0.809809
  46         (A2U)--V          0.650561          0.809809
  47         (T1U)--V          0.650561          0.809809
  48         (T1U)--V          0.650561          0.809809
  49         (T1U)--V          0.650561          0.809809
  50         (A1G)--V          1.470249          5.940376
 Total kinetic energy from orbitals= 1.614747026945D+02
                          Isotropic Fermi Contact Couplings
        Atom                 a.u.       MegaHertz       Gauss      10(-4) cm-1
     1  Na(23)             0.74200     877.80662     313.22323     292.80477
 --------------------------------------------------------
       Center         ----  Spin Dipole Couplings  ----
                      3XX-RR        3YY-RR        3ZZ-RR
 --------------------------------------------------------
     1   Atom        0.000000      0.000000     -0.000000
 --------------------------------------------------------
                        XY            XZ            YZ
 --------------------------------------------------------
     1   Atom        0.000000      0.000000      0.000000
 --------------------------------------------------------


 ---------------------------------------------------------------------------------
              Anisotropic Spin Dipole Couplings in Principal Axis System
 ---------------------------------------------------------------------------------

       Atom             a.u.   MegaHertz   Gauss  10(-4) cm-1        Axes

              Baa    -0.0000    -0.000    -0.000    -0.000  0.0000  0.0000  1.0000
     1 Na(23) Bbb     0.0000     0.000     0.000     0.000 -0.0000  1.0000  0.0000
              Bcc     0.0000     0.000     0.000     0.000  1.0000  0.0000  0.0000
 

 ---------------------------------------------------------------------------------

 1\1\GINC-LOGIN\SP\UB3LYP\Aug-CC-pVTZ\Na1(2)\C7441090\20-Nov-2023\0\\# 
 B3LYP/aug-cc-pVTZ EmpiricalDispersion=GD3 Pop=Full\\Sodium\\0,2\Na,0,0
 .,0.,0.\\Version=ES64L-G16RevA.03\State=2-A1G\HF=-162.2970239\S2=0.750
 008\S2-1=0.\S2A=0.75\RMSD=9.222e-10\Dipole=0.,0.,0.\Quadrupole=0.,0.,0
 .,0.,0.,0.\PG=OH [O(Na1)]\\@


 ... FOR AFTERWARDS A MAN FINDS PLEASURE IN HIS PAINS,
 WHEN HE HAS SUFFERED LONG AND WANDERED FAR.

                                    -- HOMER
 Job cpu time:       0 days  0 hours  0 minutes 41.8 seconds.
 Elapsed time:       0 days  0 hours  0 minutes 21.2 seconds.
 File lengths (MBytes):  RWF=      5 Int=      0 D2E=      0 Chk=      1 Scr=      1
 Normal termination of Gaussian 16 at Mon Nov 20 23:52:52 2023.
