Neon                                                                    
SP        RB3LYP                                                      Aug-CC-pVTZ         
Number of atoms                            I                1
Info1-9                                    I   N=           9
          12          11           0           0           0         110
           1          18        -502
Full Title                                 C   N=           1
Neon        
Route                                      C   N=           5
# B3LYP/aug-cc-pVTZ EmpiricalDispersion=GD3 Pop=Full        
Charge                                     I                0
Multiplicity                               I                1
Number of electrons                        I               10
Number of alpha electrons                  I                5
Number of beta electrons                   I                5
Number of basis functions                  I               46
Number of independent functions            I               46
Number of point charges in /Mol/           I                0
Number of translation vectors              I                0
Atomic numbers                             I   N=           1
          10
Nuclear charges                            R   N=           1
  1.00000000E+01
Current cartesian coordinates              R   N=           3
  0.00000000E+00  0.00000000E+00  0.00000000E+00
Number of symbols in /Mol/                 I                0
Force Field                                I                0
Atom Types                                 C   N=           1
            
Int Atom Types                             I   N=           1
           0
MM charges                                 R   N=           1
  0.00000000E+00
Integer atomic weights                     I   N=           1
          20
Real atomic weights                        R   N=           1
  1.99924391E+01
Atom fragment info                         I   N=           1
           0
Atom residue num                           I   N=           1
           0
Nuclear spins                              I   N=           1
           0
Nuclear ZEff                               R   N=           1
 -8.00000000E+00
Nuclear ZNuc                               R   N=           1
  1.00000000E+01
Nuclear QMom                               R   N=           1
  0.00000000E+00
Nuclear GFac                               R   N=           1
  0.00000000E+00
MicOpt                                     I   N=           1
          -1
Number of residues                         I                0
Number of secondary structures             I                0
SymInf integers                            I   N=          26
           1           8           1           1           1           1
          -1          -1          -1           1          -1          -1
          -1           1          -1          -1          -1          -1
           1           1           1          -1           1           1
           1          -1
RotTr to input orientation                 R   N=          12
  0.00000000E+00  0.00000000E+00 -1.00000000E+00  0.00000000E+00  1.00000000E+00
  0.00000000E+00  1.00000000E+00  0.00000000E+00  0.00000000E+00  0.00000000E+00
  0.00000000E+00  0.00000000E+00
Number of contracted shells                I               14
Number of primitive shells                 I               27
Pure/Cartesian d shells                    I                0
Pure/Cartesian f shells                    I                0
Highest angular momentum                   I                3
Largest degree of contraction              I                7
Shell types                                I   N=          14
           0           0           0           0           0           1
           1           1           1          -2          -2          -2
          -3          -3
Number of primitives per shell             I   N=          14
           7           6           1           1           1           3
           1           1           1           1           1           1
           1           1
Shell to atom map                          I   N=          14
           1           1           1           1           1           1
           1           1           1           1           1           1
           1           1
Primitive exponents                        R   N=          27
  2.43500000E+04  3.65000000E+03  8.29600000E+02  2.34000000E+02  7.56100000E+01
  2.67300000E+01  9.92700000E+00  8.29600000E+02  2.34000000E+02  7.56100000E+01
  2.67300000E+01  9.92700000E+00  1.10200000E+00  2.83600000E+00  3.78200000E-01
  1.13300000E-01  5.47000000E+01  1.24300000E+01  3.67900000E+00  1.14300000E+00
  3.30000000E-01  9.17500000E-02  4.01400000E+00  1.09600000E+00  3.86000000E-01
  2.54400000E+00  1.08400000E+00
Contraction coefficients                   R   N=          27
  5.14147127E-04  3.97487493E-03  2.04804034E-02  8.03051455E-02  2.35150856E-01
  4.42663994E-01  3.57891453E-01 -3.98376238E-05 -1.32307073E-03 -1.10477980E-02
 -7.19170294E-02 -1.68818615E-01  1.07292482E+00  1.00000000E+00  1.00000000E+00
  1.00000000E+00  4.23670170E-02  2.65935723E-01  7.94627976E-01  1.00000000E+00
  1.00000000E+00  1.00000000E+00  1.00000000E+00  1.00000000E+00  1.00000000E+00
  1.00000000E+00  1.00000000E+00
Coordinates of each shell                  R   N=          42
  0.00000000E+00  0.00000000E+00  0.00000000E+00  0.00000000E+00  0.00000000E+00
  0.00000000E+00  0.00000000E+00  0.00000000E+00  0.00000000E+00  0.00000000E+00
  0.00000000E+00  0.00000000E+00  0.00000000E+00  0.00000000E+00  0.00000000E+00
  0.00000000E+00  0.00000000E+00  0.00000000E+00  0.00000000E+00  0.00000000E+00
  0.00000000E+00  0.00000000E+00  0.00000000E+00  0.00000000E+00  0.00000000E+00
  0.00000000E+00  0.00000000E+00  0.00000000E+00  0.00000000E+00  0.00000000E+00
  0.00000000E+00  0.00000000E+00  0.00000000E+00  0.00000000E+00  0.00000000E+00
  0.00000000E+00  0.00000000E+00  0.00000000E+00  0.00000000E+00  0.00000000E+00
  0.00000000E+00  0.00000000E+00
Num ILSW                                   I              100
ILSW                                       I   N=         100
           0           0           0           0           2           0
           0           0           0           0         402          -1
           5           0           0           0           0           0
           0           0           1           0           0           0
           1           0           0           0           0           0
           0           0      100000           0          -1           0
           0           0           0           0           0           0
           0           0           0           1           0           0
           0 -2000000000           1           0           0           0
           0           0         131          52           0           0
           0           0           5           0           0           0
           0           0           0           0           0           1
           0           0           0           0           0           0
           0           0           0           0           0           0
           0           0           0           0           0           0
           0           0           0           0           0           0
           0           0           0           0
Num RLSW                                   I               52
RLSW                                       R   N=          52
  8.00000000E-01  7.20000000E-01  1.00000000E+00  8.10000000E-01  2.00000000E-01
  0.00000000E+00  0.00000000E+00  1.00000000E+00  0.00000000E+00  0.00000000E+00
  0.00000000E+00  0.00000000E+00  1.00000000E+00  0.00000000E+00  0.00000000E+00
  0.00000000E+00  0.00000000E+00  1.00000000E+00  0.00000000E+00  0.00000000E+00
  0.00000000E+00  0.00000000E+00  1.00000000E+00  0.00000000E+00  0.00000000E+00
  0.00000000E+00  0.00000000E+00  1.00000000E+00  0.00000000E+00  0.00000000E+00
  0.00000000E+00  0.00000000E+00  1.00000000E+00  0.00000000E+00  0.00000000E+00
  0.00000000E+00  0.00000000E+00  0.00000000E+00  1.00000000E+00  1.00000000E+00
  0.00000000E+00  1.00000000E+00  0.00000000E+00  0.00000000E+00  0.00000000E+00
  0.00000000E+00  0.00000000E+00  0.00000000E+00  0.00000000E+00  0.00000000E+00
  0.00000000E+00  0.00000000E+00
MxBond                                     I                1
NBond                                      I   N=           1
           0
IBond                                      I   N=           1
           0
RBond                                      R   N=           1
  0.00000000E+00
Virial Ratio                               R      2.004494033779396E+00
SCF Energy                                 R     -1.289662859463874E+02
Total Energy                               R     -1.289662859463874E+02
RMS Density                                R      1.137879719182037E-09
Job Status                                 I                1
Nuclear derivative order                   I                0
External E-field                           R   N=          35
  0.00000000E+00  0.00000000E+00  0.00000000E+00  0.00000000E+00  0.00000000E+00
  0.00000000E+00  0.00000000E+00  0.00000000E+00  0.00000000E+00  0.00000000E+00
  0.00000000E+00  0.00000000E+00  0.00000000E+00  0.00000000E+00  0.00000000E+00
  0.00000000E+00  0.00000000E+00  0.00000000E+00  0.00000000E+00  0.00000000E+00
  0.00000000E+00  0.00000000E+00  0.00000000E+00  0.00000000E+00  0.00000000E+00
  0.00000000E+00  0.00000000E+00  0.00000000E+00  0.00000000E+00  0.00000000E+00
  0.00000000E+00  0.00000000E+00  0.00000000E+00  0.00000000E+00  0.00000000E+00
IOpCl                                      I                0
IROHF                                      I                0
Alpha Orbital Energies                     R   N=          46
 -3.09781298E+01 -1.46226133E+00 -5.75613495E-01 -5.75613495E-01 -5.75613495E-01
  1.17671985E-01  1.56564707E-01  1.56564707E-01  1.56564707E-01  9.32239072E-01
  9.32239072E-01  9.32239072E-01  9.32239072E-01  9.32239072E-01  1.10854762E+00
  1.10854762E+00  1.10854762E+00  1.68807320E+00  3.24318027E+00  3.24318027E+00
  3.24318027E+00  3.24318027E+00  3.24318027E+00  3.83393500E+00  3.83393500E+00
  3.83393500E+00  3.83393500E+00  3.83393500E+00  3.83393500E+00  3.83393500E+00
  5.70816112E+00  5.70816112E+00  5.70816112E+00  1.11023806E+01  1.11023806E+01
  1.11023806E+01  1.11023806E+01  1.11023806E+01  1.13489130E+01  1.13489130E+01
  1.13489130E+01  1.13489130E+01  1.13489130E+01  1.13489130E+01  1.13489130E+01
  1.20978973E+01
Alpha MO coefficients                      R   N=        2116
  9.73275559E-01 -1.11356978E-02  5.00402938E-02  3.74672431E-03 -8.48524223E-04
  0.00000000E+00  0.00000000E+00  0.00000000E+00  0.00000000E+00  0.00000000E+00
  0.00000000E+00  0.00000000E+00  0.00000000E+00  0.00000000E+00  0.00000000E+00
  0.00000000E+00  0.00000000E+00  2.80987185E-16  0.00000000E+00  0.00000000E+00
 -1.42140977E-16  0.00000000E+00 -3.88767563E-16  0.00000000E+00  0.00000000E+00
  7.79099501E-18  0.00000000E+00  1.80217551E-16  0.00000000E+00  0.00000000E+00
  4.42284655E-17  0.00000000E+00  0.00000000E+00  0.00000000E+00  0.00000000E+00
  0.00000000E+00  0.00000000E+00  0.00000000E+00  0.00000000E+00  0.00000000E+00
  0.00000000E+00  0.00000000E+00  0.00000000E+00  0.00000000E+00  0.00000000E+00
  0.00000000E+00 -2.33979060E-01  5.51527746E-01  1.83277750E-01  3.66371646E-01
  1.33456772E-02  0.00000000E+00  0.00000000E+00  0.00000000E+00  0.00000000E+00
  0.00000000E+00  0.00000000E+00  0.00000000E+00  0.00000000E+00  0.00000000E+00
  0.00000000E+00  0.00000000E+00  0.00000000E+00  5.42354366E-17  0.00000000E+00
  0.00000000E+00  1.18615267E-17  0.00000000E+00  4.93219699E-16  0.00000000E+00
  0.00000000E+00  3.11377579E-16  0.00000000E+00 -4.42070604E-16  0.00000000E+00
  0.00000000E+00 -2.43371297E-16  0.00000000E+00  0.00000000E+00  0.00000000E+00
  0.00000000E+00  0.00000000E+00  0.00000000E+00  0.00000000E+00  0.00000000E+00
  0.00000000E+00  0.00000000E+00  0.00000000E+00  0.00000000E+00  0.00000000E+00
  0.00000000E+00  0.00000000E+00  0.00000000E+00  0.00000000E+00  0.00000000E+00
  0.00000000E+00  0.00000000E+00  4.13621327E-01  0.00000000E+00  0.00000000E+00
  4.69896425E-01  0.00000000E+00  0.00000000E+00  3.25265555E-01  0.00000000E+00
  0.00000000E+00  3.84690151E-02  0.00000000E+00  0.00000000E+00  0.00000000E+00
  0.00000000E+00  0.00000000E+00  0.00000000E+00  0.00000000E+00  0.00000000E+00
  0.00000000E+00  0.00000000E+00  0.00000000E+00  0.00000000E+00  0.00000000E+00
  0.00000000E+00  0.00000000E+00  0.00000000E+00  0.00000000E+00  0.00000000E+00
  1.96398052E-12  0.00000000E+00  0.00000000E+00  0.00000000E+00 -2.53589396E-12
  0.00000000E+00  0.00000000E+00  3.19259621E-12  0.00000000E+00  0.00000000E+00
  0.00000000E+00 -4.12152537E-12  0.00000000E+00  0.00000000E+00  0.00000000E+00
  0.00000000E+00  0.00000000E+00  0.00000000E+00  0.00000000E+00  4.13621327E-01
  0.00000000E+00  0.00000000E+00  4.69896425E-01  0.00000000E+00  0.00000000E+00
  3.25265555E-01  0.00000000E+00  0.00000000E+00  3.84690151E-02  0.00000000E+00
  0.00000000E+00  0.00000000E+00  0.00000000E+00  0.00000000E+00  0.00000000E+00
  0.00000000E+00  0.00000000E+00  0.00000000E+00  0.00000000E+00  0.00000000E+00
  0.00000000E+00  0.00000000E+00  0.00000000E+00  0.00000000E+00  0.00000000E+00
  0.00000000E+00  0.00000000E+00  1.96417097E-12  0.00000000E+00  0.00000000E+00
  0.00000000E+00  2.53594484E-12  0.00000000E+00  0.00000000E+00  3.19253421E-12
  0.00000000E+00  0.00000000E+00  0.00000000E+00  4.12154962E-12  0.00000000E+00
  0.00000000E+00  0.00000000E+00  0.00000000E+00  0.00000000E+00  0.00000000E+00
  0.00000000E+00  4.13621327E-01  0.00000000E+00  0.00000000E+00  4.69896425E-01
  0.00000000E+00  0.00000000E+00  3.25265555E-01  0.00000000E+00  0.00000000E+00
  3.84690151E-02  0.00000000E+00  0.00000000E+00  0.00000000E+00  0.00000000E+00
  0.00000000E+00  0.00000000E+00  0.00000000E+00  0.00000000E+00  0.00000000E+00
  0.00000000E+00  0.00000000E+00  0.00000000E+00  0.00000000E+00  0.00000000E+00
  0.00000000E+00 -3.20766267E-12  0.00000000E+00  0.00000000E+00  2.64441894E-17
  0.00000000E+00  0.00000000E+00  0.00000000E+00 -5.21309466E-12  0.00000000E+00
  0.00000000E+00 -2.07841584E-17  0.00000000E+00  0.00000000E+00  0.00000000E+00
  7.77055818E-02 -1.03698994E-01 -6.68733792E-02 -7.77098291E-01  1.45731525E+00
  0.00000000E+00  0.00000000E+00  0.00000000E+00  0.00000000E+00  0.00000000E+00
  0.00000000E+00  0.00000000E+00  0.00000000E+00  0.00000000E+00  0.00000000E+00
  0.00000000E+00  0.00000000E+00  2.72027400E-17  0.00000000E+00  0.00000000E+00
  9.31002320E-17  0.00000000E+00 -1.02896218E-15  0.00000000E+00  0.00000000E+00
 -3.77856912E-16  0.00000000E+00  1.81726092E-16  0.00000000E+00  0.00000000E+00
 -8.26503851E-16  0.00000000E+00  0.00000000E+00  0.00000000E+00  0.00000000E+00
  0.00000000E+00  0.00000000E+00  0.00000000E+00  0.00000000E+00  0.00000000E+00
  0.00000000E+00  0.00000000E+00  0.00000000E+00  0.00000000E+00  0.00000000E+00
  0.00000000E+00  0.00000000E+00  0.00000000E+00  0.00000000E+00  0.00000000E+00
  0.00000000E+00 -1.22903184E-01  0.00000000E+00  0.00000000E+00 -1.03880653E-01
  0.00000000E+00  0.00000000E+00 -2.88636146E-01  0.00000000E+00  0.00000000E+00
  1.13524033E+00  0.00000000E+00  0.00000000E+00  0.00000000E+00  0.00000000E+00
  0.00000000E+00  0.00000000E+00  0.00000000E+00  0.00000000E+00  0.00000000E+00
  0.00000000E+00  0.00000000E+00  0.00000000E+00  0.00000000E+00  0.00000000E+00
  0.00000000E+00  0.00000000E+00  0.00000000E+00  0.00000000E+00 -7.46980566E-13
  0.00000000E+00  0.00000000E+00  0.00000000E+00  9.64267892E-13  0.00000000E+00
  0.00000000E+00  1.70636908E-13  0.00000000E+00  0.00000000E+00  0.00000000E+00
 -2.19995925E-13  0.00000000E+00  0.00000000E+00  0.00000000E+00  0.00000000E+00
  0.00000000E+00  0.00000000E+00  0.00000000E+00 -1.22903184E-01  0.00000000E+00
  0.00000000E+00 -1.03880653E-01  0.00000000E+00  0.00000000E+00 -2.88636146E-01
  0.00000000E+00  0.00000000E+00  1.13524033E+00  0.00000000E+00  0.00000000E+00
  0.00000000E+00  0.00000000E+00  0.00000000E+00  0.00000000E+00  0.00000000E+00
  0.00000000E+00  0.00000000E+00  0.00000000E+00  0.00000000E+00  0.00000000E+00
  0.00000000E+00  0.00000000E+00  0.00000000E+00  0.00000000E+00  0.00000000E+00
  0.00000000E+00 -7.46971992E-13  0.00000000E+00  0.00000000E+00  0.00000000E+00
 -9.64284299E-13  0.00000000E+00  0.00000000E+00  1.70498845E-13  0.00000000E+00
  0.00000000E+00  0.00000000E+00  2.19967822E-13  0.00000000E+00  0.00000000E+00
  0.00000000E+00  0.00000000E+00  0.00000000E+00  0.00000000E+00  0.00000000E+00
 -1.22903184E-01  0.00000000E+00  0.00000000E+00 -1.03880653E-01  0.00000000E+00
  0.00000000E+00 -2.88636146E-01  0.00000000E+00  0.00000000E+00  1.13524033E+00
  0.00000000E+00  0.00000000E+00  0.00000000E+00  0.00000000E+00  0.00000000E+00
  0.00000000E+00  0.00000000E+00  0.00000000E+00  0.00000000E+00  0.00000000E+00
  0.00000000E+00  0.00000000E+00  0.00000000E+00  0.00000000E+00  0.00000000E+00
  1.21994732E-12  0.00000000E+00  0.00000000E+00  1.18738558E-17  0.00000000E+00
  0.00000000E+00  0.00000000E+00 -2.78723799E-13  0.00000000E+00  0.00000000E+00
  2.08734263E-16  0.00000000E+00  0.00000000E+00  0.00000000E+00  0.00000000E+00
  0.00000000E+00  0.00000000E+00  0.00000000E+00  0.00000000E+00  0.00000000E+00
  0.00000000E+00  0.00000000E+00  0.00000000E+00  0.00000000E+00  0.00000000E+00
  0.00000000E+00  0.00000000E+00  0.00000000E+00  0.00000000E+00  0.00000000E+00
  0.00000000E+00  0.00000000E+00  0.00000000E+00  0.00000000E+00  0.00000000E+00
  4.05230970E-02  0.00000000E+00  0.00000000E+00  0.00000000E+00  0.00000000E+00
 -1.06577529E-01  0.00000000E+00  0.00000000E+00  0.00000000E+00  0.00000000E+00
  1.05959337E+00  0.00000000E+00  0.00000000E+00  0.00000000E+00  0.00000000E+00
  0.00000000E+00  0.00000000E+00  0.00000000E+00  0.00000000E+00  0.00000000E+00
  0.00000000E+00  0.00000000E+00  0.00000000E+00  0.00000000E+00  0.00000000E+00
  0.00000000E+00  0.00000000E+00  0.00000000E+00  0.00000000E+00  0.00000000E+00
  0.00000000E+00  0.00000000E+00  0.00000000E+00  0.00000000E+00  0.00000000E+00
  0.00000000E+00  0.00000000E+00  0.00000000E+00  0.00000000E+00  0.00000000E+00
  0.00000000E+00  0.00000000E+00  0.00000000E+00  4.05230970E-02  0.00000000E+00
  0.00000000E+00  0.00000000E+00  0.00000000E+00 -1.06577529E-01  0.00000000E+00
  0.00000000E+00  0.00000000E+00  0.00000000E+00  1.05959337E+00  0.00000000E+00
  0.00000000E+00  0.00000000E+00  0.00000000E+00  0.00000000E+00  0.00000000E+00
  0.00000000E+00  0.00000000E+00  0.00000000E+00  0.00000000E+00  0.00000000E+00
  0.00000000E+00  0.00000000E+00  0.00000000E+00  0.00000000E+00  0.00000000E+00
  0.00000000E+00  0.00000000E+00  0.00000000E+00  0.00000000E+00  0.00000000E+00
  0.00000000E+00  0.00000000E+00  0.00000000E+00  0.00000000E+00  0.00000000E+00
  0.00000000E+00  0.00000000E+00  0.00000000E+00  0.00000000E+00  0.00000000E+00
  0.00000000E+00  0.00000000E+00  0.00000000E+00  0.00000000E+00  0.00000000E+00
  4.05230970E-02  0.00000000E+00  0.00000000E+00  0.00000000E+00  0.00000000E+00
 -1.06577529E-01  0.00000000E+00  0.00000000E+00  0.00000000E+00  0.00000000E+00
  1.05959337E+00  0.00000000E+00  0.00000000E+00  0.00000000E+00  0.00000000E+00
  0.00000000E+00  0.00000000E+00  0.00000000E+00  0.00000000E+00  0.00000000E+00
  0.00000000E+00  0.00000000E+00  0.00000000E+00  0.00000000E+00  0.00000000E+00
  0.00000000E+00  0.00000000E+00 -1.60485637E-16 -2.75114572E-15 -1.09839539E-16
  3.99855596E-15 -1.22559505E-15  0.00000000E+00  0.00000000E+00  0.00000000E+00
  0.00000000E+00  0.00000000E+00  0.00000000E+00  0.00000000E+00  0.00000000E+00
  0.00000000E+00  0.00000000E+00  0.00000000E+00  0.00000000E+00  4.00577835E-02
  0.00000000E+00  0.00000000E+00 -6.12334686E-03  0.00000000E+00 -1.05353734E-01
  0.00000000E+00  0.00000000E+00  1.61046718E-02  0.00000000E+00  1.04742640E+00
  0.00000000E+00  0.00000000E+00 -1.60112583E-01  0.00000000E+00  0.00000000E+00
  0.00000000E+00  0.00000000E+00  0.00000000E+00  0.00000000E+00  0.00000000E+00
  0.00000000E+00  0.00000000E+00  0.00000000E+00  0.00000000E+00  0.00000000E+00
  0.00000000E+00  0.00000000E+00  0.00000000E+00  1.05968929E-16 -1.31033264E-15
 -3.25418735E-16  1.05613200E-15  1.04707808E-15  0.00000000E+00  0.00000000E+00
  0.00000000E+00  0.00000000E+00  0.00000000E+00  0.00000000E+00  0.00000000E+00
  0.00000000E+00  0.00000000E+00  0.00000000E+00  0.00000000E+00  0.00000000E+00
  6.12334686E-03  0.00000000E+00  0.00000000E+00  4.00577835E-02  0.00000000E+00
 -1.61046718E-02  0.00000000E+00  0.00000000E+00 -1.05353734E-01  0.00000000E+00
  1.60112583E-01  0.00000000E+00  0.00000000E+00  1.04742640E+00  0.00000000E+00
  0.00000000E+00  0.00000000E+00  0.00000000E+00  0.00000000E+00  0.00000000E+00
  0.00000000E+00  0.00000000E+00  0.00000000E+00  0.00000000E+00  0.00000000E+00
  0.00000000E+00  0.00000000E+00  0.00000000E+00  0.00000000E+00  0.00000000E+00
  0.00000000E+00  0.00000000E+00  0.00000000E+00  0.00000000E+00 -2.85529521E-01
  0.00000000E+00  0.00000000E+00 -7.02766053E-01  0.00000000E+00  0.00000000E+00
  1.52939949E+00  0.00000000E+00  0.00000000E+00 -6.91269426E-01  0.00000000E+00
  0.00000000E+00  0.00000000E+00  0.00000000E+00  0.00000000E+00  0.00000000E+00
  0.00000000E+00  0.00000000E+00  0.00000000E+00  0.00000000E+00  0.00000000E+00
  0.00000000E+00  0.00000000E+00  0.00000000E+00  0.00000000E+00  0.00000000E+00
  0.00000000E+00  0.00000000E+00 -2.58940267E-12  0.00000000E+00  0.00000000E+00
  0.00000000E+00  3.34284270E-12  0.00000000E+00  0.00000000E+00  4.40245536E-12
  0.00000000E+00  0.00000000E+00  0.00000000E+00 -5.68275278E-12  0.00000000E+00
  0.00000000E+00  0.00000000E+00  0.00000000E+00  0.00000000E+00  0.00000000E+00
  0.00000000E+00  0.00000000E+00 -2.85529521E-01  0.00000000E+00  0.00000000E+00
 -7.02766053E-01  0.00000000E+00  0.00000000E+00  1.52939949E+00  0.00000000E+00
  0.00000000E+00 -6.91269426E-01  0.00000000E+00  0.00000000E+00  0.00000000E+00
  0.00000000E+00  0.00000000E+00  0.00000000E+00  0.00000000E+00  0.00000000E+00
  0.00000000E+00  0.00000000E+00  0.00000000E+00  0.00000000E+00  0.00000000E+00
  0.00000000E+00  0.00000000E+00  4.22900608E-12  0.00000000E+00  0.00000000E+00
  8.02033707E-16  0.00000000E+00  0.00000000E+00  0.00000000E+00 -7.18896500E-12
  0.00000000E+00  0.00000000E+00 -1.03619959E-15  0.00000000E+00  0.00000000E+00
  0.00000000E+00  0.00000000E+00  0.00000000E+00  0.00000000E+00  0.00000000E+00
  0.00000000E+00  0.00000000E+00 -2.85529521E-01  0.00000000E+00  0.00000000E+00
 -7.02766053E-01  0.00000000E+00  0.00000000E+00  1.52939949E+00  0.00000000E+00
  0.00000000E+00 -6.91269426E-01  0.00000000E+00  0.00000000E+00  0.00000000E+00
  0.00000000E+00  0.00000000E+00  0.00000000E+00  0.00000000E+00  0.00000000E+00
  0.00000000E+00  0.00000000E+00  0.00000000E+00  0.00000000E+00  0.00000000E+00
  0.00000000E+00  0.00000000E+00  0.00000000E+00  0.00000000E+00  0.00000000E+00
 -2.58978928E-12  0.00000000E+00  0.00000000E+00  0.00000000E+00 -3.34336912E-12
  0.00000000E+00  0.00000000E+00  4.40311852E-12  0.00000000E+00  0.00000000E+00
  0.00000000E+00  5.68421569E-12  4.47280194E-02 -1.47230856E+00 -3.62105794E-01
  2.57366947E+00 -1.07680458E+00  0.00000000E+00  0.00000000E+00  0.00000000E+00
  0.00000000E+00  0.00000000E+00  0.00000000E+00  0.00000000E+00  0.00000000E+00
  0.00000000E+00  0.00000000E+00  0.00000000E+00  0.00000000E+00 -6.92399159E-16
  0.00000000E+00  0.00000000E+00 -2.62948090E-16  0.00000000E+00 -3.25168497E-16
  0.00000000E+00  0.00000000E+00 -1.20308038E-15  0.00000000E+00 -1.54603076E-15
  0.00000000E+00  0.00000000E+00  9.06609650E-17  0.00000000E+00  0.00000000E+00
  0.00000000E+00  0.00000000E+00  0.00000000E+00  0.00000000E+00  0.00000000E+00
  0.00000000E+00  0.00000000E+00  0.00000000E+00  0.00000000E+00  0.00000000E+00
  0.00000000E+00  0.00000000E+00  0.00000000E+00  0.00000000E+00  0.00000000E+00
  0.00000000E+00  0.00000000E+00  0.00000000E+00  0.00000000E+00  0.00000000E+00
  0.00000000E+00  0.00000000E+00  0.00000000E+00  0.00000000E+00  0.00000000E+00
  0.00000000E+00  0.00000000E+00  0.00000000E+00  0.00000000E+00  0.00000000E+00
  0.00000000E+00  0.00000000E+00  0.00000000E+00  0.00000000E+00  1.85609964E-02
  0.00000000E+00  0.00000000E+00  0.00000000E+00  0.00000000E+00  1.27722207E+00
  0.00000000E+00  0.00000000E+00  0.00000000E+00  0.00000000E+00 -7.51584200E-01
  0.00000000E+00  0.00000000E+00  0.00000000E+00  0.00000000E+00  0.00000000E+00
  0.00000000E+00  0.00000000E+00  0.00000000E+00  0.00000000E+00  0.00000000E+00
  0.00000000E+00  0.00000000E+00  0.00000000E+00  0.00000000E+00  0.00000000E+00
  0.00000000E+00  0.00000000E+00  0.00000000E+00  0.00000000E+00  0.00000000E+00
  0.00000000E+00  0.00000000E+00  0.00000000E+00  0.00000000E+00  0.00000000E+00
  0.00000000E+00  0.00000000E+00  0.00000000E+00  0.00000000E+00  0.00000000E+00
  0.00000000E+00  0.00000000E+00  0.00000000E+00  1.85609964E-02  0.00000000E+00
  0.00000000E+00  0.00000000E+00  0.00000000E+00  1.27722207E+00  0.00000000E+00
  0.00000000E+00  0.00000000E+00  0.00000000E+00 -7.51584200E-01  0.00000000E+00
  0.00000000E+00  0.00000000E+00  0.00000000E+00  0.00000000E+00  0.00000000E+00
  0.00000000E+00  0.00000000E+00  0.00000000E+00  0.00000000E+00  0.00000000E+00
  0.00000000E+00  0.00000000E+00  0.00000000E+00  0.00000000E+00  0.00000000E+00
  0.00000000E+00  0.00000000E+00  0.00000000E+00  0.00000000E+00  0.00000000E+00
  0.00000000E+00  0.00000000E+00  0.00000000E+00  0.00000000E+00  0.00000000E+00
  0.00000000E+00  0.00000000E+00  0.00000000E+00  0.00000000E+00  0.00000000E+00
  0.00000000E+00  0.00000000E+00  0.00000000E+00  1.85609964E-02  0.00000000E+00
  0.00000000E+00  0.00000000E+00  0.00000000E+00  1.27722207E+00  0.00000000E+00
  0.00000000E+00  0.00000000E+00  0.00000000E+00 -7.51584200E-01  0.00000000E+00
  0.00000000E+00  0.00000000E+00  0.00000000E+00  0.00000000E+00  0.00000000E+00
  0.00000000E+00  0.00000000E+00  0.00000000E+00  0.00000000E+00  0.00000000E+00
  0.00000000E+00  0.00000000E+00  0.00000000E+00  0.00000000E+00  0.00000000E+00
  0.00000000E+00 -3.07791806E-16 -2.06869084E-15  7.98817172E-16  9.60606066E-17
  1.32708619E-15  0.00000000E+00  0.00000000E+00  0.00000000E+00  0.00000000E+00
  0.00000000E+00  0.00000000E+00  0.00000000E+00  0.00000000E+00  0.00000000E+00
  0.00000000E+00  0.00000000E+00  0.00000000E+00  1.73003996E-02  0.00000000E+00
  0.00000000E+00 -6.72359740E-03  0.00000000E+00  1.19047769E+00  0.00000000E+00
  0.00000000E+00 -4.62665194E-01  0.00000000E+00 -7.00539275E-01  0.00000000E+00
  0.00000000E+00  2.72256374E-01  0.00000000E+00  0.00000000E+00  0.00000000E+00
  0.00000000E+00  0.00000000E+00  0.00000000E+00  0.00000000E+00  0.00000000E+00
  0.00000000E+00  0.00000000E+00  0.00000000E+00  0.00000000E+00  0.00000000E+00
  0.00000000E+00  0.00000000E+00  8.79009841E-16 -7.29115062E-16 -1.83851596E-15
  1.37715312E-15  1.52752357E-16  0.00000000E+00  0.00000000E+00  0.00000000E+00
  0.00000000E+00  0.00000000E+00  0.00000000E+00  0.00000000E+00  0.00000000E+00
  0.00000000E+00  0.00000000E+00  0.00000000E+00  0.00000000E+00  6.72359740E-03
  0.00000000E+00  0.00000000E+00  1.73003996E-02  0.00000000E+00  4.62665194E-01
  0.00000000E+00  0.00000000E+00  1.19047769E+00  0.00000000E+00 -2.72256374E-01
  0.00000000E+00  0.00000000E+00 -7.00539275E-01  0.00000000E+00  0.00000000E+00
  0.00000000E+00  0.00000000E+00  0.00000000E+00  0.00000000E+00  0.00000000E+00
  0.00000000E+00  0.00000000E+00  0.00000000E+00  0.00000000E+00  0.00000000E+00
  0.00000000E+00  0.00000000E+00  0.00000000E+00  0.00000000E+00  0.00000000E+00
  0.00000000E+00  0.00000000E+00  0.00000000E+00  0.00000000E+00  0.00000000E+00
 -9.02564331E-16  0.00000000E+00  0.00000000E+00  4.74843322E-16  0.00000000E+00
  0.00000000E+00  2.51350382E-16  0.00000000E+00  0.00000000E+00 -2.16516730E-16
  0.00000000E+00  0.00000000E+00  0.00000000E+00  0.00000000E+00  0.00000000E+00
  0.00000000E+00  0.00000000E+00  0.00000000E+00  0.00000000E+00  0.00000000E+00
  0.00000000E+00  0.00000000E+00  0.00000000E+00  0.00000000E+00  0.00000000E+00
  2.45755889E-06  0.00000000E+00  0.00000000E+00 -1.98253267E-01  0.00000000E+00
  0.00000000E+00  0.00000000E+00 -1.39131768E-05  0.00000000E+00  0.00000000E+00
  1.12238724E+00  0.00000000E+00  0.00000000E+00  0.00000000E+00  0.00000000E+00
  0.00000000E+00  0.00000000E+00  0.00000000E+00  0.00000000E+00  0.00000000E+00
  1.04608690E-15  0.00000000E+00  0.00000000E+00 -1.23011156E-15  0.00000000E+00
  0.00000000E+00  1.47125826E-15  0.00000000E+00  0.00000000E+00 -7.83072475E-16
  0.00000000E+00  0.00000000E+00  0.00000000E+00  0.00000000E+00  0.00000000E+00
  0.00000000E+00  0.00000000E+00  0.00000000E+00  0.00000000E+00  0.00000000E+00
  0.00000000E+00  0.00000000E+00  0.00000000E+00  0.00000000E+00  0.00000000E+00
  0.00000000E+00  0.00000000E+00  0.00000000E+00 -1.56731969E-01  0.00000000E+00
  0.00000000E+00  0.00000000E+00  1.21406127E-01  0.00000000E+00  0.00000000E+00
  8.87319364E-01  0.00000000E+00  0.00000000E+00  0.00000000E+00 -6.87326321E-01
  0.00000000E+00  0.00000000E+00  0.00000000E+00  0.00000000E+00  0.00000000E+00
 -1.40170464E-15  0.00000000E+00  0.00000000E+00  3.02542772E-15  0.00000000E+00
  0.00000000E+00 -2.37762409E-15  0.00000000E+00  0.00000000E+00  5.32926590E-16
  0.00000000E+00  0.00000000E+00  0.00000000E+00  0.00000000E+00  0.00000000E+00
  0.00000000E+00  0.00000000E+00  0.00000000E+00  0.00000000E+00  0.00000000E+00
  0.00000000E+00  0.00000000E+00  0.00000000E+00  0.00000000E+00  0.00000000E+00
  0.00000000E+00  0.00000000E+00  0.00000000E+00 -1.56734695E-01  0.00000000E+00