 Entering Gaussian System, Link 0=g16
 Input=Ne.com
 Output=Ne.log
 Initial command:
 /usr/site/hpc/x86_64/glibc-2.17/broadwell/gaussian/g16_a.03/pgi-16.5/g16/l1.exe "/home/c744/c7441090/data/Gau-3859772.inp" -scrdir="/home/c744/c7441090/data/"
 Entering Link 1 = /usr/site/hpc/x86_64/glibc-2.17/broadwell/gaussian/g16_a.03/pgi-16.5/g16/l1.exe PID=   3859773.
  
 Copyright (c) 1988,1990,1992,1993,1995,1998,2003,2009,2016,
            Gaussian, Inc.  All Rights Reserved.
  
 This is part of the Gaussian(R) 16 program.  It is based on
 the Gaussian(R) 09 system (copyright 2009, Gaussian, Inc.),
 the Gaussian(R) 03 system (copyright 2003, Gaussian, Inc.),
 the Gaussian(R) 98 system (copyright 1998, Gaussian, Inc.),
 the Gaussian(R) 94 system (copyright 1995, Gaussian, Inc.),
 the Gaussian 92(TM) system (copyright 1992, Gaussian, Inc.),
 the Gaussian 90(TM) system (copyright 1990, Gaussian, Inc.),
 the Gaussian 88(TM) system (copyright 1988, Gaussian, Inc.),
 the Gaussian 86(TM) system (copyright 1986, Carnegie Mellon
 University), and the Gaussian 82(TM) system (copyright 1983,
 Carnegie Mellon University). Gaussian is a federally registered
 trademark of Gaussian, Inc.
  
 This software contains proprietary and confidential information,
 including trade secrets, belonging to Gaussian, Inc.
  
 This software is provided under written license and may be
 used, copied, transmitted, or stored only in accord with that
 written license.
  
 The following legend is applicable only to US Government
 contracts under FAR:
  
                    RESTRICTED RIGHTS LEGEND
  
 Use, reproduction and disclosure by the US Government is
 subject to restrictions as set forth in subparagraphs (a)
 and (c) of the Commercial Computer Software - Restricted
 Rights clause in FAR 52.227-19.
  
 Gaussian, Inc.
 340 Quinnipiac St., Bldg. 40, Wallingford CT 06492
  
  
 ---------------------------------------------------------------
 Warning -- This program may not be used in any manner that
 competes with the business of Gaussian, Inc. or will provide
 assistance to any competitor of Gaussian, Inc.  The licensee
 of this program is prohibited from giving any competitor of
 Gaussian, Inc. access to this program.  By using this program,
 the user acknowledges that Gaussian, Inc. is engaged in the
 business of creating and licensing software in the field of
 computational chemistry and represents and warrants to the
 licensee that it is not a competitor of Gaussian, Inc. and that
 it will not use this program in any manner prohibited above.
 ---------------------------------------------------------------
  

 Cite this work as:
 Gaussian 16, Revision A.03,
 M. J. Frisch, G. W. Trucks, H. B. Schlegel, G. E. Scuseria, 
 M. A. Robb, J. R. Cheeseman, G. Scalmani, V. Barone, 
 G. A. Petersson, H. Nakatsuji, X. Li, M. Caricato, A. V. Marenich, 
 J. Bloino, B. G. Janesko, R. Gomperts, B. Mennucci, H. P. Hratchian, 
 J. V. Ortiz, A. F. Izmaylov, J. L. Sonnenberg, D. Williams-Young, 
 F. Ding, F. Lipparini, F. Egidi, J. Goings, B. Peng, A. Petrone, 
 T. Henderson, D. Ranasinghe, V. G. Zakrzewski, J. Gao, N. Rega, 
 G. Zheng, W. Liang, M. Hada, M. Ehara, K. Toyota, R. Fukuda, 
 J. Hasegawa, M. Ishida, T. Nakajima, Y. Honda, O. Kitao, H. Nakai, 
 T. Vreven, K. Throssell, J. A. Montgomery, Jr., J. E. Peralta, 
 F. Ogliaro, M. J. Bearpark, J. J. Heyd, E. N. Brothers, K. N. Kudin, 
 V. N. Staroverov, T. A. Keith, R. Kobayashi, J. Normand, 
 K. Raghavachari, A. P. Rendell, J. C. Burant, S. S. Iyengar, 
 J. Tomasi, M. Cossi, J. M. Millam, M. Klene, C. Adamo, R. Cammi, 
 J. W. Ochterski, R. L. Martin, K. Morokuma, O. Farkas, 
 J. B. Foresman, and D. J. Fox, Gaussian, Inc., Wallingford CT, 2016.
 
 ******************************************
 Gaussian 16:  ES64L-G16RevA.03 25-Dec-2016
                20-Nov-2023 
 ******************************************
 %NProcShared=4
 Will use up to    4 processors via shared memory.
 %Mem=1GB
 %Chk=Ne.chk
 ----------------------------------------------------
 # B3LYP/aug-cc-pVTZ EmpiricalDispersion=GD3 Pop=Full
 ----------------------------------------------------
 1/38=1,172=1/1;
 2/12=2,17=6,18=5,40=1/2;
 3/5=16,6=1,7=10,11=2,25=1,30=1,74=-5,124=31/1,2,3;
 4//1;
 5/5=2,38=5/2;
 6/7=3,28=1/1;
 99/5=1,9=1/99;
 ----
 Neon
 ----
 Symbolic Z-matrix:
 Charge =  0 Multiplicity = 1
 Ne                    0.        0.        0. 
 
                          Input orientation:                          
 ---------------------------------------------------------------------
 Center     Atomic      Atomic             Coordinates (Angstroms)
 Number     Number       Type             X           Y           Z
 ---------------------------------------------------------------------
      1         10           0        0.000000    0.000000    0.000000
 ---------------------------------------------------------------------
 Stoichiometry    Ne
 Framework group  OH[O(Ne)]
 Deg. of freedom     0
 Full point group                 OH      NOp  48
 Largest Abelian subgroup         D2H     NOp   8
 Largest concise Abelian subgroup C1      NOp   1
                         Standard orientation:                         
 ---------------------------------------------------------------------
 Center     Atomic      Atomic             Coordinates (Angstroms)
 Number     Number       Type             X           Y           Z
 ---------------------------------------------------------------------
      1         10           0        0.000000    0.000000    0.000000
 ---------------------------------------------------------------------
 Standard basis: Aug-CC-pVTZ (5D, 7F)
 There are    14 symmetry adapted cartesian basis functions of AG  symmetry.
 There are     3 symmetry adapted cartesian basis functions of B1G symmetry.
 There are     3 symmetry adapted cartesian basis functions of B2G symmetry.
 There are     3 symmetry adapted cartesian basis functions of B3G symmetry.
 There are     2 symmetry adapted cartesian basis functions of AU  symmetry.
 There are    10 symmetry adapted cartesian basis functions of B1U symmetry.
 There are    10 symmetry adapted cartesian basis functions of B2U symmetry.
 There are    10 symmetry adapted cartesian basis functions of B3U symmetry.
 There are    11 symmetry adapted basis functions of AG  symmetry.
 There are     3 symmetry adapted basis functions of B1G symmetry.
 There are     3 symmetry adapted basis functions of B2G symmetry.
 There are     3 symmetry adapted basis functions of B3G symmetry.
 There are     2 symmetry adapted basis functions of AU  symmetry.
 There are     8 symmetry adapted basis functions of B1U symmetry.
 There are     8 symmetry adapted basis functions of B2U symmetry.
 There are     8 symmetry adapted basis functions of B3U symmetry.
    46 basis functions,    72 primitive gaussians,    55 cartesian basis functions
     5 alpha electrons        5 beta electrons
       nuclear repulsion energy         0.0000000000 Hartrees.
 NAtoms=    1 NActive=    1 NUniq=    1 SFac= 1.00D+00 NAtFMM=   60 NAOKFM=F Big=F
 Integral buffers will be    131072 words long.
 Raffenetti 2 integral format.
 Two-electron integral symmetry is turned on.
 Nuclear repulsion after empirical dispersion term =        0.0000000000 Hartrees.
 One-electron integrals computed using PRISM.
 NBasis=    46 RedAO= T EigKep=  3.53D-02  NBF=    11     3     3     3     2     8     8     8
 NBsUse=    46 1.00D-06 EigRej= -1.00D+00 NBFU=    11     3     3     3     2     8     8     8
 ExpMin= 9.17D-02 ExpMax= 2.44D+04 ExpMxC= 8.30D+02 IAcc=3 IRadAn=         5 AccDes= 0.00D+00
 Harris functional with IExCor=  402 and IRadAn=       5 diagonalized for initial guess.
 HarFok:  IExCor=  402 AccDes= 0.00D+00 IRadAn=         5 IDoV= 1 UseB2=F ITyADJ=14
 ICtDFT=  3500011 ScaDFX=  1.000000  1.000000  1.000000  1.000000
 FoFCou: FMM=F IPFlag=           0 FMFlag=      100000 FMFlg1=           0
         NFxFlg=           0 DoJE=T BraDBF=F KetDBF=T FulRan=T
         wScrn=  0.000000 ICntrl=       500 IOpCl=  0 I1Cent=   200000004 NGrid=           0
         NMat0=    1 NMatS0=      1 NMatT0=    0 NMatD0=    1 NMtDS0=    0 NMtDT0=    0
 Petite list used in FoFCou.
 Initial guess orbital symmetries:
       Occupied  (A1G) (A1G) (T1U) (T1U) (T1U)
       Virtual   (A1G) (T1U) (T1U) (T1U) (T2G) (T2G) (T2G) (EG)
                 (EG) (T1U) (T1U) (T1U) (A1G) (T2G) (T2G) (T2G)
                 (EG) (EG) (T2U) (T2U) (T2U) (A2U) (T1U) (T1U)
                 (T1U) (T1U) (T1U) (T1U) (T2G) (T2G) (T2G) (EG)
                 (EG) (T2U) (T2U) (T2U) (A2U) (T1U) (T1U) (T1U)
                 (A1G)
 The electronic state of the initial guess is 1-A1G.
 Keep R1 ints in memory in symmetry-blocked form, NReq=4095399.
 Requested convergence on RMS density matrix=1.00D-08 within 128 cycles.
 Requested convergence on MAX density matrix=1.00D-06.
 Requested convergence on             energy=1.00D-06.
 No special actions if energy rises.
 Integral accuracy reduced to 1.0D-05 until final iterations.
 Initial convergence to 1.0D-05 achieved.  Increase integral accuracy.
 SCF Done:  E(RB3LYP) =  -128.966285946     A.U. after    7 cycles
            NFock=  7  Conv=0.11D-08     -V/T= 2.0045

 **********************************************************************

            Population analysis using the SCF density.

 **********************************************************************

 Orbital symmetries:
       Occupied  (A1G) (A1G) (T1U) (T1U) (T1U)
       Virtual   (A1G) (T1U) (T1U) (T1U) (T2G) (T2G) (T2G) (EG)
                 (EG) (T1U) (T1U) (T1U) (A1G) (T2G) (T2G) (T2G)
                 (EG) (EG) (T2U) (T2U) (T2U) (A2U) (T1U) (T1U)
                 (T1U) (T1U) (T1U) (T1U) (T2G) (T2G) (T2G) (EG)
                 (EG) (T2U) (T2U) (T2U) (A2U) (T1U) (T1U) (T1U)
                 (A1G)
 The electronic state is 1-A1G.
 Alpha  occ. eigenvalues --  -30.97813  -1.46226  -0.57561  -0.57561  -0.57561
 Alpha virt. eigenvalues --    0.11767   0.15656   0.15656   0.15656   0.93224
 Alpha virt. eigenvalues --    0.93224   0.93224   0.93224   0.93224   1.10855
 Alpha virt. eigenvalues --    1.10855   1.10855   1.68807   3.24318   3.24318
 Alpha virt. eigenvalues --    3.24318   3.24318   3.24318   3.83394   3.83394
 Alpha virt. eigenvalues --    3.83394   3.83394   3.83394   3.83394   3.83394
 Alpha virt. eigenvalues --    5.70816   5.70816   5.70816  11.10238  11.10238
 Alpha virt. eigenvalues --   11.10238  11.10238  11.10238  11.34891  11.34891
 Alpha virt. eigenvalues --   11.34891  11.34891  11.34891  11.34891  11.34891
 Alpha virt. eigenvalues --   12.09790
     Molecular Orbital Coefficients:
                           1         2         3         4         5
                       (A1G)--O  (A1G)--O  (T1U)--O  (T1U)--O  (T1U)--O
     Eigenvalues --   -30.97813  -1.46226  -0.57561  -0.57561  -0.57561
   1 1   Ne 1S          0.97328  -0.23398   0.00000   0.00000   0.00000
   2        2S         -0.01114   0.55153   0.00000   0.00000   0.00000
   3        3S          0.05004   0.18328   0.00000   0.00000   0.00000
   4        4S          0.00375   0.36637   0.00000   0.00000   0.00000
   5        5S         -0.00085   0.01335   0.00000   0.00000   0.00000
   6        6PX         0.00000   0.00000   0.41362   0.00000   0.00000
   7        6PY         0.00000   0.00000   0.00000   0.41362   0.00000
   8        6PZ         0.00000   0.00000   0.00000   0.00000   0.41362
   9        7PX         0.00000   0.00000   0.46990   0.00000   0.00000
  10        7PY         0.00000   0.00000   0.00000   0.46990   0.00000
  11        7PZ         0.00000   0.00000   0.00000   0.00000   0.46990
  12        8PX         0.00000   0.00000   0.32527   0.00000   0.00000
  13        8PY         0.00000   0.00000   0.00000   0.32527   0.00000
  14        8PZ         0.00000   0.00000   0.00000   0.00000   0.32527
  15        9PX         0.00000   0.00000   0.03847   0.00000   0.00000
  16        9PY         0.00000   0.00000   0.00000   0.03847   0.00000
  17        9PZ         0.00000   0.00000   0.00000   0.00000   0.03847
  18       10D 0        0.00000   0.00000   0.00000   0.00000   0.00000
  19       10D+1        0.00000   0.00000   0.00000   0.00000   0.00000
  20       10D-1        0.00000   0.00000   0.00000   0.00000   0.00000
  21       10D+2       -0.00000   0.00000   0.00000   0.00000   0.00000
  22       10D-2        0.00000   0.00000   0.00000   0.00000   0.00000
  23       11D 0       -0.00000   0.00000   0.00000   0.00000   0.00000
  24       11D+1        0.00000   0.00000   0.00000   0.00000   0.00000
  25       11D-1        0.00000   0.00000   0.00000   0.00000   0.00000
  26       11D+2        0.00000   0.00000   0.00000   0.00000   0.00000
  27       11D-2        0.00000   0.00000   0.00000   0.00000   0.00000
  28       12D 0        0.00000  -0.00000   0.00000   0.00000   0.00000
  29       12D+1        0.00000   0.00000   0.00000   0.00000   0.00000
  30       12D-1        0.00000   0.00000   0.00000   0.00000   0.00000
  31       12D+2        0.00000  -0.00000   0.00000   0.00000   0.00000
  32       12D-2        0.00000   0.00000   0.00000   0.00000   0.00000
  33       13F 0        0.00000   0.00000   0.00000   0.00000  -0.00000
  34       13F+1        0.00000   0.00000   0.00000   0.00000   0.00000
  35       13F-1        0.00000   0.00000   0.00000   0.00000   0.00000
  36       13F+2        0.00000   0.00000   0.00000   0.00000   0.00000
  37       13F-2        0.00000   0.00000   0.00000   0.00000   0.00000
  38       13F+3        0.00000   0.00000  -0.00000   0.00000   0.00000
  39       13F-3        0.00000   0.00000   0.00000   0.00000   0.00000
  40       14F 0        0.00000   0.00000   0.00000   0.00000  -0.00000
  41       14F+1        0.00000   0.00000   0.00000   0.00000   0.00000
  42       14F-1        0.00000   0.00000   0.00000   0.00000   0.00000
  43       14F+2        0.00000   0.00000   0.00000   0.00000  -0.00000
  44       14F-2        0.00000   0.00000   0.00000   0.00000   0.00000
  45       14F+3        0.00000   0.00000  -0.00000   0.00000   0.00000
  46       14F-3        0.00000   0.00000   0.00000   0.00000   0.00000
                           6         7         8         9        10
                       (A1G)--V  (T1U)--V  (T1U)--V  (T1U)--V  (T2G)--V
     Eigenvalues --     0.11767   0.15656   0.15656   0.15656   0.93224
   1 1   Ne 1S          0.07771   0.00000   0.00000   0.00000   0.00000
   2        2S         -0.10370   0.00000   0.00000   0.00000   0.00000
   3        3S         -0.06687   0.00000   0.00000   0.00000   0.00000
   4        4S         -0.77710   0.00000   0.00000   0.00000   0.00000
   5        5S          1.45732   0.00000   0.00000   0.00000   0.00000
   6        6PX         0.00000  -0.12290   0.00000   0.00000   0.00000
   7        6PY         0.00000   0.00000  -0.12290   0.00000   0.00000
   8        6PZ         0.00000   0.00000   0.00000  -0.12290   0.00000
   9        7PX         0.00000  -0.10388   0.00000   0.00000   0.00000
  10        7PY         0.00000   0.00000  -0.10388   0.00000   0.00000
  11        7PZ         0.00000   0.00000   0.00000  -0.10388   0.00000
  12        8PX         0.00000  -0.28864   0.00000   0.00000   0.00000
  13        8PY         0.00000   0.00000  -0.28864   0.00000   0.00000
  14        8PZ         0.00000   0.00000   0.00000  -0.28864   0.00000
  15        9PX         0.00000   1.13524   0.00000   0.00000   0.00000
  16        9PY         0.00000   0.00000   1.13524   0.00000   0.00000
  17        9PZ         0.00000   0.00000   0.00000   1.13524   0.00000
  18       10D 0        0.00000   0.00000   0.00000   0.00000   0.00000
  19       10D+1        0.00000   0.00000   0.00000   0.00000   0.00000
  20       10D-1        0.00000   0.00000   0.00000   0.00000   0.00000
  21       10D+2        0.00000   0.00000   0.00000   0.00000   0.00000
  22       10D-2        0.00000   0.00000   0.00000   0.00000   0.04052
  23       11D 0       -0.00000   0.00000   0.00000   0.00000   0.00000
  24       11D+1        0.00000   0.00000   0.00000   0.00000   0.00000
  25       11D-1        0.00000   0.00000   0.00000   0.00000   0.00000
  26       11D+2       -0.00000   0.00000   0.00000   0.00000   0.00000
  27       11D-2        0.00000   0.00000   0.00000   0.00000  -0.10658
  28       12D 0        0.00000   0.00000   0.00000   0.00000   0.00000
  29       12D+1        0.00000   0.00000   0.00000   0.00000   0.00000
  30       12D-1        0.00000   0.00000   0.00000   0.00000   0.00000
  31       12D+2       -0.00000   0.00000   0.00000   0.00000   0.00000
  32       12D-2        0.00000   0.00000   0.00000   0.00000   1.05959
  33       13F 0        0.00000   0.00000   0.00000   0.00000   0.00000
  34       13F+1        0.00000  -0.00000   0.00000   0.00000   0.00000
  35       13F-1        0.00000   0.00000  -0.00000   0.00000   0.00000
  36       13F+2        0.00000   0.00000   0.00000   0.00000   0.00000
  37       13F-2        0.00000   0.00000   0.00000   0.00000   0.00000
  38       13F+3        0.00000   0.00000   0.00000   0.00000   0.00000
  39       13F-3        0.00000   0.00000  -0.00000   0.00000   0.00000
  40       14F 0        0.00000   0.00000   0.00000  -0.00000   0.00000
  41       14F+1        0.00000   0.00000   0.00000   0.00000   0.00000
  42       14F-1        0.00000   0.00000   0.00000   0.00000   0.00000
  43       14F+2        0.00000   0.00000   0.00000   0.00000   0.00000
  44       14F-2        0.00000   0.00000   0.00000   0.00000   0.00000
  45       14F+3        0.00000  -0.00000   0.00000   0.00000   0.00000
  46       14F-3        0.00000   0.00000   0.00000   0.00000   0.00000
                          11        12        13        14        15
                       (T2G)--V  (T2G)--V   (EG)--V   (EG)--V  (T1U)--V
     Eigenvalues --     0.93224   0.93224   0.93224   0.93224   1.10855
   1 1   Ne 1S          0.00000   0.00000  -0.00000   0.00000   0.00000
   2        2S          0.00000   0.00000  -0.00000  -0.00000   0.00000
   3        3S          0.00000   0.00000  -0.00000  -0.00000   0.00000
   4        4S          0.00000   0.00000   0.00000   0.00000   0.00000
   5        5S          0.00000   0.00000  -0.00000   0.00000   0.00000
   6        6PX         0.00000   0.00000   0.00000   0.00000  -0.28553
   7        6PY         0.00000   0.00000   0.00000   0.00000   0.00000
   8        6PZ         0.00000   0.00000   0.00000   0.00000   0.00000
   9        7PX         0.00000   0.00000   0.00000   0.00000  -0.70277
  10        7PY         0.00000   0.00000   0.00000   0.00000   0.00000
  11        7PZ         0.00000   0.00000   0.00000   0.00000   0.00000
  12        8PX         0.00000   0.00000   0.00000   0.00000   1.52940
  13        8PY         0.00000   0.00000   0.00000   0.00000   0.00000
  14        8PZ         0.00000   0.00000   0.00000   0.00000   0.00000
  15        9PX         0.00000   0.00000   0.00000   0.00000  -0.69127
  16        9PY         0.00000   0.00000   0.00000   0.00000   0.00000
  17        9PZ         0.00000   0.00000   0.00000   0.00000   0.00000
  18       10D 0        0.00000   0.00000   0.04006   0.00612   0.00000
  19       10D+1        0.04052   0.00000   0.00000   0.00000   0.00000
  20       10D-1        0.00000   0.04052   0.00000   0.00000   0.00000
  21       10D+2        0.00000   0.00000  -0.00612   0.04006   0.00000
  22       10D-2        0.00000   0.00000   0.00000   0.00000   0.00000
  23       11D 0        0.00000   0.00000  -0.10535  -0.01610   0.00000
  24       11D+1       -0.10658   0.00000   0.00000   0.00000   0.00000
  25       11D-1        0.00000  -0.10658   0.00000   0.00000   0.00000
  26       11D+2        0.00000   0.00000   0.01610  -0.10535   0.00000
  27       11D-2        0.00000   0.00000   0.00000   0.00000   0.00000
  28       12D 0        0.00000   0.00000   1.04743   0.16011   0.00000
  29       12D+1        1.05959   0.00000   0.00000   0.00000   0.00000
  30       12D-1        0.00000   1.05959   0.00000   0.00000   0.00000
  31       12D+2        0.00000   0.00000  -0.16011   1.04743   0.00000
  32       12D-2        0.00000   0.00000   0.00000   0.00000   0.00000
  33       13F 0        0.00000   0.00000   0.00000   0.00000   0.00000
  34       13F+1        0.00000   0.00000   0.00000   0.00000  -0.00000
  35       13F-1        0.00000   0.00000   0.00000   0.00000   0.00000
  36       13F+2        0.00000   0.00000   0.00000   0.00000   0.00000
  37       13F-2        0.00000   0.00000   0.00000   0.00000   0.00000
  38       13F+3        0.00000   0.00000   0.00000   0.00000   0.00000
  39       13F-3        0.00000   0.00000   0.00000   0.00000   0.00000
  40       14F 0        0.00000   0.00000   0.00000   0.00000   0.00000
  41       14F+1        0.00000   0.00000   0.00000   0.00000   0.00000
  42       14F-1        0.00000   0.00000   0.00000   0.00000   0.00000
  43       14F+2        0.00000   0.00000   0.00000   0.00000   0.00000
  44       14F-2        0.00000   0.00000   0.00000   0.00000   0.00000
  45       14F+3        0.00000   0.00000   0.00000   0.00000  -0.00000
  46       14F-3        0.00000   0.00000   0.00000   0.00000   0.00000
                          16        17        18        19        20
                       (T1U)--V  (T1U)--V  (A1G)--V  (T2G)--V  (T2G)--V
     Eigenvalues --     1.10855   1.10855   1.68807   3.24318   3.24318
   1 1   Ne 1S          0.00000   0.00000   0.04473   0.00000   0.00000
   2        2S          0.00000   0.00000  -1.47231   0.00000   0.00000
   3        3S          0.00000   0.00000  -0.36211   0.00000   0.00000
   4        4S          0.00000   0.00000   2.57367   0.00000   0.00000
   5        5S          0.00000   0.00000  -1.07680   0.00000   0.00000
   6        6PX         0.00000   0.00000   0.00000   0.00000   0.00000
   7        6PY         0.00000  -0.28553   0.00000   0.00000   0.00000
   8        6PZ        -0.28553   0.00000   0.00000   0.00000   0.00000
   9        7PX         0.00000   0.00000   0.00000   0.00000   0.00000
  10        7PY         0.00000  -0.70277   0.00000   0.00000   0.00000
  11        7PZ        -0.70277   0.00000   0.00000   0.00000   0.00000
  12        8PX         0.00000   0.00000   0.00000   0.00000   0.00000
  13        8PY         0.00000   1.52940   0.00000   0.00000   0.00000
  14        8PZ         1.52940   0.00000   0.00000   0.00000   0.00000
  15        9PX         0.00000   0.00000   0.00000   0.00000   0.00000
  16        9PY         0.00000  -0.69127   0.00000   0.00000   0.00000
  17        9PZ        -0.69127   0.00000   0.00000   0.00000   0.00000
  18       10D 0        0.00000   0.00000  -0.00000   0.00000   0.00000
  19       10D+1        0.00000   0.00000   0.00000   0.00000   0.00000
  20       10D-1        0.00000   0.00000   0.00000   0.00000   0.01856
  21       10D+2        0.00000   0.00000  -0.00000   0.00000   0.00000
  22       10D-2        0.00000   0.00000   0.00000   0.01856   0.00000
  23       11D 0        0.00000   0.00000  -0.00000   0.00000   0.00000
  24       11D+1        0.00000   0.00000   0.00000   0.00000   0.00000
  25       11D-1        0.00000   0.00000   0.00000   0.00000   1.27722
  26       11D+2        0.00000   0.00000  -0.00000   0.00000   0.00000
  27       11D-2        0.00000   0.00000   0.00000   1.27722   0.00000
  28       12D 0        0.00000   0.00000  -0.00000   0.00000   0.00000
  29       12D+1        0.00000   0.00000   0.00000   0.00000   0.00000
  30       12D-1        0.00000   0.00000   0.00000   0.00000  -0.75158
  31       12D+2        0.00000   0.00000   0.00000   0.00000   0.00000
  32       12D-2        0.00000   0.00000   0.00000  -0.75158   0.00000
  33       13F 0        0.00000   0.00000   0.00000   0.00000   0.00000
  34       13F+1        0.00000   0.00000   0.00000   0.00000   0.00000
  35       13F-1        0.00000  -0.00000   0.00000   0.00000   0.00000
  36       13F+2        0.00000   0.00000   0.00000   0.00000   0.00000
  37       13F-2        0.00000   0.00000   0.00000   0.00000   0.00000
  38       13F+3        0.00000   0.00000   0.00000   0.00000   0.00000
  39       13F-3        0.00000  -0.00000   0.00000   0.00000   0.00000
  40       14F 0       -0.00000   0.00000   0.00000   0.00000   0.00000
  41       14F+1        0.00000   0.00000   0.00000   0.00000   0.00000
  42       14F-1        0.00000   0.00000   0.00000   0.00000   0.00000
  43       14F+2       -0.00000   0.00000   0.00000   0.00000   0.00000
  44       14F-2        0.00000   0.00000   0.00000   0.00000   0.00000
  45       14F+3        0.00000   0.00000   0.00000   0.00000   0.00000
  46       14F-3        0.00000   0.00000   0.00000   0.00000   0.00000
                          21        22        23        24        25
                       (T2G)--V   (EG)--V   (EG)--V  (T2U)--V  (T2U)--V
     Eigenvalues --     3.24318   3.24318   3.24318   3.83394   3.83394
   1 1   Ne 1S          0.00000  -0.00000   0.00000   0.00000   0.00000
   2        2S          0.00000  -0.00000  -0.00000   0.00000   0.00000
   3        3S          0.00000   0.00000  -0.00000   0.00000   0.00000
   4        4S          0.00000   0.00000   0.00000   0.00000   0.00000
   5        5S          0.00000   0.00000   0.00000   0.00000   0.00000
   6        6PX         0.00000   0.00000   0.00000   0.00000   0.00000
   7        6PY         0.00000   0.00000   0.00000   0.00000   0.00000
   8        6PZ         0.00000   0.00000   0.00000  -0.00000   0.00000
   9        7PX         0.00000   0.00000   0.00000   0.00000   0.00000
  10        7PY         0.00000   0.00000   0.00000   0.00000  -0.00000
  11        7PZ         0.00000   0.00000   0.00000   0.00000   0.00000
  12        8PX         0.00000   0.00000   0.00000   0.00000   0.00000
  13        8PY         0.00000   0.00000   0.00000   0.00000   0.00000
  14        8PZ         0.00000   0.00000   0.00000   0.00000   0.00000
  15        9PX         0.00000   0.00000   0.00000   0.00000   0.00000
  16        9PY         0.00000   0.00000   0.00000   0.00000  -0.00000
  17        9PZ         0.00000   0.00000   0.00000  -0.00000   0.00000
  18       10D 0        0.00000   0.01730   0.00672   0.00000   0.00000
  19       10D+1        0.01856   0.00000   0.00000   0.00000   0.00000
  20       10D-1        0.00000   0.00000   0.00000   0.00000   0.00000
  21       10D+2        0.00000  -0.00672   0.01730   0.00000   0.00000
  22       10D-2        0.00000   0.00000   0.00000   0.00000   0.00000
  23       11D 0        0.00000   1.19048   0.46267   0.00000   0.00000
  24       11D+1        1.27722   0.00000   0.00000   0.00000   0.00000
  25       11D-1        0.00000   0.00000   0.00000   0.00000   0.00000
  26       11D+2        0.00000  -0.46267   1.19048   0.00000   0.00000
  27       11D-2        0.00000   0.00000   0.00000   0.00000   0.00000
  28       12D 0        0.00000  -0.70054  -0.27226   0.00000   0.00000
  29       12D+1       -0.75158   0.00000   0.00000   0.00000   0.00000
  30       12D-1        0.00000   0.00000   0.00000   0.00000   0.00000
  31       12D+2        0.00000   0.27226  -0.70054   0.00000   0.00000
  32       12D-2        0.00000   0.00000   0.00000   0.00000   0.00000
  33       13F 0        0.00000   0.00000   0.00000   0.00000   0.00000
  34       13F+1        0.00000   0.00000   0.00000   0.00000   0.00000
  35       13F-1        0.00000   0.00000   0.00000   0.00000  -0.15673
  36       13F+2        0.00000   0.00000   0.00000  -0.19825   0.00000
  37       13F-2        0.00000   0.00000   0.00000   0.00000   0.00000
  38       13F+3        0.00000   0.00000   0.00000   0.00000   0.00000
  39       13F-3        0.00000   0.00000   0.00000   0.00000   0.12141
  40       14F 0        0.00000   0.00000   0.00000  -0.00001   0.00000
  41       14F+1        0.00000   0.00000   0.00000   0.00000   0.00000
  42       14F-1        0.00000   0.00000   0.00000   0.00000   0.88732
  43       14F+2        0.00000   0.00000   0.00000   1.12239   0.00000
  44       14F-2        0.00000   0.00000   0.00000   0.00000   0.00000
  45       14F+3        0.00000   0.00000   0.00000   0.00000   0.00000
  46       14F-3        0.00000   0.00000   0.00000   0.00000  -0.68733
                          26        27        28        29        30
                       (T2U)--V  (A2U)--V  (T1U)--V  (T1U)--V  (T1U)--V
     Eigenvalues --     3.83394   3.83394   3.83394   3.83394   3.83394
   1 1   Ne 1S          0.00000   0.00000   0.00000   0.00000   0.00000
   2        2S          0.00000   0.00000   0.00000   0.00000   0.00000
   3        3S          0.00000   0.00000   0.00000   0.00000   0.00000
   4        4S          0.00000   0.00000   0.00000   0.00000   0.00000
   5        5S          0.00000   0.00000   0.00000   0.00000   0.00000
   6        6PX        -0.00000   0.00000   0.00000   0.00000   0.00000
   7        6PY         0.00000   0.00000  -0.00000   0.00000   0.00000
   8        6PZ         0.00000   0.00000   0.00000   0.00000   0.00000
   9        7PX         0.00000   0.00000   0.00000  -0.00000   0.00000
  10        7PY         0.00000   0.00000   0.00000   0.00000   0.00000
  11        7PZ         0.00000   0.00000   0.00000   0.00000  -0.00000
  12        8PX        -0.00000   0.00000   0.00000   0.00000   0.00000
  13        8PY         0.00000   0.00000  -0.00000   0.00000   0.00000
  14        8PZ         0.00000   0.00000   0.00000   0.00000   0.00000
  15        9PX         0.00000   0.00000   0.00000  -0.00000   0.00000
  16        9PY         0.00000   0.00000   0.00000   0.00000   0.00000
  17        9PZ         0.00000   0.00000   0.00000   0.00000  -0.00000
  18       10D 0        0.00000   0.00000   0.00000   0.00000   0.00000
  19       10D+1        0.00000   0.00000   0.00000   0.00000   0.00000
  20       10D-1        0.00000   0.00000   0.00000   0.00000   0.00000
  21       10D+2        0.00000   0.00000   0.00000   0.00000   0.00000
  22       10D-2        0.00000   0.00000   0.00000   0.00000   0.00000
  23       11D 0        0.00000   0.00000   0.00000   0.00000   0.00000
  24       11D+1        0.00000   0.00000   0.00000   0.00000   0.00000
  25       11D-1        0.00000   0.00000   0.00000   0.00000   0.00000
  26       11D+2        0.00000   0.00000   0.00000   0.00000   0.00000
  27       11D-2        0.00000   0.00000   0.00000   0.00000   0.00000
  28       12D 0        0.00000   0.00000   0.00000   0.00000   0.00000
  29       12D+1        0.00000   0.00000   0.00000   0.00000   0.00000
  30       12D-1        0.00000   0.00000   0.00000   0.00000   0.00000
  31       12D+2        0.00000   0.00000   0.00000   0.00000   0.00000
  32       12D-2        0.00000   0.00000   0.00000   0.00000   0.00000
  33       13F 0        0.00000   0.00000   0.00000   0.00000  -0.19825
  34       13F+1       -0.15673   0.00000   0.00000   0.12140   0.00000
  35       13F-1        0.00000   0.00000  -0.12141   0.00000   0.00000
  36       13F+2        0.00000   0.00000   0.00000   0.00000  -0.00000
  37       13F-2        0.00000  -0.19825   0.00000   0.00000   0.00000
  38       13F+3       -0.12140   0.00000   0.00000  -0.15673   0.00000
  39       13F-3        0.00000   0.00000  -0.15673   0.00000   0.00000
  40       14F 0        0.00000   0.00000   0.00000   0.00000   1.12239
  41       14F+1        0.88733   0.00000   0.00000  -0.68731   0.00000
  42       14F-1        0.00000   0.00000   0.68733   0.00000   0.00000
  43       14F+2        0.00000   0.00000   0.00000   0.00000   0.00001
  44       14F-2        0.00000   1.12239   0.00000   0.00000   0.00000
  45       14F+3        0.68731   0.00000   0.00000   0.88733   0.00000
  46       14F-3        0.00000   0.00000   0.88732   0.00000   0.00000
                          31        32        33        34        35
                       (T1U)--V  (T1U)--V  (T1U)--V  (T2G)--V  (T2G)--V
     Eigenvalues --     5.70816   5.70816   5.70816  11.10238  11.10238
   1 1   Ne 1S          0.00000   0.00000   0.00000   0.00000   0.00000
   2        2S          0.00000   0.00000   0.00000   0.00000   0.00000
   3        3S          0.00000   0.00000   0.00000   0.00000   0.00000
   4        4S          0.00000   0.00000   0.00000   0.00000   0.00000
   5        5S          0.00000   0.00000   0.00000   0.00000   0.00000
   6        6PX        -1.20543   0.00000   0.00000   0.00000   0.00000
   7        6PY         0.00000  -1.20543   0.00000   0.00000   0.00000
   8        6PZ         0.00000   0.00000  -1.20543   0.00000   0.00000
   9        7PX         1.52804   0.00000   0.00000   0.00000   0.00000
  10        7PY         0.00000   1.52804   0.00000   0.00000   0.00000
  11        7PZ         0.00000   0.00000   1.52804   0.00000   0.00000
  12        8PX        -0.82448   0.00000   0.00000   0.00000   0.00000
  13        8PY         0.00000  -0.82448   0.00000   0.00000   0.00000
  14        8PZ         0.00000   0.00000  -0.82448   0.00000   0.00000
  15        9PX         0.26169   0.00000   0.00000   0.00000   0.00000
  16        9PY         0.00000   0.26169   0.00000   0.00000   0.00000
  17        9PZ         0.00000   0.00000   0.26169   0.00000   0.00000
  18       10D 0        0.00000   0.00000   0.00000   0.00000   0.00000
  19       10D+1        0.00000   0.00000   0.00000   0.00000   0.00000
  20       10D-1        0.00000   0.00000   0.00000   1.19975   0.00000
  21       10D+2        0.00000   0.00000   0.00000   0.00000   0.00000
  22       10D-2        0.00000   0.00000   0.00000   0.00000   1.19975
  23       11D 0        0.00000   0.00000   0.00000   0.00000   0.00000
  24       11D+1        0.00000   0.00000   0.00000   0.00000   0.00000
  25       11D-1        0.00000   0.00000   0.00000  -0.84905   0.00000
  26       11D+2        0.00000   0.00000   0.00000   0.00000   0.00000
  27       11D-2        0.00000   0.00000   0.00000   0.00000  -0.84905
  28       12D 0        0.00000   0.00000   0.00000   0.00000   0.00000
  29       12D+1        0.00000   0.00000   0.00000   0.00000   0.00000
  30       12D-1        0.00000   0.00000   0.00000   0.33990   0.00000
  31       12D+2        0.00000   0.00000   0.00000   0.00000   0.00000
  32       12D-2        0.00000   0.00000   0.00000   0.00000   0.33990
  33       13F 0        0.00000   0.00000  -0.00000   0.00000   0.00000
  34       13F+1        0.00000   0.00000   0.00000   0.00000   0.00000
  35       13F-1        0.00000   0.00000   0.00000   0.00000   0.00000
  36       13F+2        0.00000   0.00000   0.00000   0.00000   0.00000
  37       13F-2        0.00000   0.00000   0.00000   0.00000   0.00000
  38       13F+3       -0.00000   0.00000   0.00000   0.00000   0.00000
  39       13F-3        0.00000   0.00000   0.00000   0.00000   0.00000
  40       14F 0        0.00000   0.00000   0.00000   0.00000   0.00000
  41       14F+1       -0.00000   0.00000   0.00000   0.00000   0.00000
  42       14F-1        0.00000  -0.00000   0.00000   0.00000   0.00000
  43       14F+2        0.00000   0.00000  -0.00000   0.00000   0.00000
  44       14F-2        0.00000   0.00000   0.00000   0.00000   0.00000
  45       14F+3        0.00000   0.00000   0.00000   0.00000   0.00000
  46       14F-3        0.00000  -0.00000   0.00000   0.00000   0.00000
                          36        37        38        39        40
                       (T2G)--V   (EG)--V   (EG)--V  (T2U)--V  (T2U)--V
     Eigenvalues --    11.10238  11.10238  11.10238  11.34891  11.34891
   1 1   Ne 1S          0.00000   0.00000  -0.00000   0.00000   0.00000
   2        2S          0.00000   0.00000  -0.00000   0.00000   0.00000
   3        3S          0.00000  -0.00000   0.00000   0.00000   0.00000
   4        4S          0.00000  -0.00000   0.00000   0.00000   0.00000
   5        5S          0.00000   0.00000  -0.00000   0.00000   0.00000
   6        6PX         0.00000   0.00000   0.00000   0.00000  -0.00000
   7        6PY         0.00000   0.00000   0.00000  -0.00000   0.00000
   8        6PZ         0.00000   0.00000   0.00000   0.00000   0.00000
   9        7PX         0.00000   0.00000   0.00000   0.00000   0.00000
  10        7PY         0.00000   0.00000   0.00000   0.00000   0.00000
  11        7PZ         0.00000   0.00000   0.00000   0.00000   0.00000
  12        8PX         0.00000   0.00000   0.00000   0.00000  -0.00000
  13        8PY         0.00000   0.00000   0.00000  -0.00000   0.00000
  14        8PZ         0.00000   0.00000   0.00000   0.00000   0.00000
  15        9PX         0.00000   0.00000   0.00000   0.00000   0.00000
  16        9PY         0.00000   0.00000   0.00000   0.00000   0.00000
  17        9PZ         0.00000   0.00000   0.00000   0.00000   0.00000
  18       10D 0        0.00000  -0.12055   1.19367   0.00000   0.00000
  19       10D+1        1.19975   0.00000   0.00000   0.00000   0.00000
  20       10D-1        0.00000   0.00000   0.00000   0.00000   0.00000
  21       10D+2        0.00000   1.19367   0.12055   0.00000   0.00000
  22       10D-2        0.00000   0.00000   0.00000   0.00000   0.00000
  23       11D 0        0.00000   0.08531  -0.84475   0.00000   0.00000
  24       11D+1       -0.84905   0.00000   0.00000   0.00000   0.00000
  25       11D-1        0.00000   0.00000   0.00000   0.00000   0.00000
  26       11D+2        0.00000  -0.84475  -0.08531   0.00000   0.00000
  27       11D-2        0.00000   0.00000   0.00000   0.00000   0.00000
  28       12D 0        0.00000  -0.03415   0.33818   0.00000   0.00000
  29       12D+1        0.33990   0.00000   0.00000   0.00000   0.00000
  30       12D-1        0.00000   0.00000   0.00000   0.00000   0.00000
  31       12D+2        0.00000   0.33818   0.03415   0.00000   0.00000
  32       12D-2        0.00000   0.00000   0.00000   0.00000   0.00000
  33       13F 0        0.00000   0.00000   0.00000   0.00000   0.00000
  34       13F+1        0.00000   0.00000   0.00000   0.00000   1.05596
  35       13F-1        0.00000   0.00000   0.00000   1.05611   0.00000
  36       13F+2        0.00000   0.00000   0.00000   0.00000   0.00000
  37       13F-2        0.00000   0.00000   0.00000   0.00000   0.00000
  38       13F+3        0.00000   0.00000   0.00000   0.00000   0.81794
  39       13F-3        0.00000   0.00000   0.00000  -0.81775   0.00000
  40       14F 0        0.00000   0.00000   0.00000   0.00000   0.00000
  41       14F+1        0.00000   0.00000   0.00000   0.00000  -0.59352
  42       14F-1        0.00000   0.00000   0.00000  -0.59360   0.00000
  43       14F+2        0.00000   0.00000   0.00000   0.00000   0.00000
  44       14F-2        0.00000   0.00000   0.00000   0.00000   0.00000
  45       14F+3        0.00000   0.00000   0.00000   0.00000  -0.45974
  46       14F-3        0.00000   0.00000   0.00000   0.45963   0.00000
                          41        42        43        44        45
                       (T2U)--V  (A2U)--V  (T1U)--V  (T1U)--V  (T1U)--V
     Eigenvalues --    11.34891  11.34891  11.34891  11.34891  11.34891
   1 1   Ne 1S          0.00000   0.00000   0.00000   0.00000   0.00000
   2        2S          0.00000   0.00000   0.00000   0.00000   0.00000
   3        3S          0.00000   0.00000   0.00000   0.00000   0.00000
   4        4S          0.00000   0.00000   0.00000   0.00000   0.00000
   5        5S          0.00000   0.00000   0.00000   0.00000   0.00000
   6        6PX         0.00000   0.00000  -0.00000   0.00000   0.00000
   7        6PY         0.00000   0.00000   0.00000   0.00000   0.00000
   8        6PZ         0.00000   0.00000   0.00000   0.00000  -0.00000
   9        7PX         0.00000   0.00000   0.00000   0.00000   0.00000
  10        7PY         0.00000   0.00000   0.00000  -0.00000   0.00000
  11        7PZ        -0.00000   0.00000   0.00000   0.00000   0.00000
  12        8PX         0.00000   0.00000  -0.00000   0.00000   0.00000
  13        8PY         0.00000   0.00000   0.00000   0.00000   0.00000
  14        8PZ         0.00000   0.00000   0.00000   0.00000  -0.00000
  15        9PX         0.00000   0.00000   0.00000   0.00000   0.00000
  16        9PY         0.00000   0.00000   0.00000  -0.00000   0.00000
  17        9PZ        -0.00000   0.00000   0.00000   0.00000   0.00000
  18       10D 0        0.00000   0.00000   0.00000   0.00000   0.00000
  19       10D+1        0.00000   0.00000   0.00000   0.00000   0.00000
  20       10D-1        0.00000   0.00000   0.00000   0.00000   0.00000
  21       10D+2        0.00000   0.00000   0.00000   0.00000   0.00000
  22       10D-2        0.00000   0.00000   0.00000   0.00000   0.00000
  23       11D 0        0.00000   0.00000   0.00000   0.00000   0.00000
  24       11D+1        0.00000   0.00000   0.00000   0.00000   0.00000
  25       11D-1        0.00000   0.00000   0.00000   0.00000   0.00000
  26       11D+2        0.00000   0.00000   0.00000   0.00000   0.00000
  27       11D-2        0.00000   0.00000   0.00000   0.00000   0.00000
  28       12D 0        0.00000   0.00000   0.00000   0.00000   0.00000
  29       12D+1        0.00000   0.00000   0.00000   0.00000   0.00000
  30       12D-1        0.00000   0.00000   0.00000   0.00000   0.00000
  31       12D+2        0.00000   0.00000   0.00000   0.00000   0.00000
  32       12D-2        0.00000   0.00000   0.00000   0.00000   0.00000
  33       13F 0        0.00009   0.00000   0.00000   0.00000   1.33569
  34       13F+1        0.00000   0.00000  -0.81794   0.00000   0.00000
  35       13F-1        0.00000   0.00000   0.00000   0.81775   0.00000
  36       13F+2        1.33569   0.00000   0.00000   0.00000  -0.00009
  37       13F-2        0.00000   1.33569   0.00000   0.00000   0.00000
  38       13F+3        0.00000   0.00000   1.05596   0.00000   0.00000
  39       13F-3        0.00000   0.00000   0.00000   1.05611   0.00000
  40       14F 0       -0.00005   0.00000   0.00000   0.00000  -0.75075
  41       14F+1        0.00000   0.00000   0.45974   0.00000   0.00000
  42       14F-1        0.00000   0.00000   0.00000  -0.45963   0.00000
  43       14F+2       -0.75075   0.00000   0.00000   0.00000   0.00005
  44       14F-2        0.00000  -0.75075   0.00000   0.00000   0.00000
  45       14F+3        0.00000   0.00000  -0.59352   0.00000   0.00000
  46       14F-3        0.00000   0.00000   0.00000  -0.59360   0.00000
                          46
                       (A1G)--V
     Eigenvalues --    12.09790
   1 1   Ne 1S          1.27460
   2        2S          3.21107
   3        3S         -2.47387
   4        4S         -2.01920
   5        5S          0.60836
   6        6PX         0.00000
   7        6PY         0.00000
   8        6PZ         0.00000
   9        7PX         0.00000
  10        7PY         0.00000
  11        7PZ         0.00000
  12        8PX         0.00000
  13        8PY         0.00000
  14        8PZ         0.00000
  15        9PX         0.00000
  16        9PY         0.00000
  17        9PZ         0.00000
  18       10D 0        0.00000
  19       10D+1        0.00000
  20       10D-1        0.00000
  21       10D+2       -0.00000
  22       10D-2        0.00000
  23       11D 0       -0.00000
  24       11D+1        0.00000
  25       11D-1        0.00000
  26       11D+2        0.00000
  27       11D-2        0.00000
  28       12D 0        0.00000
  29       12D+1        0.00000
  30       12D-1        0.00000
  31       12D+2       -0.00000
  32       12D-2        0.00000
  33       13F 0        0.00000
  34       13F+1        0.00000
  35       13F-1        0.00000
  36       13F+2        0.00000
  37       13F-2        0.00000
  38       13F+3        0.00000
  39       13F-3        0.00000
  40       14F 0        0.00000
  41       14F+1        0.00000
  42       14F-1        0.00000
  43       14F+2        0.00000
  44       14F-2        0.00000
  45       14F+3        0.00000
  46       14F-3        0.00000
     Density Matrix:
                           1         2         3         4         5
   1 1   Ne 1S          2.00402
   2        2S         -0.27977   0.60861
   3        3S          0.01164   0.20105   0.07219
   4        4S         -0.16415   0.40404   0.13467   0.26848
   5        5S         -0.00790   0.01474   0.00481   0.00977   0.00036
   6        6PX         0.00000   0.00000   0.00000   0.00000   0.00000
   7        6PY         0.00000   0.00000   0.00000   0.00000   0.00000
   8        6PZ         0.00000   0.00000   0.00000   0.00000   0.00000
   9        7PX         0.00000   0.00000   0.00000   0.00000   0.00000
  10        7PY         0.00000   0.00000   0.00000   0.00000   0.00000
  11        7PZ         0.00000   0.00000   0.00000   0.00000   0.00000
  12        8PX         0.00000   0.00000   0.00000   0.00000   0.00000
  13        8PY         0.00000   0.00000   0.00000   0.00000   0.00000
  14        8PZ         0.00000   0.00000   0.00000   0.00000   0.00000
  15        9PX         0.00000   0.00000   0.00000   0.00000   0.00000
  16        9PY         0.00000   0.00000   0.00000   0.00000   0.00000
  17        9PZ         0.00000   0.00000   0.00000   0.00000   0.00000
  18       10D 0       -0.00000  -0.00000  -0.00000  -0.00000   0.00000
  19       10D+1        0.00000   0.00000   0.00000   0.00000  -0.00000
  20       10D-1       -0.00000  -0.00000  -0.00000  -0.00000  -0.00000
  21       10D+2       -0.00000  -0.00000   0.00000  -0.00000   0.00000
  22       10D-2        0.00000  -0.00000   0.00000   0.00000  -0.00000
  23       11D 0        0.00000  -0.00000  -0.00000  -0.00000  -0.00000
  24       11D+1       -0.00000  -0.00000  -0.00000  -0.00000  -0.00000
  25       11D-1        0.00000  -0.00000  -0.00000  -0.00000  -0.00000
  26       11D+2        0.00000  -0.00000  -0.00000   0.00000  -0.00000
  27       11D-2       -0.00000  -0.00000  -0.00000  -0.00000  -0.00000
  28       12D 0       -0.00000   0.00000   0.00000   0.00000   0.00000
  29       12D+1       -0.00000   0.00000   0.00000   0.00000   0.00000
  30       12D-1       -0.00000   0.00000   0.00000   0.00000   0.00000
  31       12D+2       -0.00000   0.00000   0.00000   0.00000  -0.00000
  32       12D-2       -0.00000   0.00000   0.00000   0.00000   0.00000
  33       13F 0        0.00000   0.00000   0.00000   0.00000   0.00000
  34       13F+1        0.00000   0.00000   0.00000   0.00000   0.00000
  35       13F-1        0.00000   0.00000   0.00000   0.00000   0.00000
  36       13F+2        0.00000   0.00000   0.00000   0.00000   0.00000
  37       13F-2        0.00000   0.00000   0.00000   0.00000   0.00000
  38       13F+3        0.00000   0.00000   0.00000   0.00000   0.00000
  39       13F-3        0.00000   0.00000   0.00000   0.00000   0.00000
  40       14F 0        0.00000   0.00000   0.00000   0.00000   0.00000
  41       14F+1        0.00000   0.00000   0.00000   0.00000   0.00000
  42       14F-1        0.00000   0.00000   0.00000   0.00000   0.00000
  43       14F+2        0.00000   0.00000   0.00000   0.00000   0.00000
  44       14F-2        0.00000   0.00000   0.00000   0.00000   0.00000
  45       14F+3        0.00000   0.00000   0.00000   0.00000   0.00000
  46       14F-3        0.00000   0.00000   0.00000   0.00000   0.00000
                           6         7         8         9        10
   6        6PX         0.34217
   7        6PY         0.00000   0.34217
   8        6PZ         0.00000  -0.00000   0.34217
   9        7PX         0.38872   0.00000   0.00000   0.44161
  10        7PY         0.00000   0.38872  -0.00000  -0.00000   0.44161
  11        7PZ         0.00000  -0.00000   0.38872  -0.00000  -0.00000
  12        8PX         0.26907   0.00000  -0.00000   0.30568  -0.00000
  13        8PY         0.00000   0.26907   0.00000  -0.00000   0.30568
  14        8PZ        -0.00000   0.00000   0.26907  -0.00000   0.00000
  15        9PX         0.03182   0.00000   0.00000   0.03615   0.00000
  16        9PY         0.00000   0.03182  -0.00000   0.00000   0.03615
  17        9PZ         0.00000  -0.00000   0.03182   0.00000  -0.00000
  18       10D 0        0.00000   0.00000   0.00000   0.00000   0.00000
  19       10D+1        0.00000   0.00000   0.00000   0.00000   0.00000
  20       10D-1        0.00000   0.00000   0.00000   0.00000   0.00000
  21       10D+2        0.00000   0.00000   0.00000   0.00000   0.00000
  22       10D-2        0.00000   0.00000   0.00000   0.00000   0.00000
  23       11D 0        0.00000   0.00000   0.00000   0.00000   0.00000
  24       11D+1        0.00000   0.00000   0.00000   0.00000   0.00000
  25       11D-1        0.00000   0.00000   0.00000   0.00000   0.00000
  26       11D+2        0.00000   0.00000   0.00000   0.00000   0.00000
  27       11D-2        0.00000   0.00000   0.00000   0.00000   0.00000
  28       12D 0        0.00000   0.00000   0.00000   0.00000   0.00000
  29       12D+1        0.00000   0.00000   0.00000   0.00000   0.00000
  30       12D-1        0.00000   0.00000   0.00000   0.00000   0.00000
  31       12D+2        0.00000   0.00000   0.00000   0.00000   0.00000
  32       12D-2        0.00000   0.00000   0.00000   0.00000   0.00000
  33       13F 0       -0.00000   0.00000  -0.00000  -0.00000   0.00000
  34       13F+1        0.00000  -0.00000  -0.00000   0.00000  -0.00000
  35       13F-1       -0.00000   0.00000   0.00000  -0.00000   0.00000
  36       13F+2        0.00000   0.00000  -0.00000   0.00000   0.00000
  37       13F-2        0.00000  -0.00000   0.00000   0.00000  -0.00000
  38       13F+3       -0.00000  -0.00000   0.00000  -0.00000  -0.00000
  39       13F-3       -0.00000   0.00000   0.00000  -0.00000   0.00000
  40       14F 0       -0.00000   0.00000  -0.00000  -0.00000   0.00000
  41       14F+1        0.00000   0.00000  -0.00000   0.00000   0.00000
  42       14F-1        0.00000   0.00000   0.00000   0.00000   0.00000
  43       14F+2        0.00000   0.00000   0.00000   0.00000   0.00000
  44       14F-2       -0.00000   0.00000  -0.00000  -0.00000   0.00000
  45       14F+3       -0.00000  -0.00000   0.00000  -0.00000  -0.00000
  46       14F-3       -0.00000   0.00000   0.00000  -0.00000   0.00000
                          11        12        13        14        15
  11        7PZ         0.44161
  12        8PX        -0.00000   0.21160
  13        8PY         0.00000  -0.00000   0.21160
  14        8PZ         0.30568  -0.00000   0.00000   0.21160
  15        9PX         0.00000   0.02503   0.00000   0.00000   0.00296
  16        9PY        -0.00000   0.00000   0.02503  -0.00000   0.00000
  17        9PZ         0.03615   0.00000  -0.00000   0.02503   0.00000
  18       10D 0        0.00000   0.00000   0.00000   0.00000   0.00000
  19       10D+1        0.00000   0.00000   0.00000   0.00000   0.00000
  20       10D-1        0.00000   0.00000   0.00000   0.00000   0.00000
  21       10D+2        0.00000   0.00000   0.00000   0.00000   0.00000
  22       10D-2        0.00000   0.00000   0.00000   0.00000   0.00000
  23       11D 0        0.00000   0.00000   0.00000   0.00000   0.00000
  24       11D+1        0.00000   0.00000   0.00000   0.00000   0.00000
  25       11D-1        0.00000   0.00000   0.00000   0.00000   0.00000
  26       11D+2        0.00000   0.00000   0.00000   0.00000   0.00000
  27       11D-2        0.00000   0.00000   0.00000   0.00000   0.00000
  28       12D 0        0.00000   0.00000   0.00000   0.00000   0.00000
  29       12D+1        0.00000   0.00000   0.00000   0.00000   0.00000
  30       12D-1        0.00000   0.00000   0.00000   0.00000   0.00000
  31       12D+2        0.00000   0.00000   0.00000   0.00000   0.00000
  32       12D-2        0.00000   0.00000   0.00000   0.00000   0.00000
  33       13F 0       -0.00000  -0.00000   0.00000  -0.00000  -0.00000
  34       13F+1       -0.00000   0.00000  -0.00000  -0.00000   0.00000
  35       13F-1        0.00000  -0.00000   0.00000   0.00000  -0.00000
  36       13F+2        0.00000   0.00000   0.00000   0.00000   0.00000
  37       13F-2        0.00000   0.00000  -0.00000   0.00000   0.00000
  38       13F+3        0.00000  -0.00000  -0.00000   0.00000  -0.00000
  39       13F-3        0.00000  -0.00000   0.00000   0.00000  -0.00000
  40       14F 0       -0.00000  -0.00000   0.00000  -0.00000  -0.00000
  41       14F+1       -0.00000   0.00000   0.00000  -0.00000   0.00000
  42       14F-1        0.00000   0.00000   0.00000   0.00000   0.00000
  43       14F+2        0.00000   0.00000   0.00000  -0.00000   0.00000
  44       14F-2       -0.00000  -0.00000   0.00000  -0.00000  -0.00000
  45       14F+3        0.00000  -0.00000  -0.00000   0.00000  -0.00000
  46       14F-3        0.00000  -0.00000   0.00000   0.00000  -0.00000
                          16        17        18        19        20
  16        9PY         0.00296
  17        9PZ        -0.00000   0.00296
  18       10D 0        0.00000   0.00000   0.00000
  19       10D+1        0.00000   0.00000   0.00000   0.00000
  20       10D-1        0.00000   0.00000  -0.00000   0.00000   0.00000
  21       10D+2        0.00000   0.00000   0.00000  -0.00000  -0.00000
  22       10D-2        0.00000   0.00000   0.00000   0.00000   0.00000
  23       11D 0        0.00000   0.00000  -0.00000  -0.00000   0.00000
  24       11D+1        0.00000   0.00000  -0.00000  -0.00000  -0.00000
  25       11D-1        0.00000   0.00000   0.00000  -0.00000  -0.00000
  26       11D+2        0.00000   0.00000  -0.00000   0.00000   0.00000
  27       11D-2        0.00000   0.00000  -0.00000  -0.00000   0.00000
  28       12D 0        0.00000   0.00000   0.00000   0.00000  -0.00000
  29       12D+1        0.00000   0.00000   0.00000   0.00000   0.00000
  30       12D-1        0.00000   0.00000  -0.00000   0.00000   0.00000
  31       12D+2        0.00000   0.00000   0.00000  -0.00000   0.00000
  32       12D-2        0.00000   0.00000   0.00000   0.00000   0.00000
  33       13F 0        0.00000  -0.00000   0.00000   0.00000   0.00000
  34       13F+1       -0.00000  -0.00000   0.00000   0.00000   0.00000
  35       13F-1        0.00000   0.00000   0.00000   0.00000   0.00000
  36       13F+2        0.00000  -0.00000   0.00000   0.00000   0.00000
  37       13F-2       -0.00000   0.00000   0.00000   0.00000   0.00000
  38       13F+3       -0.00000   0.00000   0.00000   0.00000   0.00000
  39       13F-3        0.00000   0.00000   0.00000   0.00000   0.00000
  40       14F 0        0.00000  -0.00000   0.00000   0.00000   0.00000
  41       14F+1        0.00000  -0.00000   0.00000   0.00000   0.00000
  42       14F-1        0.00000   0.00000   0.00000   0.00000   0.00000
  43       14F+2        0.00000  -0.00000   0.00000   0.00000   0.00000
  44       14F-2        0.00000  -0.00000   0.00000   0.00000   0.00000
  45       14F+3       -0.00000   0.00000   0.00000   0.00000   0.00000
  46       14F-3        0.00000   0.00000   0.00000   0.00000   0.00000
                          21        22        23        24        25
  21       10D+2        0.00000
  22       10D-2        0.00000   0.00000
  23       11D 0       -0.00000   0.00000   0.00000
  24       11D+1        0.00000  -0.00000   0.00000   0.00000
  25       11D-1        0.00000  -0.00000  -0.00000  -0.00000   0.00000
  26       11D+2       -0.00000  -0.00000  -0.00000   0.00000  -0.00000
  27       11D-2       -0.00000  -0.00000  -0.00000   0.00000   0.00000
  28       12D 0       -0.00000  -0.00000  -0.00000  -0.00000   0.00000
  29       12D+1       -0.00000   0.00000  -0.00000  -0.00000   0.00000
  30       12D-1       -0.00000   0.00000   0.00000   0.00000  -0.00000
  31       12D+2        0.00000   0.00000   0.00000  -0.00000   0.00000
  32       12D-2        0.00000   0.00000   0.00000  -0.00000   0.00000
  33       13F 0        0.00000   0.00000   0.00000   0.00000   0.00000
  34       13F+1        0.00000   0.00000   0.00000   0.00000   0.00000
  35       13F-1        0.00000   0.00000   0.00000   0.00000   0.00000
  36       13F+2        0.00000   0.00000   0.00000   0.00000   0.00000
  37       13F-2        0.00000   0.00000   0.00000   0.00000   0.00000
  38       13F+3        0.00000   0.00000   0.00000   0.00000   0.00000
  39       13F-3        0.00000   0.00000   0.00000   0.00000   0.00000
  40       14F 0        0.00000   0.00000   0.00000   0.00000   0.00000
  41       14F+1        0.00000   0.00000   0.00000   0.00000   0.00000
  42       14F-1        0.00000   0.00000   0.00000   0.00000   0.00000
  43       14F+2        0.00000   0.00000   0.00000   0.00000   0.00000
  44       14F-2        0.00000   0.00000   0.00000   0.00000   0.00000
  45       14F+3        0.00000   0.00000   0.00000   0.00000   0.00000
  46       14F-3        0.00000   0.00000   0.00000   0.00000   0.00000
                          26        27        28        29        30
  26       11D+2        0.00000
  27       11D-2        0.00000   0.00000
  28       12D 0        0.00000   0.00000   0.00000
  29       12D+1       -0.00000  -0.00000   0.00000   0.00000
  30       12D-1        0.00000  -0.00000  -0.00000  -0.00000   0.00000
  31       12D+2       -0.00000  -0.00000  -0.00000   0.00000  -0.00000
  32       12D-2       -0.00000  -0.00000  -0.00000   0.00000  -0.00000
  33       13F 0        0.00000   0.00000   0.00000   0.00000   0.00000
  34       13F+1        0.00000   0.00000   0.00000   0.00000   0.00000
  35       13F-1        0.00000   0.00000   0.00000   0.00000   0.00000
  36       13F+2        0.00000   0.00000   0.00000   0.00000   0.00000
  37       13F-2        0.00000   0.00000   0.00000   0.00000   0.00000
  38       13F+3        0.00000   0.00000   0.00000   0.00000   0.00000
  39       13F-3        0.00000   0.00000   0.00000   0.00000   0.00000
  40       14F 0        0.00000   0.00000   0.00000   0.00000   0.00000
  41       14F+1        0.00000   0.00000   0.00000   0.00000   0.00000
  42       14F-1        0.00000   0.00000   0.00000   0.00000   0.00000
  43       14F+2        0.00000   0.00000   0.00000   0.00000   0.00000
  44       14F-2        0.00000   0.00000   0.00000   0.00000   0.00000
  45       14F+3        0.00000   0.00000   0.00000   0.00000   0.00000
  46       14F-3        0.00000   0.00000   0.00000   0.00000   0.00000
                          31        32        33        34        35
  31       12D+2        0.00000
  32       12D-2        0.00000   0.00000
  33       13F 0        0.00000   0.00000   0.00000
  34       13F+1        0.00000   0.00000   0.00000   0.00000
  35       13F-1        0.00000   0.00000  -0.00000  -0.00000   0.00000
  36       13F+2        0.00000   0.00000   0.00000   0.00000   0.00000
  37       13F-2        0.00000   0.00000  -0.00000   0.00000  -0.00000
  38       13F+3        0.00000   0.00000   0.00000  -0.00000  -0.00000
  39       13F-3        0.00000   0.00000   0.00000  -0.00000   0.00000
  40       14F 0        0.00000   0.00000   0.00000   0.00000  -0.00000
  41       14F+1        0.00000   0.00000   0.00000   0.00000  -0.00000
  42       14F-1        0.00000   0.00000  -0.00000  -0.00000   0.00000
  43       14F+2        0.00000   0.00000  -0.00000   0.00000   0.00000
  44       14F-2        0.00000   0.00000   0.00000  -0.00000   0.00000
  45       14F+3        0.00000   0.00000   0.00000  -0.00000  -0.00000
  46       14F-3        0.00000   0.00000   0.00000  -0.00000   0.00000
                          36        37        38        39        40
  36       13F+2        0.00000
  37       13F-2        0.00000   0.00000
  38       13F+3       -0.00000  -0.00000   0.00000
  39       13F-3        0.00000  -0.00000   0.00000   0.00000
  40       14F 0        0.00000  -0.00000   0.00000   0.00000   0.00000
  41       14F+1        0.00000   0.00000  -0.00000  -0.00000   0.00000
  42       14F-1        0.00000  -0.00000  -0.00000   0.00000  -0.00000
  43       14F+2       -0.00000  -0.00000  -0.00000   0.00000   0.00000
  44       14F-2        0.00000   0.00000   0.00000   0.00000   0.00000
  45       14F+3       -0.00000  -0.00000   0.00000   0.00000   0.00000
  46       14F-3        0.00000  -0.00000   0.00000   0.00000   0.00000
                          41        42        43        44        45
  41       14F+1        0.00000
  42       14F-1        0.00000   0.00000
  43       14F+2        0.00000   0.00000   0.00000
  44       14F-2       -0.00000   0.00000  -0.00000   0.00000
  45       14F+3       -0.00000  -0.00000  -0.00000   0.00000   0.00000
  46       14F-3       -0.00000   0.00000   0.00000   0.00000  -0.00000
                          46
  46       14F-3        0.00000
    Full Mulliken population analysis:
                           1         2         3         4         5
   1 1   Ne 1S          2.00402
   2        2S         -0.02809   0.60861
   3        3S          0.00622   0.15071   0.07219
   4        4S         -0.02417   0.33390   0.06967   0.26848
   5        5S         -0.00048   0.00672   0.00115   0.00755   0.00036
   6        6PX         0.00000   0.00000   0.00000   0.00000   0.00000
   7        6PY         0.00000   0.00000   0.00000   0.00000   0.00000
   8        6PZ         0.00000   0.00000   0.00000   0.00000   0.00000
   9        7PX         0.00000   0.00000   0.00000   0.00000   0.00000
  10        7PY         0.00000   0.00000   0.00000   0.00000   0.00000
  11        7PZ         0.00000   0.00000   0.00000   0.00000   0.00000
  12        8PX         0.00000   0.00000   0.00000   0.00000   0.00000
  13        8PY         0.00000   0.00000   0.00000   0.00000   0.00000
  14        8PZ         0.00000   0.00000   0.00000   0.00000   0.00000
  15        9PX         0.00000   0.00000   0.00000   0.00000   0.00000
  16        9PY         0.00000   0.00000   0.00000   0.00000   0.00000
  17        9PZ         0.00000   0.00000   0.00000   0.00000   0.00000
  18       10D 0        0.00000   0.00000  -0.00000   0.00000   0.00000
  19       10D+1        0.00000  -0.00000  -0.00000   0.00000   0.00000
  20       10D-1        0.00000  -0.00000  -0.00000  -0.00000   0.00000
  21       10D+2       -0.00000   0.00000   0.00000  -0.00000   0.00000
  22       10D-2       -0.00000   0.00000   0.00000   0.00000   0.00000
  23       11D 0        0.00000   0.00000   0.00000   0.00000   0.00000
  24       11D+1        0.00000  -0.00000  -0.00000  -0.00000  -0.00000
  25       11D-1        0.00000   0.00000   0.00000   0.00000   0.00000
  26       11D+2        0.00000   0.00000  -0.00000  -0.00000  -0.00000
  27       11D-2        0.00000   0.00000   0.00000   0.00000   0.00000
  28       12D 0        0.00000  -0.00000   0.00000   0.00000   0.00000
  29       12D+1       -0.00000   0.00000  -0.00000  -0.00000  -0.00000
  30       12D-1       -0.00000   0.00000   0.00000  -0.00000   0.00000
  31       12D+2        0.00000   0.00000  -0.00000   0.00000   0.00000
  32       12D-2        0.00000  -0.00000  -0.00000  -0.00000  -0.00000
  33       13F 0        0.00000   0.00000   0.00000   0.00000   0.00000
  34       13F+1        0.00000   0.00000   0.00000   0.00000   0.00000
  35       13F-1        0.00000   0.00000   0.00000   0.00000   0.00000
  36       13F+2        0.00000   0.00000   0.00000   0.00000   0.00000
  37       13F-2        0.00000   0.00000   0.00000   0.00000   0.00000
  38       13F+3        0.00000   0.00000   0.00000   0.00000   0.00000
  39       13F-3        0.00000   0.00000   0.00000   0.00000   0.00000
  40       14F 0        0.00000   0.00000   0.00000   0.00000   0.00000
  41       14F+1        0.00000   0.00000   0.00000   0.00000   0.00000
  42       14F-1        0.00000   0.00000   0.00000   0.00000   0.00000
  43       14F+2        0.00000   0.00000   0.00000   0.00000   0.00000
  44       14F-2        0.00000   0.00000   0.00000   0.00000   0.00000
  45       14F+3        0.00000   0.00000   0.00000   0.00000   0.00000
  46       14F-3        0.00000   0.00000   0.00000   0.00000   0.00000
                           6         7         8         9        10
   6        6PX         0.34217
   7        6PY        -0.00000   0.34217
   8        6PZ        -0.00000  -0.00000   0.34217
   9        7PX         0.23054  -0.00000   0.00000   0.44161
  10        7PY         0.00000   0.23054  -0.00000   0.00000   0.44161
  11        7PZ         0.00000  -0.00000   0.23054   0.00000  -0.00000
  12        8PX         0.05207  -0.00000   0.00000   0.19411  -0.00000
  13        8PY         0.00000   0.05207   0.00000   0.00000   0.19411
  14        8PZ        -0.00000   0.00000   0.05207   0.00000   0.00000
  15        9PX         0.00144  -0.00000   0.00000   0.00720  -0.00000
  16        9PY         0.00000   0.00144   0.00000  -0.00000   0.00720
  17        9PZ        -0.00000   0.00000   0.00144   0.00000  -0.00000
  18       10D 0        0.00000   0.00000   0.00000   0.00000   0.00000
  19       10D+1        0.00000   0.00000   0.00000   0.00000   0.00000
  20       10D-1        0.00000   0.00000   0.00000   0.00000   0.00000
  21       10D+2        0.00000   0.00000   0.00000   0.00000   0.00000
  22       10D-2        0.00000   0.00000   0.00000   0.00000   0.00000
  23       11D 0        0.00000   0.00000   0.00000   0.00000   0.00000
  24       11D+1        0.00000   0.00000   0.00000   0.00000   0.00000
  25       11D-1        0.00000   0.00000   0.00000   0.00000   0.00000
  26       11D+2        0.00000   0.00000   0.00000   0.00000   0.00000
  27       11D-2        0.00000   0.00000   0.00000   0.00000   0.00000
  28       12D 0        0.00000   0.00000   0.00000   0.00000   0.00000
  29       12D+1        0.00000   0.00000   0.00000   0.00000   0.00000
  30       12D-1        0.00000   0.00000   0.00000   0.00000   0.00000
  31       12D+2        0.00000   0.00000   0.00000   0.00000   0.00000
  32       12D-2        0.00000   0.00000   0.00000   0.00000   0.00000
  33       13F 0        0.00000   0.00000  -0.00000  -0.00000  -0.00000
  34       13F+1       -0.00000  -0.00000   0.00000  -0.00000  -0.00000
  35       13F-1        0.00000  -0.00000   0.00000   0.00000  -0.00000
  36       13F+2        0.00000   0.00000   0.00000  -0.00000  -0.00000
  37       13F-2        0.00000  -0.00000   0.00000   0.00000   0.00000
  38       13F+3       -0.00000   0.00000   0.00000  -0.00000   0.00000
  39       13F-3        0.00000  -0.00000   0.00000   0.00000  -0.00000
  40       14F 0       -0.00000  -0.00000  -0.00000  -0.00000  -0.00000
  41       14F+1       -0.00000   0.00000  -0.00000   0.00000   0.00000
  42       14F-1       -0.00000  -0.00000  -0.00000  -0.00000   0.00000
  43       14F+2       -0.00000  -0.00000   0.00000  -0.00000  -0.00000
  44       14F-2       -0.00000   0.00000  -0.00000  -0.00000   0.00000
  45       14F+3        0.00000  -0.00000  -0.00000   0.00000   0.00000
  46       14F-3       -0.00000   0.00000   0.00000   0.00000   0.00000
                          11        12        13        14        15
  11        7PZ         0.44161
  12        8PX         0.00000   0.21160
  13        8PY         0.00000   0.00000   0.21160
  14        8PZ         0.19411   0.00000   0.00000   0.21160
  15        9PX         0.00000   0.01548  -0.00000   0.00000   0.00296
  16        9PY        -0.00000   0.00000   0.01548  -0.00000  -0.00000
  17        9PZ         0.00720   0.00000  -0.00000   0.01548  -0.00000
  18       10D 0        0.00000   0.00000   0.00000   0.00000   0.00000
  19       10D+1        0.00000   0.00000   0.00000   0.00000   0.00000
  20       10D-1        0.00000   0.00000   0.00000   0.00000   0.00000
  21       10D+2        0.00000   0.00000   0.00000   0.00000   0.00000
  22       10D-2        0.00000   0.00000   0.00000   0.00000   0.00000
  23       11D 0        0.00000   0.00000   0.00000   0.00000   0.00000
  24       11D+1        0.00000   0.00000   0.00000   0.00000   0.00000
  25       11D-1        0.00000   0.00000   0.00000   0.00000   0.00000
  26       11D+2        0.00000   0.00000   0.00000   0.00000   0.00000
  27       11D-2        0.00000   0.00000   0.00000   0.00000   0.00000
  28       12D 0        0.00000   0.00000   0.00000   0.00000   0.00000
  29       12D+1        0.00000   0.00000   0.00000   0.00000   0.00000
  30       12D-1        0.00000   0.00000   0.00000   0.00000   0.00000
  31       12D+2        0.00000   0.00000   0.00000   0.00000   0.00000
  32       12D-2        0.00000   0.00000   0.00000   0.00000   0.00000
  33       13F 0       -0.00000  -0.00000   0.00000   0.00000  -0.00000
  34       13F+1       -0.00000   0.00000   0.00000   0.00000  -0.00000
  35       13F-1       -0.00000  -0.00000   0.00000   0.00000  -0.00000
  36       13F+2       -0.00000  -0.00000  -0.00000  -0.00000  -0.00000
  37       13F-2        0.00000   0.00000  -0.00000  -0.00000   0.00000
  38       13F+3       -0.00000   0.00000   0.00000   0.00000  -0.00000
  39       13F-3        0.00000   0.00000   0.00000   0.00000   0.00000
  40       14F 0        0.00000  -0.00000  -0.00000   0.00000  -0.00000
  41       14F+1       -0.00000   0.00000   0.00000  -0.00000   0.00000
  42       14F-1       -0.00000   0.00000   0.00000  -0.00000  -0.00000
  43       14F+2        0.00000  -0.00000  -0.00000  -0.00000  -0.00000
  44       14F-2       -0.00000  -0.00000   0.00000  -0.00000  -0.00000
  45       14F+3       -0.00000   0.00000   0.00000   0.00000   0.00000
  46       14F-3        0.00000   0.00000   0.00000   0.00000   0.00000
                          16        17        18        19        20
  16        9PY         0.00296
  17        9PZ        -0.00000   0.00296
  18       10D 0        0.00000   0.00000   0.00000
  19       10D+1        0.00000   0.00000  -0.00000   0.00000
  20       10D-1        0.00000   0.00000  -0.00000   0.00000   0.00000
  21       10D+2        0.00000   0.00000  -0.00000  -0.00000   0.00000
  22       10D-2        0.00000   0.00000   0.00000   0.00000  -0.00000
  23       11D 0        0.00000   0.00000  -0.00000   0.00000   0.00000
  24       11D+1        0.00000   0.00000   0.00000  -0.00000   0.00000
  25       11D-1        0.00000   0.00000   0.00000  -0.00000  -0.00000
  26       11D+2        0.00000   0.00000  -0.00000   0.00000   0.00000
  27       11D-2        0.00000   0.00000  -0.00000  -0.00000   0.00000
  28       12D 0        0.00000   0.00000   0.00000   0.00000   0.00000
  29       12D+1        0.00000   0.00000   0.00000   0.00000   0.00000
  30       12D-1        0.00000   0.00000  -0.00000   0.00000   0.00000
  31       12D+2        0.00000   0.00000   0.00000   0.00000  -0.00000
  32       12D-2        0.00000   0.00000   0.00000   0.00000   0.00000
  33       13F 0       -0.00000  -0.00000   0.00000   0.00000   0.00000
  34       13F+1       -0.00000  -0.00000   0.00000   0.00000   0.00000
  35       13F-1       -0.00000  -0.00000   0.00000   0.00000   0.00000
  36       13F+2       -0.00000   0.00000   0.00000   0.00000   0.00000
  37       13F-2        0.00000   0.00000   0.00000   0.00000   0.00000
  38       13F+3        0.00000   0.00000   0.00000   0.00000   0.00000
  39       13F-3       -0.00000   0.00000   0.00000   0.00000   0.00000
  40       14F 0       -0.00000   0.00000   0.00000   0.00000   0.00000
  41       14F+1        0.00000  -0.00000   0.00000   0.00000   0.00000
  42       14F-1        0.00000  -0.00000   0.00000   0.00000   0.00000
  43       14F+2       -0.00000   0.00000   0.00000   0.00000   0.00000
  44       14F-2       -0.00000  -0.00000   0.00000   0.00000   0.00000
  45       14F+3       -0.00000  -0.00000   0.00000   0.00000   0.00000
  46       14F-3        0.00000   0.00000   0.00000   0.00000   0.00000
                          21        22        23        24        25
  21       10D+2        0.00000
  22       10D-2       -0.00000   0.00000
  23       11D 0       -0.00000   0.00000   0.00000
  24       11D+1       -0.00000  -0.00000  -0.00000   0.00000
  25       11D-1        0.00000   0.00000  -0.00000  -0.00000   0.00000
  26       11D+2       -0.00000   0.00000   0.00000  -0.00000  -0.00000
  27       11D-2       -0.00000  -0.00000  -0.00000   0.00000   0.00000
  28       12D 0       -0.00000  -0.00000  -0.00000   0.00000   0.00000
  29       12D+1       -0.00000   0.00000  -0.00000  -0.00000   0.00000
  30       12D-1        0.00000  -0.00000  -0.00000  -0.00000  -0.00000
  31       12D+2        0.00000   0.00000  -0.00000  -0.00000  -0.00000
  32       12D-2        0.00000   0.00000   0.00000  -0.00000  -0.00000
  33       13F 0        0.00000   0.00000   0.00000   0.00000   0.00000
  34       13F+1        0.00000   0.00000   0.00000   0.00000   0.00000
  35       13F-1        0.00000   0.00000   0.00000   0.00000   0.00000
  36       13F+2        0.00000   0.00000   0.00000   0.00000   0.00000
  37       13F-2        0.00000   0.00000   0.00000   0.00000   0.00000
  38       13F+3        0.00000   0.00000   0.00000   0.00000   0.00000
  39       13F-3        0.00000   0.00000   0.00000   0.00000   0.00000
  40       14F 0        0.00000   0.00000   0.00000   0.00000   0.00000
  41       14F+1        0.00000   0.00000   0.00000   0.00000   0.00000
  42       14F-1        0.00000   0.00000   0.00000   0.00000   0.00000
  43       14F+2        0.00000   0.00000   0.00000   0.00000   0.00000
  44       14F-2        0.00000   0.00000   0.00000   0.00000   0.00000
  45       14F+3        0.00000   0.00000   0.00000   0.00000   0.00000
  46       14F-3        0.00000   0.00000   0.00000   0.00000   0.00000
                          26        27        28        29        30
  26       11D+2        0.00000
  27       11D-2       -0.00000   0.00000
  28       12D 0        0.00000   0.00000   0.00000
  29       12D+1       -0.00000  -0.00000  -0.00000   0.00000
  30       12D-1       -0.00000   0.00000  -0.00000  -0.00000   0.00000
  31       12D+2       -0.00000  -0.00000   0.00000  -0.00000  -0.00000
  32       12D-2       -0.00000  -0.00000  -0.00000   0.00000   0.00000
  33       13F 0        0.00000   0.00000   0.00000   0.00000   0.00000
  34       13F+1        0.00000   0.00000   0.00000   0.00000   0.00000
  35       13F-1        0.00000   0.00000   0.00000   0.00000   0.00000
  36       13F+2        0.00000   0.00000   0.00000   0.00000   0.00000
  37       13F-2        0.00000   0.00000   0.00000   0.00000   0.00000
  38       13F+3        0.00000   0.00000   0.00000   0.00000   0.00000
  39       13F-3        0.00000   0.00000   0.00000   0.00000   0.00000
  40       14F 0        0.00000   0.00000   0.00000   0.00000   0.00000
  41       14F+1        0.00000   0.00000   0.00000   0.00000   0.00000
  42       14F-1        0.00000   0.00000   0.00000   0.00000   0.00000
  43       14F+2        0.00000   0.00000   0.00000   0.00000   0.00000
  44       14F-2        0.00000   0.00000   0.00000   0.00000   0.00000
  45       14F+3        0.00000   0.00000   0.00000   0.00000   0.00000
  46       14F-3        0.00000   0.00000   0.00000   0.00000   0.00000
                          31        32        33        34        35
  31       12D+2        0.00000
  32       12D-2       -0.00000   0.00000
  33       13F 0        0.00000   0.00000   0.00000
  34       13F+1        0.00000   0.00000  -0.00000   0.00000
  35       13F-1        0.00000   0.00000   0.00000  -0.00000   0.00000
  36       13F+2        0.00000   0.00000  -0.00000   0.00000   0.00000
  37       13F-2        0.00000   0.00000   0.00000   0.00000   0.00000
  38       13F+3        0.00000   0.00000   0.00000  -0.00000   0.00000
  39       13F-3        0.00000   0.00000   0.00000   0.00000  -0.00000
  40       14F 0        0.00000   0.00000   0.00000  -0.00000   0.00000
  41       14F+1        0.00000   0.00000  -0.00000   0.00000   0.00000
  42       14F-1        0.00000   0.00000   0.00000  -0.00000   0.00000
  43       14F+2        0.00000   0.00000  -0.00000  -0.00000  -0.00000
  44       14F-2        0.00000   0.00000  -0.00000   0.00000   0.00000
  45       14F+3        0.00000   0.00000  -0.00000  -0.00000  -0.00000
  46       14F-3        0.00000   0.00000  -0.00000  -0.00000  -0.00000
                          36        37        38        39        40
  36       13F+2        0.00000
  37       13F-2       -0.00000   0.00000
  38       13F+3        0.00000  -0.00000   0.00000
  39       13F-3        0.00000  -0.00000   0.00000   0.00000
  40       14F 0        0.00000   0.00000   0.00000  -0.00000   0.00000
  41       14F+1       -0.00000  -0.00000  -0.00000  -0.00000  -0.00000
  42       14F-1       -0.00000  -0.00000  -0.00000  -0.00000  -0.00000
  43       14F+2       -0.00000  -0.00000  -0.00000  -0.00000  -0.00000
  44       14F-2        0.00000   0.00000  -0.00000  -0.00000  -0.00000
  45       14F+3       -0.00000   0.00000   0.00000   0.00000   0.00000
  46       14F-3       -0.00000   0.00000  -0.00000   0.00000  -0.00000
                          41        42        43        44        45
  41       14F+1        0.00000
  42       14F-1        0.00000   0.00000
  43       14F+2       -0.00000  -0.00000   0.00000
  44       14F-2        0.00000   0.00000  -0.00000   0.00000
  45       14F+3       -0.00000  -0.00000   0.00000  -0.00000   0.00000
  46       14F-3       -0.00000  -0.00000  -0.00000  -0.00000  -0.00000
                          46
  46       14F-3        0.00000
     Gross orbital populations:
                           1
   1 1   Ne 1S          1.95749
   2        2S          1.07185
   3        3S          0.29993
   4        4S          0.65543
   5        5S          0.01529
   6        6PX         0.62621
   7        6PY         0.62621
   8        6PZ         0.62621
   9        7PX         0.87346
  10        7PY         0.87346
  11        7PZ         0.87346
  12        8PX         0.47325
  13        8PY         0.47325
  14        8PZ         0.47325
  15        9PX         0.02708
  16        9PY         0.02708
  17        9PZ         0.02708
  18       10D 0        0.00000
  19       10D+1        0.00000
  20       10D-1        0.00000
  21       10D+2        0.00000
  22       10D-2        0.00000
  23       11D 0        0.00000
  24       11D+1        0.00000
  25       11D-1        0.00000
  26       11D+2        0.00000
  27       11D-2        0.00000
  28       12D 0        0.00000
  29       12D+1        0.00000
  30       12D-1        0.00000
  31       12D+2        0.00000
  32       12D-2        0.00000
  33       13F 0        0.00000
  34       13F+1        0.00000
  35       13F-1        0.00000
  36       13F+2        0.00000
  37       13F-2        0.00000
  38       13F+3        0.00000
  39       13F-3        0.00000
  40       14F 0        0.00000
  41       14F+1        0.00000
  42       14F-1        0.00000
  43       14F+2       -0.00000
  44       14F-2        0.00000
  45       14F+3        0.00000
  46       14F-3        0.00000
          Condensed to atoms (all electrons):
               1
     1  Ne  10.000000
 Mulliken charges:
               1
     1  Ne   0.000000
 Sum of Mulliken charges =   0.00000
 Mulliken charges with hydrogens summed into heavy atoms:
               1
     1  Ne   0.000000
 Electronic spatial extent (au):  <R**2>=              9.7550
 Charge=              0.0000 electrons
 Dipole moment (field-independent basis, Debye):
    X=              0.0000    Y=              0.0000    Z=              0.0000  Tot=              0.0000
 Quadrupole moment (field-independent basis, Debye-Ang):
   XX=             -4.3736   YY=             -4.3736   ZZ=             -4.3736
   XY=             -0.0000   XZ=             -0.0000   YZ=             -0.0000
 Traceless Quadrupole moment (field-independent basis, Debye-Ang):
   XX=              0.0000   YY=              0.0000   ZZ=              0.0000
   XY=             -0.0000   XZ=             -0.0000   YZ=             -0.0000
 Octapole moment (field-independent basis, Debye-Ang**2):
  XXX=              0.0000  YYY=              0.0000  ZZZ=              0.0000  XYY=              0.0000
  XXY=              0.0000  XXZ=              0.0000  XZZ=              0.0000  YZZ=              0.0000
  YYZ=              0.0000  XYZ=              0.0000
 Hexadecapole moment (field-independent basis, Debye-Ang**3):
 XXXX=             -2.3721 YYYY=             -2.3721 ZZZZ=             -2.3721 XXXY=              0.0000
 XXXZ=             -0.0000 YYYX=             -0.0000 YYYZ=              0.0000 ZZZX=              0.0000
 ZZZY=             -0.0000 XXYY=             -0.7907 XXZZ=             -0.7907 YYZZ=             -0.7907
 XXYZ=              0.0000 YYXZ=             -0.0000 ZZXY=             -0.0000
 N-N= 0.000000000000D+00 E-N=-3.107679312385D+02  KE= 1.283893000948D+02
 Symmetry AG   KE= 1.026287078741D+02
 Symmetry B1G  KE= 1.534761776488D-61
 Symmetry B2G  KE= 1.457888667473D-61
 Symmetry B3G  KE= 1.413227762777D-61
 Symmetry AU   KE= 1.569016401709D-53
 Symmetry B1U  KE= 8.586864073568D+00
 Symmetry B2U  KE= 8.586864073568D+00
 Symmetry B3U  KE= 8.586864073568D+00
 Orbital energies and kinetic energies (alpha):
                                 1                 2
   1         (A1G)--O        -30.978130         46.066875
   2         (A1G)--O         -1.462261          5.247479
   3         (T1U)--O         -0.575613          4.293432
   4         (T1U)--O         -0.575613          4.293432
   5         (T1U)--O         -0.575613          4.293432
   6         (A1G)--V          0.117672          0.737610
   7         (T1U)--V          0.156565          0.556391
   8         (T1U)--V          0.156565          0.556391
   9         (T1U)--V          0.156565          0.556391
  10         (T2G)--V          0.932239          1.300242
  11         (T2G)--V          0.932239          1.300242
  12         (T2G)--V          0.932239          1.300242
  13         (EG)--V           0.932239          1.300242
  14         (EG)--V           0.932239          1.300242
  15         (T1U)--V          1.108548          3.180311
  16         (T1U)--V          1.108548          3.180311
  17         (T1U)--V          1.108548          3.180311
  18         (A1G)--V          1.688073          5.018163
  19         (T2G)--V          3.243180          4.728672
  20         (T2G)--V          3.243180          4.728672
  21         (T2G)--V          3.243180          4.728672
  22         (EG)--V           3.243180          4.728672
  23         (EG)--V           3.243180          4.728672
  24         (T2U)--V          3.833935          4.549170
  25         (T2U)--V          3.833935          4.549170
  26         (T2U)--V          3.833935          4.549170
  27         (A2U)--V          3.833935          4.549170
  28         (T1U)--V          3.833935          4.549170
  29         (T1U)--V          3.833935          4.549170
  30         (T1U)--V          3.833935          4.549170
  31         (T1U)--V          5.708161         14.791365
  32         (T1U)--V          5.708161         14.791365
  33         (T1U)--V          5.708161         14.791365
  34         (T2G)--V         11.102381         16.532199
  35         (T2G)--V         11.102381         16.532199
  36         (T2G)--V         11.102381         16.532199
  37         (EG)--V          11.102381         16.532199
  38         (EG)--V          11.102381         16.532199
  39         (T2U)--V         11.348913         13.953795
  40         (T2U)--V         11.348913         13.953795
  41         (T2U)--V         11.348913         13.953795
  42         (A2U)--V         11.348913         13.953795
  43         (T1U)--V         11.348913         13.953795
  44         (T1U)--V         11.348913         13.953795
  45         (T1U)--V         11.348913         13.953795
  46         (A1G)--V         12.097897         41.330857
 Total kinetic energy from orbitals= 1.283893000948D+02
 1\1\GINC-LOGIN\SP\RB3LYP\Aug-CC-pVTZ\Ne1\C7441090\20-Nov-2023\0\\# B3L
 YP/aug-cc-pVTZ EmpiricalDispersion=GD3 Pop=Full\\Neon\\0,1\Ne,0,0.,0.,
 0.\\Version=ES64L-G16RevA.03\State=1-A1G\HF=-128.9662859\RMSD=1.138e-0
 9\Dipole=0.,0.,0.\Quadrupole=0.,0.,0.,0.,0.,0.\PG=OH [O(Ne1)]\\@


 MICRO CREDO - NEVER TRUST A COMPUTER BIGGER
               BIGGER THAN YOU CAN LIFT.
 Job cpu time:       0 days  0 hours  0 minutes  8.2 seconds.
 Elapsed time:       0 days  0 hours  0 minutes  4.0 seconds.
 File lengths (MBytes):  RWF=      5 Int=      0 D2E=      0 Chk=      1 Scr=      1
 Normal termination of Gaussian 16 at Mon Nov 20 23:52:57 2023.
