Oxygen                                                                  
SP        UB3LYP                                                      Aug-CC-pVTZ         
Number of atoms                            I                1
Info1-9                                    I   N=           9
          12          11           0           0           0         110
           1          18        -502
Full Title                                 C   N=           1
Oxygen      
Route                                      C   N=           5
# B3LYP/aug-cc-pVTZ EmpiricalDispersion=GD3 Pop=Full        
Charge                                     I                0
Multiplicity                               I                3
Number of electrons                        I                8
Number of alpha electrons                  I                5
Number of beta electrons                   I                3
Number of basis functions                  I               46
Number of independent functions            I               46
Number of point charges in /Mol/           I                0
Number of translation vectors              I                0
Atomic numbers                             I   N=           1
           8
Nuclear charges                            R   N=           1
  8.00000000E+00
Current cartesian coordinates              R   N=           3
  0.00000000E+00  0.00000000E+00  0.00000000E+00
Number of symbols in /Mol/                 I                0
Force Field                                I                0
Atom Types                                 C   N=           1
            
Int Atom Types                             I   N=           1
           0
MM charges                                 R   N=           1
  0.00000000E+00
Integer atomic weights                     I   N=           1
          16
Real atomic weights                        R   N=           1
  1.59949146E+01
Atom fragment info                         I   N=           1
           0
Atom residue num                           I   N=           1
           0
Nuclear spins                              I   N=           1
           0
Nuclear ZEff                               R   N=           1
 -5.60000000E+00
Nuclear ZNuc                               R   N=           1
  8.00000000E+00
Nuclear QMom                               R   N=           1
  0.00000000E+00
Nuclear GFac                               R   N=           1
  0.00000000E+00
MicOpt                                     I   N=           1
          -1
Number of residues                         I                0
Number of secondary structures             I                0
SymInf integers                            I   N=          26
           1           8           1           1           1           1
          -1          -1          -1           1          -1          -1
          -1           1          -1          -1          -1          -1
           1           1           1          -1           1           1
           1          -1
RotTr to input orientation                 R   N=          12
  0.00000000E+00  0.00000000E+00 -1.00000000E+00  0.00000000E+00  1.00000000E+00
  0.00000000E+00  1.00000000E+00  0.00000000E+00  0.00000000E+00  0.00000000E+00
  0.00000000E+00  0.00000000E+00
Number of contracted shells                I               14
Number of primitive shells                 I               27
Pure/Cartesian d shells                    I                0
Pure/Cartesian f shells                    I                0
Highest angular momentum                   I                3
Largest degree of contraction              I                7
Shell types                                I   N=          14
           0           0           0           0           0           1
           1           1           1          -2          -2          -2
          -3          -3
Number of primitives per shell             I   N=          14
           7           6           1           1           1           3
           1           1           1           1           1           1
           1           1
Shell to atom map                          I   N=          14
           1           1           1           1           1           1
           1           1           1           1           1           1
           1           1
Primitive exponents                        R   N=          27
  1.53300000E+04  2.29900000E+03  5.22400000E+02  1.47300000E+02  4.75500000E+01
  1.67600000E+01  6.20700000E+00  5.22400000E+02  1.47300000E+02  4.75500000E+01
  1.67600000E+01  6.20700000E+00  6.88200000E-01  1.75200000E+00  2.38400000E-01
  7.37600000E-02  3.44600000E+01  7.74900000E+00  2.28000000E+00  7.15600000E-01
  2.14000000E-01  5.97400000E-02  2.31400000E+00  6.45000000E-01  2.14000000E-01
  1.42800000E+00  5.00000000E-01
Contraction coefficients                   R   N=          27
  5.19808943E-04  4.02025621E-03  2.07128267E-02  8.10105536E-02  2.35962985E-01
  4.42653446E-01  3.57064423E-01 -4.42115008E-05 -1.22591041E-03 -1.05517725E-02
 -6.74452633E-02 -1.71198607E-01  1.07329856E+00  1.00000000E+00  1.00000000E+00
  1.00000000E+00  4.11634896E-02  2.57762836E-01  8.02419274E-01  1.00000000E+00
  1.00000000E+00  1.00000000E+00  1.00000000E+00  1.00000000E+00  1.00000000E+00
  1.00000000E+00  1.00000000E+00
Coordinates of each shell                  R   N=          42
  0.00000000E+00  0.00000000E+00  0.00000000E+00  0.00000000E+00  0.00000000E+00
  0.00000000E+00  0.00000000E+00  0.00000000E+00  0.00000000E+00  0.00000000E+00
  0.00000000E+00  0.00000000E+00  0.00000000E+00  0.00000000E+00  0.00000000E+00
  0.00000000E+00  0.00000000E+00  0.00000000E+00  0.00000000E+00  0.00000000E+00
  0.00000000E+00  0.00000000E+00  0.00000000E+00  0.00000000E+00  0.00000000E+00
  0.00000000E+00  0.00000000E+00  0.00000000E+00  0.00000000E+00  0.00000000E+00
  0.00000000E+00  0.00000000E+00  0.00000000E+00  0.00000000E+00  0.00000000E+00
  0.00000000E+00  0.00000000E+00  0.00000000E+00  0.00000000E+00  0.00000000E+00
  0.00000000E+00  0.00000000E+00
Num ILSW                                   I              100
ILSW                                       I   N=         100
           1           0           0           0           2           0
           0           0           0           0         402          -1
           5           0           0           0           0           0
           0           0           1           0           0           0
           1           0           0           0           0           0
           0           0      100000           0          -1           0
           0           0           0           0           0           0
           0           0           0           1           0           0
           0 -2000000000           1           0           0           0
           0           1         131          52           0           0
           0           0           5           0           0           0
           0           0           0           0           0           1
           0           0           0           0           0           0
           0           0           0           0           0           0
           0           0           0           0           0           0
           0           0           0           0           0           0
           0           0           0           0
Num RLSW                                   I               52
RLSW                                       R   N=          52
  8.00000000E-01  7.20000000E-01  1.00000000E+00  8.10000000E-01  2.00000000E-01
  0.00000000E+00  0.00000000E+00  1.00000000E+00  0.00000000E+00  0.00000000E+00
  0.00000000E+00  0.00000000E+00  1.00000000E+00  0.00000000E+00  0.00000000E+00
  0.00000000E+00  0.00000000E+00  1.00000000E+00  0.00000000E+00  0.00000000E+00
  0.00000000E+00  0.00000000E+00  1.00000000E+00  0.00000000E+00  0.00000000E+00
  0.00000000E+00  0.00000000E+00  1.00000000E+00  0.00000000E+00  0.00000000E+00
  0.00000000E+00  0.00000000E+00  1.00000000E+00  0.00000000E+00  0.00000000E+00
  0.00000000E+00  0.00000000E+00  0.00000000E+00  1.00000000E+00  1.00000000E+00
  0.00000000E+00  1.00000000E+00  0.00000000E+00  0.00000000E+00  0.00000000E+00
  0.00000000E+00  0.00000000E+00  0.00000000E+00  0.00000000E+00  0.00000000E+00
  0.00000000E+00  0.00000000E+00
MxBond                                     I                1
NBond                                      I   N=           1
           0
IBond                                      I   N=           1
           0
RBond                                      R   N=           1
  0.00000000E+00
Virial Ratio                               R      2.005259278687783E+00
SCF Energy                                 R     -7.509417781906699E+01
Total Energy                               R     -7.509417781906699E+01
S**2                                       R      2.003916399863019E+00
S**2 after annihilation                    R      2.000005582521670E+00
RMS Density                                R      5.035371195511977E-10
Job Status                                 I                1
Nuclear derivative order                   I                0
External E-field                           R   N=          35
  0.00000000E+00  0.00000000E+00  0.00000000E+00  0.00000000E+00  0.00000000E+00
  0.00000000E+00  0.00000000E+00  0.00000000E+00  0.00000000E+00  0.00000000E+00
  0.00000000E+00  0.00000000E+00  0.00000000E+00  0.00000000E+00  0.00000000E+00
  0.00000000E+00  0.00000000E+00  0.00000000E+00  0.00000000E+00  0.00000000E+00
  0.00000000E+00  0.00000000E+00  0.00000000E+00  0.00000000E+00  0.00000000E+00
  0.00000000E+00  0.00000000E+00  0.00000000E+00  0.00000000E+00  0.00000000E+00
  0.00000000E+00  0.00000000E+00  0.00000000E+00  0.00000000E+00  0.00000000E+00
IOpCl                                      I                1
IROHF                                      I                0
Alpha Orbital Energies                     R   N=          46
 -1.92847596E+01 -1.02520352E+00 -4.65747732E-01 -4.65747732E-01 -3.91117253E-01
  6.33475347E-02  9.42732007E-02  9.42732007E-02  9.77736077E-02  4.85422149E-01
  4.85422149E-01  4.97208413E-01  4.97208413E-01  5.02119706E-01  6.83750771E-01
  6.83750771E-01  7.15879697E-01  1.03591689E+00  1.76503212E+00  1.76503212E+00
  1.78274121E+00  1.78274121E+00  1.78349029E+00  1.78349029E+00  1.79454853E+00
  1.79454853E+00  1.79873675E+00  1.82193761E+00  1.82193761E+00  1.83617300E+00
  3.57322366E+00  3.57322366E+00  3.63599870E+00  5.88115145E+00  5.88115145E+00
  5.92224168E+00  5.92224168E+00  5.94716045E+00  5.94716045E+00  5.95593485E+00
  6.30984748E+00  6.30984748E+00  6.36963614E+00  6.36963614E+00  6.38944177E+00
  7.63209881E+00
Beta Orbital Energies                      R   N=          46
 -1.92333092E+01 -8.66724436E-01 -3.40535286E-01 -1.88946967E-01 -1.88946967E-01
  7.44379990E-02  1.00043858E-01  1.12275486E-01  1.12275486E-01  5.07445723E-01
  5.07445723E-01  5.10681369E-01  5.11949251E-01  5.11951380E-01  7.33517136E-01
  7.58019337E-01  7.58019337E-01  1.09942000E+00  1.81285951E+00  1.81285951E+00
  1.81544882E+00  1.81544882E+00  1.81571414E+00  1.81584025E+00  1.81584025E+00
  1.87813143E+00  1.87813143E+00  1.88292343E+00  1.89256223E+00  1.89256313E+00
  3.67646999E+00  3.71104803E+00  3.71104803E+00  6.01196231E+00  6.01196233E+00
  6.01512038E+00  6.01712142E+00  6.01712142E+00  6.02567699E+00  6.02567699E+00
  6.47298783E+00  6.47298783E+00  6.48125116E+00  6.51156845E+00  6.51156856E+00
  7.72232324E+00
Alpha MO coefficients                      R   N=        2116
  9.71990687E-01 -1.25389092E-02  5.29387255E-02  4.27993490E-03 -9.74111632E-04
  0.00000000E+00  0.00000000E+00  0.00000000E+00  0.00000000E+00  0.00000000E+00
  0.00000000E+00  0.00000000E+00  0.00000000E+00  0.00000000E+00  0.00000000E+00
  0.00000000E+00  0.00000000E+00  3.04344285E-04  0.00000000E+00  0.00000000E+00
  5.27139765E-04  0.00000000E+00 -1.15292722E-04  0.00000000E+00  0.00000000E+00
 -1.99692852E-04  0.00000000E+00  4.53443980E-05  0.00000000E+00  0.00000000E+00
  7.85388012E-05  0.00000000E+00  0.00000000E+00  0.00000000E+00  0.00000000E+00
  0.00000000E+00  0.00000000E+00  0.00000000E+00  0.00000000E+00  0.00000000E+00
  0.00000000E+00  0.00000000E+00  0.00000000E+00  0.00000000E+00  0.00000000E+00
  0.00000000E+00 -2.32352960E-01  5.66269146E-01  1.76944735E-01  3.57566566E-01
  6.61344768E-03  0.00000000E+00  0.00000000E+00  0.00000000E+00  0.00000000E+00
  0.00000000E+00  0.00000000E+00  0.00000000E+00  0.00000000E+00  0.00000000E+00
  0.00000000E+00  0.00000000E+00  0.00000000E+00  3.67138344E-03  0.00000000E+00
  0.00000000E+00  6.35902265E-03  0.00000000E+00  7.03254825E-03  0.00000000E+00
  0.00000000E+00  1.21807309E-02  0.00000000E+00  5.90454950E-04  0.00000000E+00
  0.00000000E+00  1.02269797E-03  0.00000000E+00  0.00000000E+00  0.00000000E+00
  0.00000000E+00  0.00000000E+00  0.00000000E+00  0.00000000E+00  0.00000000E+00
  0.00000000E+00  0.00000000E+00  0.00000000E+00  0.00000000E+00  0.00000000E+00
  0.00000000E+00  0.00000000E+00  0.00000000E+00  0.00000000E+00  0.00000000E+00
  0.00000000E+00  0.00000000E+00  4.07181480E-01  0.00000000E+00  0.00000000E+00
  4.86066750E-01  0.00000000E+00  0.00000000E+00  3.10845204E-01  0.00000000E+00
  0.00000000E+00  2.37375780E-02  0.00000000E+00  0.00000000E+00  0.00000000E+00
  0.00000000E+00  0.00000000E+00  0.00000000E+00  0.00000000E+00  0.00000000E+00
  0.00000000E+00  0.00000000E+00  0.00000000E+00  0.00000000E+00  0.00000000E+00
  0.00000000E+00  0.00000000E+00  0.00000000E+00  0.00000000E+00  0.00000000E+00
  1.35676148E-03  0.00000000E+00  0.00000000E+00  0.00000000E+00  5.25471460E-03
  0.00000000E+00  0.00000000E+00  1.05596790E-03  0.00000000E+00  0.00000000E+00
  0.00000000E+00  4.08974606E-03  0.00000000E+00  0.00000000E+00  0.00000000E+00
  0.00000000E+00  0.00000000E+00  0.00000000E+00  0.00000000E+00  0.00000000E+00
  4.07181480E-01  0.00000000E+00  0.00000000E+00  4.86066750E-01  0.00000000E+00
  0.00000000E+00  3.10845204E-01  0.00000000E+00  0.00000000E+00  2.37375780E-02
  0.00000000E+00  0.00000000E+00  0.00000000E+00  0.00000000E+00  0.00000000E+00
  0.00000000E+00  0.00000000E+00  0.00000000E+00  0.00000000E+00  0.00000000E+00
  0.00000000E+00  0.00000000E+00  0.00000000E+00  0.00000000E+00  0.00000000E+00
  3.32337332E-03  0.00000000E+00  0.00000000E+00  4.29045651E-03  0.00000000E+00
  0.00000000E+00  0.00000000E+00  2.58658252E-03  0.00000000E+00  0.00000000E+00
  3.33926368E-03  0.00000000E+00  0.00000000E+00  0.00000000E+00  0.00000000E+00
  0.00000000E+00  0.00000000E+00  0.00000000E+00  0.00000000E+00  0.00000000E+00
  3.97401608E-01  0.00000000E+00  0.00000000E+00  4.67616446E-01  0.00000000E+00
  0.00000000E+00  3.35238083E-01  0.00000000E+00  0.00000000E+00  4.27056363E-02
  0.00000000E+00  0.00000000E+00  0.00000000E+00  0.00000000E+00  0.00000000E+00
  0.00000000E+00  0.00000000E+00  0.00000000E+00  0.00000000E+00  0.00000000E+00
  0.00000000E+00  0.00000000E+00  0.00000000E+00  0.00000000E+00  0.00000000E+00
  0.00000000E+00  0.00000000E+00  0.00000000E+00  4.00603050E-03  0.00000000E+00
  0.00000000E+00  0.00000000E+00  5.17176313E-03  0.00000000E+00  0.00000000E+00
  3.46818779E-03  0.00000000E+00  0.00000000E+00  0.00000000E+00  4.47741118E-03
  7.67759912E-02 -1.21104156E-01 -6.80941003E-02 -7.71432879E-01  1.46941423E+00
  0.00000000E+00  0.00000000E+00  0.00000000E+00  0.00000000E+00  0.00000000E+00
  0.00000000E+00  0.00000000E+00  0.00000000E+00  0.00000000E+00  0.00000000E+00
  0.00000000E+00  0.00000000E+00 -1.11851648E-03  0.00000000E+00  0.00000000E+00
 -1.93732738E-03  0.00000000E+00 -1.58192147E-03  0.00000000E+00  0.00000000E+00
 -2.73996836E-03  0.00000000E+00  5.60959970E-03  0.00000000E+00  0.00000000E+00
  9.71611169E-03  0.00000000E+00  0.00000000E+00  0.00000000E+00  0.00000000E+00
  0.00000000E+00  0.00000000E+00  0.00000000E+00  0.00000000E+00  0.00000000E+00
  0.00000000E+00  0.00000000E+00  0.00000000E+00  0.00000000E+00  0.00000000E+00
  0.00000000E+00  0.00000000E+00  0.00000000E+00  0.00000000E+00  0.00000000E+00
  0.00000000E+00  0.00000000E+00  0.00000000E+00 -1.18717805E-01  0.00000000E+00
  0.00000000E+00 -1.07983888E-01  0.00000000E+00  0.00000000E+00 -2.59045553E-01
  0.00000000E+00  0.00000000E+00  1.12609562E+00  0.00000000E+00  0.00000000E+00
  0.00000000E+00  0.00000000E+00  0.00000000E+00  0.00000000E+00  0.00000000E+00
  0.00000000E+00  0.00000000E+00  0.00000000E+00  0.00000000E+00  0.00000000E+00
  0.00000000E+00  0.00000000E+00  0.00000000E+00 -9.58702642E-04  0.00000000E+00
  0.00000000E+00 -1.23767979E-03  0.00000000E+00  0.00000000E+00  0.00000000E+00
  5.99911745E-04  0.00000000E+00  0.00000000E+00  7.74482733E-04  0.00000000E+00
  0.00000000E+00  0.00000000E+00  0.00000000E+00  0.00000000E+00  0.00000000E+00
  0.00000000E+00  0.00000000E+00 -1.18717805E-01  0.00000000E+00  0.00000000E+00
 -1.07983888E-01  0.00000000E+00  0.00000000E+00 -2.59045553E-01  0.00000000E+00
  0.00000000E+00  1.12609562E+00  0.00000000E+00  0.00000000E+00  0.00000000E+00
  0.00000000E+00  0.00000000E+00  0.00000000E+00  0.00000000E+00  0.00000000E+00
  0.00000000E+00  0.00000000E+00  0.00000000E+00  0.00000000E+00  0.00000000E+00
  0.00000000E+00  0.00000000E+00  0.00000000E+00  0.00000000E+00  0.00000000E+00
 -3.91388716E-04  0.00000000E+00  0.00000000E+00  0.00000000E+00 -1.51584198E-03
  0.00000000E+00  0.00000000E+00  2.44912945E-04  0.00000000E+00  0.00000000E+00
  0.00000000E+00  9.48543755E-04  0.00000000E+00  0.00000000E+00  0.00000000E+00
  0.00000000E+00  0.00000000E+00  0.00000000E+00  0.00000000E+00 -1.24699264E-01
  0.00000000E+00  0.00000000E+00 -1.08924045E-01  0.00000000E+00  0.00000000E+00
 -2.98258794E-01  0.00000000E+00  0.00000000E+00  1.13857798E+00  0.00000000E+00
  0.00000000E+00  0.00000000E+00  0.00000000E+00  0.00000000E+00  0.00000000E+00
  0.00000000E+00  0.00000000E+00  0.00000000E+00  0.00000000E+00  0.00000000E+00
  0.00000000E+00  0.00000000E+00  0.00000000E+00  0.00000000E+00  0.00000000E+00
  0.00000000E+00  0.00000000E+00 -1.26739325E-03  0.00000000E+00  0.00000000E+00
  0.00000000E+00 -1.63619766E-03  0.00000000E+00  0.00000000E+00  5.72095078E-04
  0.00000000E+00  0.00000000E+00  0.00000000E+00  7.38571569E-04  0.00000000E+00
  0.00000000E+00  0.00000000E+00  0.00000000E+00  0.00000000E+00  0.00000000E+00
  0.00000000E+00  0.00000000E+00  0.00000000E+00  0.00000000E+00  0.00000000E+00
  0.00000000E+00  0.00000000E+00  0.00000000E+00  0.00000000E+00  0.00000000E+00
  0.00000000E+00  0.00000000E+00  3.83853594E-02  0.00000000E+00  0.00000000E+00
  0.00000000E+00  0.00000000E+00 -6.66500077E-02  0.00000000E+00  0.00000000E+00
  0.00000000E+00  0.00000000E+00  1.03414934E+00  0.00000000E+00  0.00000000E+00
  0.00000000E+00  0.00000000E+00  0.00000000E+00  0.00000000E+00  0.00000000E+00
  0.00000000E+00  0.00000000E+00  0.00000000E+00  0.00000000E+00  0.00000000E+00
  0.00000000E+00  0.00000000E+00  0.00000000E+00  0.00000000E+00  0.00000000E+00
  2.21842866E-17 -1.58180428E-15 -1.47519982E-16 -1.01776403E-15  6.20769968E-15
  0.00000000E+00  0.00000000E+00  0.00000000E+00  0.00000000E+00  0.00000000E+00
  0.00000000E+00  0.00000000E+00  0.00000000E+00  0.00000000E+00  0.00000000E+00
  0.00000000E+00  0.00000000E+00  3.32426963E-02  0.00000000E+00  0.00000000E+00
 -1.91926797E-02  0.00000000E+00 -5.77205999E-02  0.00000000E+00  0.00000000E+00
  3.33250039E-02  0.00000000E+00  8.95599601E-01  0.00000000E+00  0.00000000E+00
 -5.17074671E-01  0.00000000E+00  0.00000000E+00  0.00000000E+00  0.00000000E+00
  0.00000000E+00  0.00000000E+00  0.00000000E+00  0.00000000E+00  0.00000000E+00
  0.00000000E+00  0.00000000E+00  0.00000000E+00  0.00000000E+00  0.00000000E+00
  0.00000000E+00  0.00000000E+00  0.00000000E+00  0.00000000E+00  0.00000000E+00
  0.00000000E+00  0.00000000E+00  0.00000000E+00  0.00000000E+00  0.00000000E+00
  0.00000000E+00  0.00000000E+00  0.00000000E+00  0.00000000E+00  0.00000000E+00
  0.00000000E+00  0.00000000E+00  0.00000000E+00  0.00000000E+00  0.00000000E+00
  3.82886183E-02  0.00000000E+00  0.00000000E+00  0.00000000E+00  0.00000000E+00
 -7.81112554E-02  0.00000000E+00  0.00000000E+00  0.00000000E+00  0.00000000E+00
  1.04072325E+00  0.00000000E+00  0.00000000E+00  0.00000000E+00  0.00000000E+00
  0.00000000E+00  0.00000000E+00  0.00000000E+00  0.00000000E+00  0.00000000E+00
  0.00000000E+00  0.00000000E+00  0.00000000E+00  0.00000000E+00  0.00000000E+00
  0.00000000E+00  0.00000000E+00  0.00000000E+00  0.00000000E+00  0.00000000E+00
  0.00000000E+00  0.00000000E+00  0.00000000E+00  0.00000000E+00  0.00000000E+00
  0.00000000E+00  0.00000000E+00  0.00000000E+00  0.00000000E+00  0.00000000E+00
  0.00000000E+00  0.00000000E+00  0.00000000E+00  0.00000000E+00  0.00000000E+00
  0.00000000E+00  0.00000000E+00  0.00000000E+00  3.82886183E-02  0.00000000E+00
  0.00000000E+00  0.00000000E+00  0.00000000E+00 -7.81112554E-02  0.00000000E+00
  0.00000000E+00  0.00000000E+00  0.00000000E+00  1.04072325E+00  0.00000000E+00
  0.00000000E+00  0.00000000E+00  0.00000000E+00  0.00000000E+00  0.00000000E+00
  0.00000000E+00  0.00000000E+00  0.00000000E+00  0.00000000E+00  0.00000000E+00
  0.00000000E+00  0.00000000E+00  0.00000000E+00  2.52903094E-03 -3.03262377E-02
 -7.88726639E-03  4.96518124E-02 -3.33815065E-02  0.00000000E+00  0.00000000E+00
  0.00000000E+00  0.00000000E+00  0.00000000E+00  0.00000000E+00  0.00000000E+00
  0.00000000E+00  0.00000000E+00  0.00000000E+00  0.00000000E+00  0.00000000E+00
  1.90105605E-02  0.00000000E+00  0.00000000E+00  3.29272567E-02  0.00000000E+00
 -4.07343152E-02  0.00000000E+00  0.00000000E+00 -7.05539036E-02  0.00000000E+00
  5.21209006E-01  0.00000000E+00  0.00000000E+00  9.02760480E-01  0.00000000E+00
  0.00000000E+00  0.00000000E+00  0.00000000E+00  0.00000000E+00  0.00000000E+00
  0.00000000E+00  0.00000000E+00  0.00000000E+00  0.00000000E+00  0.00000000E+00
  0.00000000E+00  0.00000000E+00  0.00000000E+00  0.00000000E+00  0.00000000E+00
  0.00000000E+00  0.00000000E+00  0.00000000E+00  0.00000000E+00  0.00000000E+00
  0.00000000E+00 -2.78514970E-01  0.00000000E+00  0.00000000E+00 -7.25987374E-01
  0.00000000E+00  0.00000000E+00  1.56673842E+00  0.00000000E+00  0.00000000E+00
 -7.18908275E-01  0.00000000E+00  0.00000000E+00  0.00000000E+00  0.00000000E+00
  0.00000000E+00  0.00000000E+00  0.00000000E+00  0.00000000E+00  0.00000000E+00
  0.00000000E+00  0.00000000E+00  0.00000000E+00  0.00000000E+00  0.00000000E+00
  0.00000000E+00 -2.60266403E-03  0.00000000E+00  0.00000000E+00 -3.36002483E-03
  0.00000000E+00  0.00000000E+00  0.00000000E+00  5.93714565E-03  0.00000000E+00
  0.00000000E+00  7.66482209E-03  0.00000000E+00  0.00000000E+00  0.00000000E+00
  0.00000000E+00  0.00000000E+00  0.00000000E+00  0.00000000E+00  0.00000000E+00
 -2.78514970E-01  0.00000000E+00  0.00000000E+00 -7.25987374E-01  0.00000000E+00
  0.00000000E+00  1.56673842E+00  0.00000000E+00  0.00000000E+00 -7.18908275E-01
  0.00000000E+00  0.00000000E+00  0.00000000E+00  0.00000000E+00  0.00000000E+00
  0.00000000E+00  0.00000000E+00  0.00000000E+00  0.00000000E+00  0.00000000E+00
  0.00000000E+00  0.00000000E+00  0.00000000E+00  0.00000000E+00  0.00000000E+00
  0.00000000E+00  0.00000000E+00  0.00000000E+00 -1.06253315E-03  0.00000000E+00
  0.00000000E+00  0.00000000E+00 -4.11517317E-03  0.00000000E+00  0.00000000E+00
  2.42382957E-03  0.00000000E+00  0.00000000E+00  0.00000000E+00  9.38745153E-03
  0.00000000E+00  0.00000000E+00  0.00000000E+00  0.00000000E+00  0.00000000E+00
  0.00000000E+00  0.00000000E+00 -2.82654798E-01  0.00000000E+00  0.00000000E+00
 -7.46626024E-01  0.00000000E+00  0.00000000E+00  1.55924373E+00  0.00000000E+00
  0.00000000E+00 -6.99318901E-01  0.00000000E+00  0.00000000E+00  0.00000000E+00
  0.00000000E+00  0.00000000E+00  0.00000000E+00  0.00000000E+00  0.00000000E+00
  0.00000000E+00  0.00000000E+00  0.00000000E+00  0.00000000E+00  0.00000000E+00
  0.00000000E+00  0.00000000E+00  0.00000000E+00  0.00000000E+00  0.00000000E+00
 -3.36461697E-03  0.00000000E+00  0.00000000E+00  0.00000000E+00 -4.34370183E-03
  0.00000000E+00  0.00000000E+00  7.35877583E-03  0.00000000E+00  0.00000000E+00
  0.00000000E+00  9.50013875E-03  4.78000414E-02 -1.48093980E+00 -3.74264584E-01
  2.64790971E+00 -1.13951196E+00  0.00000000E+00  0.00000000E+00  0.00000000E+00
  0.00000000E+00  0.00000000E+00  0.00000000E+00  0.00000000E+00  0.00000000E+00
  0.00000000E+00  0.00000000E+00  0.00000000E+00  0.00000000E+00 -4.59344392E-03
  0.00000000E+00  0.00000000E+00 -7.95607825E-03  0.00000000E+00  5.14187128E-03
  0.00000000E+00  0.00000000E+00  8.90598230E-03  0.00000000E+00 -1.10775545E-02
  0.00000000E+00  0.00000000E+00 -1.91868873E-02  0.00000000E+00  0.00000000E+00
  0.00000000E+00  0.00000000E+00  0.00000000E+00  0.00000000E+00  0.00000000E+00
  0.00000000E+00  0.00000000E+00  0.00000000E+00  0.00000000E+00  0.00000000E+00
  0.00000000E+00  0.00000000E+00  0.00000000E+00  0.00000000E+00  0.00000000E+00
  0.00000000E+00  0.00000000E+00  0.00000000E+00  0.00000000E+00  0.00000000E+00
  1.06796511E-11  0.00000000E+00  0.00000000E+00 -1.74567885E-11  0.00000000E+00
  0.00000000E+00  3.29216911E-11  0.00000000E+00  0.00000000E+00 -1.22369069E-11
  0.00000000E+00  0.00000000E+00  0.00000000E+00  0.00000000E+00  0.00000000E+00
  0.00000000E+00  0.00000000E+00  0.00000000E+00  0.00000000E+00  0.00000000E+00
  0.00000000E+00  0.00000000E+00  0.00000000E+00  0.00000000E+00  0.00000000E+00
 -8.86723903E-02  0.00000000E+00  0.00000000E+00  6.86853382E-02  0.00000000E+00
  0.00000000E+00  0.00000000E+00  8.36115483E-01  0.00000000E+00  0.00000000E+00
 -6.47652270E-01  0.00000000E+00  0.00000000E+00  0.00000000E+00  0.00000000E+00
  0.00000000E+00  0.00000000E+00  0.00000000E+00  0.00000000E+00 -1.06787987E-11
  0.00000000E+00  0.00000000E+00  1.74532284E-11  0.00000000E+00  0.00000000E+00
 -3.29189220E-11  0.00000000E+00  0.00000000E+00  1.22390900E-11  0.00000000E+00
  0.00000000E+00  0.00000000E+00  0.00000000E+00  0.00000000E+00  0.00000000E+00
  0.00000000E+00  0.00000000E+00  0.00000000E+00  0.00000000E+00  0.00000000E+00
  0.00000000E+00  0.00000000E+00  0.00000000E+00  0.00000000E+00  0.00000000E+00
  0.00000000E+00  0.00000000E+00 -1.08601055E-01  0.00000000E+00  0.00000000E+00
  0.00000000E+00  2.80406718E-02  0.00000000E+00  0.00000000E+00  1.02402815E+00
  0.00000000E+00  0.00000000E+00  0.00000000E+00 -2.64402931E-01  0.00000000E+00
  0.00000000E+00  0.00000000E+00  0.00000000E+00  0.00000000E+00  0.00000000E+00
  0.00000000E+00  0.00000000E+00  0.00000000E+00  0.00000000E+00  0.00000000E+00
  0.00000000E+00  0.00000000E+00  0.00000000E+00  0.00000000E+00  0.00000000E+00
  0.00000000E+00  0.00000000E+00  0.00000000E+00  2.04112753E-02  0.00000000E+00
  0.00000000E+00  0.00000000E+00  0.00000000E+00  1.23762016E+00  0.00000000E+00
  0.00000000E+00  0.00000000E+00  0.00000000E+00 -7.15827017E-01  0.00000000E+00
  0.00000000E+00  0.00000000E+00  0.00000000E+00  0.00000000E+00  0.00000000E+00
  0.00000000E+00  0.00000000E+00  0.00000000E+00  0.00000000E+00  0.00000000E+00
  0.00000000E+00  0.00000000E+00  0.00000000E+00  0.00000000E+00  0.00000000E+00
  0.00000000E+00  1.64811584E-15 -6.98398689E-15 -4.83939686E-15  1.41454965E-14
 -6.07527212E-15  0.00000000E+00  0.00000000E+00  0.00000000E+00  0.00000000E+00
  0.00000000E+00  0.00000000E+00  0.00000000E+00  0.00000000E+00  0.00000000E+00
  0.00000000E+00  0.00000000E+00  0.00000000E+00  1.76766830E-02  0.00000000E+00
  0.00000000E+00 -1.02056377E-02  0.00000000E+00  1.07181050E+00  0.00000000E+00
  0.00000000E+00 -6.18810080E-01  0.00000000E+00 -6.19924381E-01  0.00000000E+00
  0.00000000E+00  3.57913509E-01  0.00000000E+00  0.00000000E+00  0.00000000E+00
  0.00000000E+00  0.00000000E+00  0.00000000E+00  0.00000000E+00  0.00000000E+00
  0.00000000E+00  0.00000000E+00  0.00000000E+00  0.00000000E+00  0.00000000E+00
  0.00000000E+00  0.00000000E+00  0.00000000E+00  0.00000000E+00  0.00000000E+00
  0.00000000E+00  0.00000000E+00  0.00000000E+00 -2.62895886E-15  0.00000000E+00
  0.00000000E+00 -3.18420468E-16  0.00000000E+00  0.00000000E+00  4.11392830E-15
  0.00000000E+00  0.00000000E+00 -3.28679701E-15  0.00000000E+00  0.00000000E+00
  0.00000000E+00  0.00000000E+00  0.00000000E+00  0.00000000E+00  0.00000000E+00
  0.00000000E+00  0.00000000E+00  0.00000000E+00  0.00000000E+00  0.00000000E+00
  0.00000000E+00  0.00000000E+00  0.00000000E+00  0.00000000E+00  0.00000000E+00
  0.00000000E+00 -9.03857118E-02  0.00000000E+00  0.00000000E+00  0.00000000E+00
  7.00124713E-02  0.00000000E+00  0.00000000E+00  8.36927039E-01  0.00000000E+00
  0.00000000E+00  0.00000000E+00 -6.48280897E-01  0.00000000E+00  0.00000000E+00
  0.00000000E+00  0.00000000E+00  0.00000000E+00  0.00000000E+00  0.00000000E+00
  0.00000000E+00  0.00000000E+00  0.00000000E+00  0.00000000E+00  0.00000000E+00
  0.00000000E+00  0.00000000E+00  0.00000000E+00  0.00000000E+00  0.00000000E+00
  0.00000000E+00  0.00000000E+00  0.00000000E+00  0.00000000E+00  0.00000000E+00
  0.00000000E+00  0.00000000E+00  0.00000000E+00  0.00000000E+00  0.00000000E+00
  0.00000000E+00  0.00000000E+00  0.00000000E+00  0.00000000E+00  0.00000000E+00
  0.00000000E+00  0.00000000E+00  0.00000000E+00  0.00000000E+00 -1.14329887E-01
  0.00000000E+00  0.00000000E+00  0.00000000E+00  0.00000000E+00  0.00000000E+00
  0.00000000E+00  1.05863827E+00  0.00000000E+00  0.00000000E+00  0.00000000E+00
  0.00000000E+00  0.00000000E+00  0.00000000E+00  0.00000000E+00  0.00000000E+00
  0.00000000E+00 -6.66119264E-03  0.00000000E+00  0.00000000E+00  1.00799259E-02
  0.00000000E+00  0.00000000E+00 -1.83232966E-02  0.00000000E+00  0.00000000E+00
  6.41760973E-03  0.00000000E+00  0.00000000E+00  0.00000000E+00  0.00000000E+00