 Entering Gaussian System, Link 0=g16
 Input=O.com
 Output=O.log
 Initial command:
 /usr/site/hpc/x86_64/glibc-2.17/broadwell/gaussian/g16_a.03/pgi-16.5/g16/l1.exe "/home/c744/c7441090/data/Gau-3859863.inp" -scrdir="/home/c744/c7441090/data/"
 Entering Link 1 = /usr/site/hpc/x86_64/glibc-2.17/broadwell/gaussian/g16_a.03/pgi-16.5/g16/l1.exe PID=   3859865.
  
 Copyright (c) 1988,1990,1992,1993,1995,1998,2003,2009,2016,
            Gaussian, Inc.  All Rights Reserved.
  
 This is part of the Gaussian(R) 16 program.  It is based on
 the Gaussian(R) 09 system (copyright 2009, Gaussian, Inc.),
 the Gaussian(R) 03 system (copyright 2003, Gaussian, Inc.),
 the Gaussian(R) 98 system (copyright 1998, Gaussian, Inc.),
 the Gaussian(R) 94 system (copyright 1995, Gaussian, Inc.),
 the Gaussian 92(TM) system (copyright 1992, Gaussian, Inc.),
 the Gaussian 90(TM) system (copyright 1990, Gaussian, Inc.),
 the Gaussian 88(TM) system (copyright 1988, Gaussian, Inc.),
 the Gaussian 86(TM) system (copyright 1986, Carnegie Mellon
 University), and the Gaussian 82(TM) system (copyright 1983,
 Carnegie Mellon University). Gaussian is a federally registered
 trademark of Gaussian, Inc.
  
 This software contains proprietary and confidential information,
 including trade secrets, belonging to Gaussian, Inc.
  
 This software is provided under written license and may be
 used, copied, transmitted, or stored only in accord with that
 written license.
  
 The following legend is applicable only to US Government
 contracts under FAR:
  
                    RESTRICTED RIGHTS LEGEND
  
 Use, reproduction and disclosure by the US Government is
 subject to restrictions as set forth in subparagraphs (a)
 and (c) of the Commercial Computer Software - Restricted
 Rights clause in FAR 52.227-19.
  
 Gaussian, Inc.
 340 Quinnipiac St., Bldg. 40, Wallingford CT 06492
  
  
 ---------------------------------------------------------------
 Warning -- This program may not be used in any manner that
 competes with the business of Gaussian, Inc. or will provide
 assistance to any competitor of Gaussian, Inc.  The licensee
 of this program is prohibited from giving any competitor of
 Gaussian, Inc. access to this program.  By using this program,
 the user acknowledges that Gaussian, Inc. is engaged in the
 business of creating and licensing software in the field of
 computational chemistry and represents and warrants to the
 licensee that it is not a competitor of Gaussian, Inc. and that
 it will not use this program in any manner prohibited above.
 ---------------------------------------------------------------
  

 Cite this work as:
 Gaussian 16, Revision A.03,
 M. J. Frisch, G. W. Trucks, H. B. Schlegel, G. E. Scuseria, 
 M. A. Robb, J. R. Cheeseman, G. Scalmani, V. Barone, 
 G. A. Petersson, H. Nakatsuji, X. Li, M. Caricato, A. V. Marenich, 
 J. Bloino, B. G. Janesko, R. Gomperts, B. Mennucci, H. P. Hratchian, 
 J. V. Ortiz, A. F. Izmaylov, J. L. Sonnenberg, D. Williams-Young, 
 F. Ding, F. Lipparini, F. Egidi, J. Goings, B. Peng, A. Petrone, 
 T. Henderson, D. Ranasinghe, V. G. Zakrzewski, J. Gao, N. Rega, 
 G. Zheng, W. Liang, M. Hada, M. Ehara, K. Toyota, R. Fukuda, 
 J. Hasegawa, M. Ishida, T. Nakajima, Y. Honda, O. Kitao, H. Nakai, 
 T. Vreven, K. Throssell, J. A. Montgomery, Jr., J. E. Peralta, 
 F. Ogliaro, M. J. Bearpark, J. J. Heyd, E. N. Brothers, K. N. Kudin, 
 V. N. Staroverov, T. A. Keith, R. Kobayashi, J. Normand, 
 K. Raghavachari, A. P. Rendell, J. C. Burant, S. S. Iyengar, 
 J. Tomasi, M. Cossi, J. M. Millam, M. Klene, C. Adamo, R. Cammi, 
 J. W. Ochterski, R. L. Martin, K. Morokuma, O. Farkas, 
 J. B. Foresman, and D. J. Fox, Gaussian, Inc., Wallingford CT, 2016.
 
 ******************************************
 Gaussian 16:  ES64L-G16RevA.03 25-Dec-2016
                20-Nov-2023 
 ******************************************
 %NProcShared=4
 Will use up to    4 processors via shared memory.
 %Mem=1GB
 %Chk=O.chk
 ----------------------------------------------------
 # B3LYP/aug-cc-pVTZ EmpiricalDispersion=GD3 Pop=Full
 ----------------------------------------------------
 1/38=1,172=1/1;
 2/12=2,17=6,18=5,40=1/2;
 3/5=16,6=1,7=10,11=2,25=1,30=1,74=-5,124=31/1,2,3;
 4//1;
 5/5=2,38=5/2;
 6/7=3,28=1/1;
 99/5=1,9=1/99;
 ------
 Oxygen
 ------
 Symbolic Z-matrix:
 Charge =  0 Multiplicity = 3
 O                     0.        0.        0. 
 
                          Input orientation:                          
 ---------------------------------------------------------------------
 Center     Atomic      Atomic             Coordinates (Angstroms)
 Number     Number       Type             X           Y           Z
 ---------------------------------------------------------------------
      1          8           0        0.000000    0.000000    0.000000
 ---------------------------------------------------------------------
 Stoichiometry    O(3)
 Framework group  OH[O(O)]
 Deg. of freedom     0
 Full point group                 OH      NOp  48
 Largest Abelian subgroup         D2H     NOp   8
 Largest concise Abelian subgroup C1      NOp   1
                         Standard orientation:                         
 ---------------------------------------------------------------------
 Center     Atomic      Atomic             Coordinates (Angstroms)
 Number     Number       Type             X           Y           Z
 ---------------------------------------------------------------------
      1          8           0        0.000000    0.000000    0.000000
 ---------------------------------------------------------------------
 Standard basis: Aug-CC-pVTZ (5D, 7F)
 There are    14 symmetry adapted cartesian basis functions of AG  symmetry.
 There are     3 symmetry adapted cartesian basis functions of B1G symmetry.
 There are     3 symmetry adapted cartesian basis functions of B2G symmetry.
 There are     3 symmetry adapted cartesian basis functions of B3G symmetry.
 There are     2 symmetry adapted cartesian basis functions of AU  symmetry.
 There are    10 symmetry adapted cartesian basis functions of B1U symmetry.
 There are    10 symmetry adapted cartesian basis functions of B2U symmetry.
 There are    10 symmetry adapted cartesian basis functions of B3U symmetry.
 There are    11 symmetry adapted basis functions of AG  symmetry.
 There are     3 symmetry adapted basis functions of B1G symmetry.
 There are     3 symmetry adapted basis functions of B2G symmetry.
 There are     3 symmetry adapted basis functions of B3G symmetry.
 There are     2 symmetry adapted basis functions of AU  symmetry.
 There are     8 symmetry adapted basis functions of B1U symmetry.
 There are     8 symmetry adapted basis functions of B2U symmetry.
 There are     8 symmetry adapted basis functions of B3U symmetry.
    46 basis functions,    72 primitive gaussians,    55 cartesian basis functions
     5 alpha electrons        3 beta electrons
       nuclear repulsion energy         0.0000000000 Hartrees.
 NAtoms=    1 NActive=    1 NUniq=    1 SFac= 1.00D+00 NAtFMM=   60 NAOKFM=F Big=F
 Integral buffers will be    131072 words long.
 Raffenetti 2 integral format.
 Two-electron integral symmetry is turned on.
 Nuclear repulsion after empirical dispersion term =        0.0000000000 Hartrees.
 One-electron integrals computed using PRISM.
 NBasis=    46 RedAO= T EigKep=  3.38D-02  NBF=    11     3     3     3     2     8     8     8
 NBsUse=    46 1.00D-06 EigRej= -1.00D+00 NBFU=    11     3     3     3     2     8     8     8
 ExpMin= 5.97D-02 ExpMax= 1.53D+04 ExpMxC= 5.22D+02 IAcc=3 IRadAn=         5 AccDes= 0.00D+00
 Harris functional with IExCor=  402 and IRadAn=       5 diagonalized for initial guess.
 HarFok:  IExCor=  402 AccDes= 0.00D+00 IRadAn=         5 IDoV= 1 UseB2=F ITyADJ=14
 ICtDFT=  3500011 ScaDFX=  1.000000  1.000000  1.000000  1.000000
 FoFCou: FMM=F IPFlag=           0 FMFlag=      100000 FMFlg1=           0
         NFxFlg=           0 DoJE=T BraDBF=F KetDBF=T FulRan=T
         wScrn=  0.000000 ICntrl=       500 IOpCl=  0 I1Cent=   200000004 NGrid=           0
         NMat0=    1 NMatS0=      1 NMatT0=    0 NMatD0=    1 NMtDS0=    0 NMtDT0=    0
 Petite list used in FoFCou.
 Initial guess orbital symmetries:
 Alpha Orbitals:
       Occupied  (A1G) (A1G) (T1U) (T1U) (T1U)
       Virtual   (A1G) (T1U) (T1U) (T1U) (T2G) (T2G) (T2G) (EG)
                 (EG) (T1U) (T1U) (T1U) (A1G) (T2U) (T2U) (T2U)
                 (A2U) (T1U) (T1U) (T1U) (T2G) (T2G) (T2G) (EG)
                 (EG) (T1U) (T1U) (T1U) (T2U) (T2U) (T2U) (A2U)
                 (T1U) (T1U) (T1U) (T2G) (T2G) (T2G) (EG) (EG)
                 (A1G)
 Beta  Orbitals:
       Occupied  (A1G) (A1G) (T1U)
       Virtual   (T1U) (T1U) (A1G) (T1U) (T1U) (T1U) (T2G) (T2G)
                 (T2G) (EG) (EG) (T1U) (T1U) (T1U) (A1G) (T2U)
                 (T2U) (T2U) (A2U) (T1U) (T1U) (T1U) (T2G) (T2G)
                 (T2G) (EG) (EG) (T1U) (T1U) (T1U) (T2U) (T2U)
                 (T2U) (A2U) (T1U) (T1U) (T1U) (T2G) (T2G) (T2G)
                 (EG) (EG) (A1G)
 Initial guess <Sx>= 0.0000 <Sy>= 0.0000 <Sz>= 1.0000 <S**2>= 2.0000 S= 1.0000
 Keep R1 and R2 ints in memory in symmetry-blocked form, NReq=4095399.
 Requested convergence on RMS density matrix=1.00D-08 within 128 cycles.
 Requested convergence on MAX density matrix=1.00D-06.
 Requested convergence on             energy=1.00D-06.
 No special actions if energy rises.
 Integral accuracy reduced to 1.0D-05 until final iterations.
 Density matrix breaks symmetry, PCut= 1.00D-04
 Density has only Abelian symmetry.
 Density matrix breaks symmetry, PCut= 1.00D-04
 Density has only Abelian symmetry.
 Density matrix breaks symmetry, PCut= 1.00D-04
 Density has only Abelian symmetry.
 Density matrix breaks symmetry, PCut= 1.00D-04
 Density has only Abelian symmetry.
 Density matrix breaks symmetry, PCut= 1.00D-04
 Density has only Abelian symmetry.
 Initial convergence to 1.0D-05 achieved.  Increase integral accuracy.
 Density matrix breaks symmetry, PCut= 1.00D-04
 Density has only Abelian symmetry.
 Density matrix breaks symmetry, PCut= 1.00D-04
 Density has only Abelian symmetry.
 Density matrix breaks symmetry, PCut= 1.00D-04
 Density has only Abelian symmetry.
 Density matrix breaks symmetry, PCut= 1.00D-04
 Density has only Abelian symmetry.
 Density matrix breaks symmetry, PCut= 1.00D-04
 Density has only Abelian symmetry.
 Density matrix breaks symmetry, PCut= 1.00D-04
 Density has only Abelian symmetry.
 SCF Done:  E(UB3LYP) =  -75.0941778191     A.U. after   10 cycles
            NFock= 10  Conv=0.50D-09     -V/T= 2.0053
 <Sx>= 0.0000 <Sy>= 0.0000 <Sz>= 1.0000 <S**2>= 2.0039 S= 1.0013
 <L.S>= 0.000000000000E+00
 Annihilation of the first spin contaminant:
 S**2 before annihilation     2.0039,   after     2.0000
 SCF density gives NOpUse=  8 NOpAll= 48.

 **********************************************************************

            Population analysis using the SCF density.

 **********************************************************************

 Orbital symmetries:
 Alpha Orbitals:
       Occupied  (A1G) (?A) (?B) (?B) (?B)
       Virtual   (?A) (?B) (?B) (?B) (T2G) (?A) (T2G) (T2G) (?A)
                 (?B) (?B) (?B) (?A) (?B) (?B) (T2G) (?A) (?B)
                 (A2U) (?B) (?B) (?B) (T2G) (T2G) (?A) (?C) (?C)
                 (?C) (?C) (?C) (?C) (A2U) (?C) (?C) (?C) (T2G)
                 (?A) (T2G) (T2G) (?A) (?A)
 Beta  Orbitals:
       Occupied  (A1G) (T2G) (?A)
       Virtual   (?A) (?A) (A1G) (?A) (?A) (?A) (T2G) (T2G) (EG)
                 (T2G) (EG) (?A) (?A) (?A) (A1G) (?B) (A2U) (?B)
                 (?B) (?B) (?B) (?B) (T2G) (T2G) (T2G) (T2G) (T2G)
                 (T1U) (T1U) (T1U) (A2U) (?B) (?B) (?B) (?B) (?B)
                 (?B) (T2G) (T2G) (T2G) (T2G) (T2G) (T2G)
 Unable to determine electronic state:  an orbital has unidentified symmetry.
 Alpha  occ. eigenvalues --  -19.28476  -1.02520  -0.46575  -0.46575  -0.39112
 Alpha virt. eigenvalues --    0.06335   0.09427   0.09427   0.09777   0.48542
 Alpha virt. eigenvalues --    0.48542   0.49721   0.49721   0.50212   0.68375
 Alpha virt. eigenvalues --    0.68375   0.71588   1.03592   1.76503   1.76503
 Alpha virt. eigenvalues --    1.78274   1.78274   1.78349   1.78349   1.79455
 Alpha virt. eigenvalues --    1.79455   1.79874   1.82194   1.82194   1.83617
 Alpha virt. eigenvalues --    3.57322   3.57322   3.63600   5.88115   5.88115
 Alpha virt. eigenvalues --    5.92224   5.92224   5.94716   5.94716   5.95593
 Alpha virt. eigenvalues --    6.30985   6.30985   6.36964   6.36964   6.38944
 Alpha virt. eigenvalues --    7.63210
  Beta  occ. eigenvalues --  -19.23331  -0.86672  -0.34054
  Beta virt. eigenvalues --   -0.18895  -0.18895   0.07444   0.10004   0.11228
  Beta virt. eigenvalues --    0.11228   0.50745   0.50745   0.51068   0.51195
  Beta virt. eigenvalues --    0.51195   0.73352   0.75802   0.75802   1.09942
  Beta virt. eigenvalues --    1.81286   1.81286   1.81545   1.81545   1.81571
  Beta virt. eigenvalues --    1.81584   1.81584   1.87813   1.87813   1.88292
  Beta virt. eigenvalues --    1.89256   1.89256   3.67647   3.71105   3.71105
  Beta virt. eigenvalues --    6.01196   6.01196   6.01512   6.01712   6.01712
  Beta virt. eigenvalues --    6.02568   6.02568   6.47299   6.47299   6.48125
  Beta virt. eigenvalues --    6.51157   6.51157   7.72232
     Alpha Molecular Orbital Coefficients:
                           1         2         3         4         5
                       (A1G)--O      O         O         O         O
     Eigenvalues --   -19.28476  -1.02520  -0.46575  -0.46575  -0.39112
   1 1   O  1S          0.97199  -0.23235   0.00000   0.00000   0.00000
   2        2S         -0.01254   0.56627   0.00000   0.00000   0.00000
   3        3S          0.05294   0.17694   0.00000   0.00000   0.00000
   4        4S          0.00428   0.35757   0.00000   0.00000   0.00000
   5        5S         -0.00097   0.00661   0.00000   0.00000   0.00000
   6        6PX         0.00000   0.00000   0.40718   0.00000   0.00000
   7        6PY         0.00000   0.00000   0.00000   0.00000   0.39740
   8        6PZ         0.00000   0.00000   0.00000   0.40718   0.00000
   9        7PX         0.00000   0.00000   0.48607   0.00000   0.00000
  10        7PY         0.00000   0.00000   0.00000   0.00000   0.46762
  11        7PZ         0.00000   0.00000   0.00000   0.48607   0.00000
  12        8PX         0.00000   0.00000   0.31085   0.00000   0.00000
  13        8PY         0.00000   0.00000   0.00000   0.00000   0.33524
  14        8PZ         0.00000   0.00000   0.00000   0.31085   0.00000
  15        9PX         0.00000   0.00000   0.02374   0.00000   0.00000
  16        9PY         0.00000   0.00000   0.00000   0.00000   0.04271
  17        9PZ         0.00000   0.00000   0.00000   0.02374   0.00000
  18       10D 0        0.00030   0.00367   0.00000   0.00000   0.00000
  19       10D+1        0.00000   0.00000   0.00000   0.00000   0.00000
  20       10D-1        0.00000   0.00000   0.00000   0.00000   0.00000
  21       10D+2        0.00053   0.00636   0.00000   0.00000   0.00000
  22       10D-2        0.00000   0.00000   0.00000   0.00000   0.00000
  23       11D 0       -0.00012   0.00703   0.00000   0.00000   0.00000
  24       11D+1        0.00000   0.00000   0.00000   0.00000   0.00000
  25       11D-1        0.00000   0.00000   0.00000   0.00000   0.00000
  26       11D+2       -0.00020   0.01218   0.00000   0.00000   0.00000
  27       11D-2        0.00000   0.00000   0.00000   0.00000   0.00000
  28       12D 0        0.00005   0.00059   0.00000   0.00000   0.00000
  29       12D+1        0.00000   0.00000   0.00000   0.00000   0.00000
  30       12D-1        0.00000   0.00000   0.00000   0.00000   0.00000
  31       12D+2        0.00008   0.00102   0.00000   0.00000   0.00000
  32       12D-2        0.00000   0.00000   0.00000   0.00000   0.00000
  33       13F 0        0.00000   0.00000   0.00000   0.00332   0.00000
  34       13F+1        0.00000   0.00000   0.00136   0.00000   0.00000
  35       13F-1        0.00000   0.00000   0.00000   0.00000   0.00401
  36       13F+2        0.00000   0.00000   0.00000   0.00429   0.00000
  37       13F-2        0.00000   0.00000   0.00000   0.00000   0.00000
  38       13F+3        0.00000   0.00000   0.00525   0.00000   0.00000
  39       13F-3        0.00000   0.00000   0.00000   0.00000   0.00517
  40       14F 0        0.00000   0.00000   0.00000   0.00259   0.00000
  41       14F+1        0.00000   0.00000   0.00106   0.00000   0.00000
  42       14F-1        0.00000   0.00000   0.00000   0.00000   0.00347
  43       14F+2        0.00000   0.00000   0.00000   0.00334   0.00000
  44       14F-2        0.00000   0.00000   0.00000   0.00000   0.00000
  45       14F+3        0.00000   0.00000   0.00409   0.00000   0.00000
  46       14F-3        0.00000   0.00000   0.00000   0.00000   0.00448
                           6         7         8         9        10
                           V         V         V         V     (T2G)--V
     Eigenvalues --     0.06335   0.09427   0.09427   0.09777   0.48542
   1 1   O  1S          0.07678   0.00000   0.00000   0.00000   0.00000
   2        2S         -0.12110   0.00000   0.00000   0.00000   0.00000
   3        3S         -0.06809   0.00000   0.00000   0.00000   0.00000
   4        4S         -0.77143   0.00000   0.00000   0.00000   0.00000
   5        5S          1.46941   0.00000   0.00000   0.00000   0.00000
   6        6PX         0.00000   0.00000  -0.11872   0.00000   0.00000
   7        6PY         0.00000   0.00000   0.00000  -0.12470   0.00000
   8        6PZ         0.00000  -0.11872   0.00000   0.00000   0.00000
   9        7PX         0.00000   0.00000  -0.10798   0.00000   0.00000
  10        7PY         0.00000   0.00000   0.00000  -0.10892   0.00000
  11        7PZ         0.00000  -0.10798   0.00000   0.00000   0.00000
  12        8PX         0.00000   0.00000  -0.25905   0.00000   0.00000
  13        8PY         0.00000   0.00000   0.00000  -0.29826   0.00000
  14        8PZ         0.00000  -0.25905   0.00000   0.00000   0.00000
  15        9PX         0.00000   0.00000   1.12610   0.00000   0.00000
  16        9PY         0.00000   0.00000   0.00000   1.13858   0.00000
  17        9PZ         0.00000   1.12610   0.00000   0.00000   0.00000
  18       10D 0       -0.00112   0.00000   0.00000   0.00000   0.00000
  19       10D+1        0.00000   0.00000   0.00000   0.00000   0.03839
  20       10D-1        0.00000   0.00000   0.00000   0.00000   0.00000
  21       10D+2       -0.00194   0.00000   0.00000   0.00000   0.00000
  22       10D-2        0.00000   0.00000   0.00000   0.00000   0.00000
  23       11D 0       -0.00158   0.00000   0.00000   0.00000   0.00000
  24       11D+1        0.00000   0.00000   0.00000   0.00000  -0.06665
  25       11D-1        0.00000   0.00000   0.00000   0.00000   0.00000
  26       11D+2       -0.00274   0.00000   0.00000   0.00000   0.00000
  27       11D-2        0.00000   0.00000   0.00000   0.00000   0.00000
  28       12D 0        0.00561   0.00000   0.00000   0.00000   0.00000
  29       12D+1        0.00000   0.00000   0.00000   0.00000   1.03415
  30       12D-1        0.00000   0.00000   0.00000   0.00000   0.00000
  31       12D+2        0.00972   0.00000   0.00000   0.00000   0.00000
  32       12D-2        0.00000   0.00000   0.00000   0.00000   0.00000
  33       13F 0        0.00000  -0.00096   0.00000   0.00000   0.00000
  34       13F+1        0.00000   0.00000  -0.00039   0.00000   0.00000
  35       13F-1        0.00000   0.00000   0.00000  -0.00127   0.00000
  36       13F+2        0.00000  -0.00124   0.00000   0.00000   0.00000
  37       13F-2        0.00000   0.00000   0.00000   0.00000   0.00000
  38       13F+3        0.00000   0.00000  -0.00152   0.00000   0.00000
  39       13F-3        0.00000   0.00000   0.00000  -0.00164   0.00000
  40       14F 0        0.00000   0.00060   0.00000   0.00000   0.00000
  41       14F+1        0.00000   0.00000   0.00024   0.00000   0.00000
  42       14F-1        0.00000   0.00000   0.00000   0.00057   0.00000
  43       14F+2        0.00000   0.00077   0.00000   0.00000   0.00000
  44       14F-2        0.00000   0.00000   0.00000   0.00000   0.00000
  45       14F+3        0.00000   0.00000   0.00095   0.00000   0.00000
  46       14F-3        0.00000   0.00000   0.00000   0.00074   0.00000
                          11        12        13        14        15
                           V     (T2G)--V  (T2G)--V      V         V
     Eigenvalues --     0.48542   0.49721   0.49721   0.50212   0.68375
   1 1   O  1S          0.00000   0.00000   0.00000   0.00253   0.00000
   2        2S         -0.00000   0.00000   0.00000  -0.03033   0.00000
   3        3S         -0.00000   0.00000   0.00000  -0.00789   0.00000
   4        4S         -0.00000   0.00000   0.00000   0.04965   0.00000
   5        5S          0.00000   0.00000   0.00000  -0.03338   0.00000
   6        6PX         0.00000   0.00000   0.00000   0.00000   0.00000
   7        6PY         0.00000   0.00000   0.00000   0.00000   0.00000
   8        6PZ         0.00000   0.00000   0.00000   0.00000  -0.27851
   9        7PX         0.00000   0.00000   0.00000   0.00000   0.00000
  10        7PY         0.00000   0.00000   0.00000   0.00000   0.00000
  11        7PZ         0.00000   0.00000   0.00000   0.00000  -0.72599
  12        8PX         0.00000   0.00000   0.00000   0.00000   0.00000
  13        8PY         0.00000   0.00000   0.00000   0.00000   0.00000
  14        8PZ         0.00000   0.00000   0.00000   0.00000   1.56674
  15        9PX         0.00000   0.00000   0.00000   0.00000   0.00000
  16        9PY         0.00000   0.00000   0.00000   0.00000   0.00000
  17        9PZ         0.00000   0.00000   0.00000   0.00000  -0.71891
  18       10D 0        0.03324   0.00000   0.00000   0.01901   0.00000
  19       10D+1        0.00000   0.00000   0.00000   0.00000   0.00000
  20       10D-1        0.00000   0.03829   0.00000   0.00000   0.00000
  21       10D+2       -0.01919   0.00000   0.00000   0.03293   0.00000
  22       10D-2        0.00000   0.00000   0.03829   0.00000   0.00000
  23       11D 0       -0.05772   0.00000   0.00000  -0.04073   0.00000
  24       11D+1        0.00000   0.00000   0.00000   0.00000   0.00000
  25       11D-1        0.00000  -0.07811   0.00000   0.00000   0.00000
  26       11D+2        0.03333   0.00000   0.00000  -0.07055   0.00000
  27       11D-2        0.00000   0.00000  -0.07811   0.00000   0.00000
  28       12D 0        0.89560   0.00000   0.00000   0.52121   0.00000
  29       12D+1        0.00000   0.00000   0.00000   0.00000   0.00000
  30       12D-1        0.00000   1.04072   0.00000   0.00000   0.00000
  31       12D+2       -0.51707   0.00000   0.00000   0.90276   0.00000
  32       12D-2        0.00000   0.00000   1.04072   0.00000   0.00000
  33       13F 0        0.00000   0.00000   0.00000   0.00000  -0.00260
  34       13F+1        0.00000   0.00000   0.00000   0.00000   0.00000
  35       13F-1        0.00000   0.00000   0.00000   0.00000   0.00000
  36       13F+2        0.00000   0.00000   0.00000   0.00000  -0.00336
  37       13F-2        0.00000   0.00000   0.00000   0.00000   0.00000
  38       13F+3        0.00000   0.00000   0.00000   0.00000   0.00000
  39       13F-3        0.00000   0.00000   0.00000   0.00000   0.00000
  40       14F 0        0.00000   0.00000   0.00000   0.00000   0.00594
  41       14F+1        0.00000   0.00000   0.00000   0.00000   0.00000
  42       14F-1        0.00000   0.00000   0.00000   0.00000   0.00000
  43       14F+2        0.00000   0.00000   0.00000   0.00000   0.00766
  44       14F-2        0.00000   0.00000   0.00000   0.00000   0.00000
  45       14F+3        0.00000   0.00000   0.00000   0.00000   0.00000
  46       14F-3        0.00000   0.00000   0.00000   0.00000   0.00000
                          16        17        18        19        20
                           V         V         V         V         V
     Eigenvalues --     0.68375   0.71588   1.03592   1.76503   1.76503
   1 1   O  1S          0.00000   0.00000   0.04780   0.00000   0.00000
   2        2S          0.00000   0.00000  -1.48094   0.00000   0.00000
   3        3S          0.00000   0.00000  -0.37426   0.00000   0.00000
   4        4S          0.00000   0.00000   2.64791   0.00000   0.00000
   5        5S          0.00000   0.00000  -1.13951   0.00000   0.00000
   6        6PX        -0.27851   0.00000   0.00000   0.00000  -0.00000
   7        6PY         0.00000  -0.28265   0.00000   0.00000   0.00000
   8        6PZ         0.00000   0.00000   0.00000   0.00000   0.00000
   9        7PX        -0.72599   0.00000   0.00000   0.00000   0.00000
  10        7PY         0.00000  -0.74663   0.00000   0.00000   0.00000
  11        7PZ         0.00000   0.00000   0.00000  -0.00000   0.00000
  12        8PX         1.56674   0.00000   0.00000   0.00000  -0.00000
  13        8PY         0.00000   1.55924   0.00000   0.00000   0.00000
  14        8PZ         0.00000   0.00000   0.00000   0.00000   0.00000
  15        9PX        -0.71891   0.00000   0.00000   0.00000   0.00000
  16        9PY         0.00000  -0.69932   0.00000   0.00000   0.00000
  17        9PZ         0.00000   0.00000   0.00000  -0.00000   0.00000
  18       10D 0        0.00000   0.00000  -0.00459   0.00000   0.00000
  19       10D+1        0.00000   0.00000   0.00000   0.00000   0.00000
  20       10D-1        0.00000   0.00000   0.00000   0.00000   0.00000
  21       10D+2        0.00000   0.00000  -0.00796   0.00000   0.00000
  22       10D-2        0.00000   0.00000   0.00000   0.00000   0.00000
  23       11D 0        0.00000   0.00000   0.00514   0.00000   0.00000
  24       11D+1        0.00000   0.00000   0.00000   0.00000   0.00000
  25       11D-1        0.00000   0.00000   0.00000   0.00000   0.00000
  26       11D+2        0.00000   0.00000   0.00891   0.00000   0.00000
  27       11D-2        0.00000   0.00000   0.00000   0.00000   0.00000
  28       12D 0        0.00000   0.00000  -0.01108   0.00000   0.00000
  29       12D+1        0.00000   0.00000   0.00000   0.00000   0.00000
  30       12D-1        0.00000   0.00000   0.00000   0.00000   0.00000
  31       12D+2        0.00000   0.00000  -0.01919   0.00000   0.00000
  32       12D-2        0.00000   0.00000   0.00000   0.00000   0.00000
  33       13F 0        0.00000   0.00000   0.00000  -0.08867   0.00000
  34       13F+1       -0.00106   0.00000   0.00000   0.00000  -0.10860
  35       13F-1        0.00000  -0.00336   0.00000   0.00000   0.00000
  36       13F+2        0.00000   0.00000   0.00000   0.06869   0.00000
  37       13F-2        0.00000   0.00000   0.00000   0.00000   0.00000
  38       13F+3       -0.00412   0.00000   0.00000   0.00000   0.02804
  39       13F-3        0.00000  -0.00434   0.00000   0.00000   0.00000
  40       14F 0        0.00000   0.00000   0.00000   0.83612   0.00000
  41       14F+1        0.00242   0.00000   0.00000   0.00000   1.02403
  42       14F-1        0.00000   0.00736   0.00000   0.00000   0.00000
  43       14F+2        0.00000   0.00000   0.00000  -0.64765   0.00000
  44       14F-2        0.00000   0.00000   0.00000   0.00000   0.00000
  45       14F+3        0.00939   0.00000   0.00000   0.00000  -0.26440
  46       14F-3        0.00000   0.00950   0.00000   0.00000   0.00000
                          21        22        23        24        25
                       (T2G)--V      V         V     (A2U)--V      V
     Eigenvalues --     1.78274   1.78274   1.78349   1.78349   1.79455
   1 1   O  1S          0.00000   0.00000   0.00000   0.00000   0.00000
   2        2S          0.00000  -0.00000   0.00000   0.00000   0.00000
   3        3S          0.00000  -0.00000   0.00000   0.00000   0.00000
   4        4S          0.00000   0.00000   0.00000   0.00000   0.00000
   5        5S          0.00000  -0.00000   0.00000   0.00000   0.00000
   6        6PX         0.00000   0.00000   0.00000   0.00000   0.00000
   7        6PY         0.00000   0.00000  -0.00000   0.00000   0.00000
   8        6PZ         0.00000   0.00000   0.00000   0.00000  -0.00666
   9        7PX         0.00000   0.00000   0.00000   0.00000   0.00000
  10        7PY         0.00000   0.00000  -0.00000   0.00000   0.00000
  11        7PZ         0.00000   0.00000   0.00000   0.00000   0.01008
  12        8PX         0.00000   0.00000   0.00000   0.00000   0.00000
  13        8PY         0.00000   0.00000   0.00000   0.00000   0.00000
  14        8PZ         0.00000   0.00000   0.00000   0.00000  -0.01832
  15        9PX         0.00000   0.00000   0.00000   0.00000   0.00000
  16        9PY         0.00000   0.00000  -0.00000   0.00000   0.00000
  17        9PZ         0.00000   0.00000   0.00000   0.00000   0.00642
  18       10D 0        0.00000   0.01768   0.00000   0.00000   0.00000
  19       10D+1        0.02041   0.00000   0.00000   0.00000   0.00000
  20       10D-1        0.00000   0.00000   0.00000   0.00000   0.00000
  21       10D+2        0.00000  -0.01021   0.00000   0.00000   0.00000
  22       10D-2        0.00000   0.00000   0.00000   0.00000   0.00000
  23       11D 0        0.00000   1.07181   0.00000   0.00000   0.00000
  24       11D+1        1.23762   0.00000   0.00000   0.00000   0.00000
  25       11D-1        0.00000   0.00000   0.00000   0.00000   0.00000
  26       11D+2        0.00000  -0.61881   0.00000   0.00000   0.00000
  27       11D-2        0.00000   0.00000   0.00000   0.00000   0.00000
  28       12D 0        0.00000  -0.61992   0.00000   0.00000   0.00000
  29       12D+1       -0.71583   0.00000   0.00000   0.00000   0.00000
  30       12D-1        0.00000   0.00000   0.00000   0.00000   0.00000
  31       12D+2        0.00000   0.35791   0.00000   0.00000   0.00000
  32       12D-2        0.00000   0.00000   0.00000   0.00000   0.00000
  33       13F 0        0.00000   0.00000   0.00000   0.00000  -0.07081
  34       13F+1        0.00000   0.00000   0.00000   0.00000   0.00000
  35       13F-1        0.00000   0.00000  -0.09039   0.00000   0.00000
  36       13F+2        0.00000   0.00000   0.00000   0.00000  -0.09141
  37       13F-2        0.00000   0.00000   0.00000  -0.11433   0.00000
  38       13F+3        0.00000   0.00000   0.00000   0.00000   0.00000
  39       13F-3        0.00000   0.00000   0.07001   0.00000   0.00000
  40       14F 0        0.00000   0.00000   0.00000   0.00000   0.64862
  41       14F+1        0.00000   0.00000   0.00000   0.00000   0.00000
  42       14F-1        0.00000   0.00000   0.83693   0.00000   0.00000
  43       14F+2        0.00000   0.00000   0.00000   0.00000   0.83736
  44       14F-2        0.00000   0.00000   0.00000   1.05864   0.00000
  45       14F+3        0.00000   0.00000   0.00000   0.00000   0.00000
  46       14F-3        0.00000   0.00000  -0.64828   0.00000   0.00000
                          26        27        28        29        30
                           V         V     (T2G)--V  (T2G)--V      V
     Eigenvalues --     1.79455   1.79874   1.82194   1.82194   1.83617
   1 1   O  1S          0.00000   0.00000   0.00000   0.00000   0.00742
   2        2S          0.00000   0.00000   0.00000   0.00000   0.00389
   3        3S          0.00000   0.00000   0.00000   0.00000  -0.00953
   4        4S          0.00000   0.00000   0.00000   0.00000  -0.02070
   5        5S          0.00000   0.00000   0.00000   0.00000   0.00944
   6        6PX        -0.00666   0.00000   0.00000   0.00000   0.00000
   7        6PY         0.00000  -0.00801   0.00000   0.00000   0.00000
   8        6PZ         0.00000   0.00000   0.00000   0.00000   0.00000
   9        7PX         0.01008   0.00000   0.00000   0.00000   0.00000
  10        7PY         0.00000   0.01211   0.00000   0.00000   0.00000
  11        7PZ         0.00000   0.00000   0.00000   0.00000   0.00000
  12        8PX        -0.01832   0.00000   0.00000   0.00000   0.00000
  13        8PY         0.00000  -0.02260   0.00000   0.00000   0.00000
  14        8PZ         0.00000   0.00000   0.00000   0.00000   0.00000
  15        9PX         0.00642   0.00000   0.00000   0.00000   0.00000
  16        9PY         0.00000   0.00781   0.00000   0.00000   0.00000
  17        9PZ         0.00000   0.00000   0.00000   0.00000   0.00000
  18       10D 0        0.00000   0.00000   0.00000   0.00000   0.00797
  19       10D+1        0.00000   0.00000   0.00000   0.00000   0.00000
  20       10D-1        0.00000   0.00000   0.00000   0.01714   0.00000
  21       10D+2        0.00000   0.00000   0.00000   0.00000   0.01380
  22       10D-2        0.00000   0.00000   0.01714   0.00000   0.00000
  23       11D 0        0.00000   0.00000   0.00000   0.00000   0.62000
  24       11D+1        0.00000   0.00000   0.00000   0.00000   0.00000
  25       11D-1        0.00000   0.00000   0.00000   1.23948   0.00000
  26       11D+2        0.00000   0.00000   0.00000   0.00000   1.07387
  27       11D-2        0.00000   0.00000   1.23948   0.00000   0.00000
  28       12D 0        0.00000   0.00000   0.00000   0.00000  -0.35230
  29       12D+1        0.00000   0.00000   0.00000   0.00000   0.00000
  30       12D-1        0.00000   0.00000   0.00000  -0.70723   0.00000
  31       12D+2        0.00000   0.00000   0.00000   0.00000  -0.61020
  32       12D-2        0.00000   0.00000  -0.70723   0.00000   0.00000
  33       13F 0        0.00000   0.00000   0.00000   0.00000   0.00000
  34       13F+1       -0.02891   0.00000   0.00000   0.00000   0.00000
  35       13F-1        0.00000  -0.07106   0.00000   0.00000   0.00000
  36       13F+2        0.00000   0.00000   0.00000   0.00000   0.00000
  37       13F-2        0.00000   0.00000   0.00000   0.00000   0.00000
  38       13F+3       -0.11195   0.00000   0.00000   0.00000   0.00000
  39       13F-3        0.00000  -0.09174   0.00000   0.00000   0.00000
  40       14F 0        0.00000   0.00000   0.00000   0.00000   0.00000
  41       14F+1        0.26480   0.00000   0.00000   0.00000   0.00000
  42       14F-1        0.00000   0.64872   0.00000   0.00000   0.00000
  43       14F+2        0.00000   0.00000   0.00000   0.00000   0.00000
  44       14F-2        0.00000   0.00000   0.00000   0.00000   0.00000
  45       14F+3        1.02555   0.00000   0.00000   0.00000   0.00000
  46       14F-3        0.00000   0.83749   0.00000   0.00000   0.00000
                          31        32        33        34        35
                           V         V         V         V         V
     Eigenvalues --     3.57322   3.57322   3.63600   5.88115   5.88115
   1 1   O  1S          0.00000   0.00000   0.00000   0.00000   0.00000
   2        2S          0.00000   0.00000   0.00000   0.00000   0.00000
   3        3S          0.00000   0.00000   0.00000   0.00000   0.00000
   4        4S          0.00000   0.00000   0.00000   0.00000   0.00000
   5        5S          0.00000   0.00000   0.00000   0.00000   0.00000
   6        6PX        -1.22598   0.00000   0.00000   0.00000   0.00000
   7        6PY         0.00000   0.00000  -1.22763   0.00000   0.00000
   8        6PZ         0.00000  -1.22598   0.00000  -0.00000   0.00000
   9        7PX         1.57110   0.00000   0.00000   0.00000  -0.00000
  10        7PY         0.00000   0.00000   1.56691   0.00000   0.00000
  11        7PZ         0.00000   1.57110   0.00000   0.00000   0.00000
  12        8PX        -0.86710   0.00000   0.00000   0.00000   0.00000
  13        8PY         0.00000   0.00000  -0.85876   0.00000   0.00000
  14        8PZ         0.00000  -0.86710   0.00000  -0.00000   0.00000
  15        9PX         0.27165   0.00000   0.00000   0.00000  -0.00000
  16        9PY         0.00000   0.00000   0.26837   0.00000   0.00000
  17        9PZ         0.00000   0.27165   0.00000   0.00000   0.00000
  18       10D 0        0.00000   0.00000   0.00000   0.00000   0.00000
  19       10D+1        0.00000   0.00000   0.00000   0.00000   0.00000
  20       10D-1        0.00000   0.00000   0.00000   0.00000   0.00000
  21       10D+2        0.00000   0.00000   0.00000   0.00000   0.00000
  22       10D-2        0.00000   0.00000   0.00000   0.00000   0.00000
  23       11D 0        0.00000   0.00000   0.00000   0.00000   0.00000
  24       11D+1        0.00000   0.00000   0.00000   0.00000   0.00000
  25       11D-1        0.00000   0.00000   0.00000   0.00000   0.00000
  26       11D+2        0.00000   0.00000   0.00000   0.00000   0.00000
  27       11D-2        0.00000   0.00000   0.00000   0.00000   0.00000
  28       12D 0        0.00000   0.00000   0.00000   0.00000   0.00000
  29       12D+1        0.00000   0.00000   0.00000   0.00000   0.00000
  30       12D-1        0.00000   0.00000   0.00000   0.00000   0.00000
  31       12D+2        0.00000   0.00000   0.00000   0.00000   0.00000
  32       12D-2        0.00000   0.00000   0.00000   0.00000   0.00000
  33       13F 0        0.00000   0.00437   0.00000   0.94446   0.00000
  34       13F+1        0.00178   0.00000   0.00000   0.00000   1.15672
  35       13F-1        0.00000   0.00000   0.00553   0.00000   0.00000
  36       13F+2        0.00000   0.00564   0.00000  -0.73158   0.00000
  37       13F-2        0.00000   0.00000   0.00000   0.00000   0.00000
  38       13F+3        0.00691   0.00000   0.00000   0.00000  -0.29867
  39       13F-3        0.00000   0.00000   0.00713   0.00000   0.00000
  40       14F 0        0.00000  -0.00511   0.00000  -0.44809   0.00000
  41       14F+1       -0.00209   0.00000   0.00000   0.00000  -0.54879
  42       14F-1        0.00000   0.00000  -0.00621   0.00000   0.00000
  43       14F+2        0.00000  -0.00660   0.00000   0.34709   0.00000
  44       14F-2        0.00000   0.00000   0.00000   0.00000   0.00000
  45       14F+3       -0.00808   0.00000   0.00000   0.00000   0.14170
  46       14F-3        0.00000   0.00000  -0.00802   0.00000   0.00000
                          36        37        38        39        40
                           V     (A2U)--V      V         V         V
     Eigenvalues --     5.92224   5.92224   5.94716   5.94716   5.95593
   1 1   O  1S          0.00000   0.00000   0.00000   0.00000   0.00000
   2        2S          0.00000   0.00000   0.00000   0.00000   0.00000
   3        3S          0.00000   0.00000   0.00000   0.00000   0.00000
   4        4S          0.00000   0.00000   0.00000   0.00000   0.00000
   5        5S          0.00000   0.00000   0.00000   0.00000   0.00000
   6        6PX         0.00000   0.00000   0.00000   0.00368   0.00000
   7        6PY         0.00000   0.00000   0.00000   0.00000   0.00480
   8        6PZ         0.00000   0.00000   0.00368   0.00000   0.00000
   9        7PX         0.00000   0.00000   0.00000  -0.01335   0.00000
  10        7PY        -0.00000   0.00000   0.00000   0.00000  -0.01685
  11        7PZ         0.00000   0.00000  -0.01335   0.00000   0.00000
  12        8PX         0.00000   0.00000   0.00000   0.00723   0.00000
  13        8PY         0.00000   0.00000   0.00000   0.00000   0.00911
  14        8PZ         0.00000   0.00000   0.00723   0.00000   0.00000
  15        9PX         0.00000   0.00000   0.00000  -0.00219   0.00000
  16        9PY        -0.00000   0.00000   0.00000   0.00000  -0.00275
  17        9PZ         0.00000   0.00000  -0.00219   0.00000   0.00000
  18       10D 0        0.00000   0.00000   0.00000   0.00000   0.00000
  19       10D+1        0.00000   0.00000   0.00000   0.00000   0.00000
  20       10D-1        0.00000   0.00000   0.00000   0.00000   0.00000
  21       10D+2        0.00000   0.00000   0.00000   0.00000   0.00000
  22       10D-2        0.00000   0.00000   0.00000   0.00000   0.00000
  23       11D 0        0.00000   0.00000   0.00000   0.00000   0.00000
  24       11D+1        0.00000   0.00000   0.00000   0.00000   0.00000
  25       11D-1        0.00000   0.00000   0.00000   0.00000   0.00000
  26       11D+2        0.00000   0.00000   0.00000   0.00000   0.00000
  27       11D-2        0.00000   0.00000   0.00000   0.00000   0.00000
  28       12D 0        0.00000   0.00000   0.00000   0.00000   0.00000
  29       12D+1        0.00000   0.00000   0.00000   0.00000   0.00000
  30       12D-1        0.00000   0.00000   0.00000   0.00000   0.00000
  31       12D+2        0.00000   0.00000   0.00000   0.00000   0.00000
  32       12D-2        0.00000   0.00000   0.00000   0.00000   0.00000
  33       13F 0        0.00000   0.00000   0.73135   0.00000   0.00000
  34       13F+1        0.00000   0.00000   0.00000   0.29857   0.00000
  35       13F-1        0.94430   0.00000   0.00000   0.00000   0.73131
  36       13F+2        0.00000   0.00000   0.94417   0.00000   0.00000
  37       13F-2        0.00000   1.19445   0.00000   0.00000   0.00000
  38       13F+3        0.00000   0.00000   0.00000   1.15636   0.00000
  39       13F-3       -0.73145   0.00000   0.00000   0.00000   0.94412
  40       14F 0        0.00000   0.00000  -0.34518   0.00000   0.00000
  41       14F+1        0.00000   0.00000   0.00000  -0.14092   0.00000
  42       14F-1       -0.44657   0.00000   0.00000   0.00000  -0.34494
  43       14F+2        0.00000   0.00000  -0.44563   0.00000   0.00000
  44       14F-2        0.00000  -0.56487   0.00000   0.00000   0.00000
  45       14F+3        0.00000   0.00000   0.00000  -0.54578   0.00000
  46       14F-3        0.34591   0.00000   0.00000   0.00000  -0.44532
                          41        42        43        44        45
                       (T2G)--V      V     (T2G)--V  (T2G)--V      V
     Eigenvalues --     6.30985   6.30985   6.36964   6.36964   6.38944
   1 1   O  1S          0.00000  -0.00000   0.00000   0.00000  -0.01652
   2        2S          0.00000  -0.00000   0.00000   0.00000  -0.05997
   3        3S          0.00000   0.00000   0.00000   0.00000   0.03117
   4        4S          0.00000  -0.00000   0.00000   0.00000   0.04469
   5        5S          0.00000   0.00000   0.00000   0.00000  -0.01411
   6        6PX         0.00000   0.00000   0.00000   0.00000   0.00000
   7        6PY         0.00000   0.00000   0.00000   0.00000   0.00000
   8        6PZ         0.00000   0.00000   0.00000   0.00000   0.00000
   9        7PX         0.00000   0.00000   0.00000   0.00000   0.00000
  10        7PY         0.00000   0.00000   0.00000   0.00000   0.00000
  11        7PZ         0.00000   0.00000   0.00000   0.00000   0.00000
  12        8PX         0.00000   0.00000   0.00000   0.00000   0.00000
  13        8PY         0.00000   0.00000   0.00000   0.00000   0.00000
  14        8PZ         0.00000   0.00000   0.00000   0.00000   0.00000
  15        9PX         0.00000   0.00000   0.00000   0.00000   0.00000
  16        9PY         0.00000   0.00000   0.00000   0.00000   0.00000
  17        9PZ         0.00000   0.00000   0.00000   0.00000   0.00000
  18       10D 0        0.00000   1.04353   0.00000   0.00000   0.60243
  19       10D+1        1.20497   0.00000   0.00000   0.00000   0.00000
  20       10D-1        0.00000   0.00000   0.00000   1.20502   0.00000
  21       10D+2        0.00000  -0.60248   0.00000   0.00000   1.04345
  22       10D-2        0.00000   0.00000   1.20502   0.00000   0.00000
  23       11D 0        0.00000  -0.72775   0.00000   0.00000  -0.41759
  24       11D+1       -0.84033   0.00000   0.00000   0.00000   0.00000
  25       11D-1        0.00000   0.00000   0.00000  -0.83660   0.00000
  26       11D+2        0.00000   0.42017   0.00000   0.00000  -0.72329
  27       11D-2        0.00000   0.00000  -0.83660   0.00000   0.00000
  28       12D 0        0.00000   0.27571   0.00000   0.00000   0.15769
  29       12D+1        0.31836   0.00000   0.00000   0.00000   0.00000
  30       12D-1        0.00000   0.00000   0.00000   0.31616   0.00000
  31       12D+2        0.00000  -0.15918   0.00000   0.00000   0.27313
  32       12D-2        0.00000   0.00000   0.31616   0.00000   0.00000
  33       13F 0        0.00000   0.00000   0.00000   0.00000   0.00000
  34       13F+1        0.00000   0.00000   0.00000   0.00000   0.00000
  35       13F-1        0.00000   0.00000   0.00000   0.00000   0.00000
  36       13F+2        0.00000   0.00000   0.00000   0.00000   0.00000
  37       13F-2        0.00000   0.00000   0.00000   0.00000   0.00000
  38       13F+3        0.00000   0.00000   0.00000   0.00000   0.00000
  39       13F-3        0.00000   0.00000   0.00000   0.00000   0.00000
  40       14F 0        0.00000   0.00000   0.00000   0.00000   0.00000
  41       14F+1        0.00000   0.00000   0.00000   0.00000   0.00000
  42       14F-1        0.00000   0.00000   0.00000   0.00000   0.00000
  43       14F+2        0.00000   0.00000   0.00000   0.00000   0.00000
  44       14F-2        0.00000   0.00000   0.00000   0.00000   0.00000
  45       14F+3        0.00000   0.00000   0.00000   0.00000   0.00000
  46       14F-3        0.00000   0.00000   0.00000   0.00000   0.00000
                          46
                           V
     Eigenvalues --     7.63210
   1 1   O  1S          1.26791
   2        2S          3.27507
   3        3S         -2.48778
   4        4S         -2.09767
   5        5S          0.64459
   6        6PX         0.00000
   7        6PY         0.00000
   8        6PZ         0.00000
   9        7PX         0.00000
  10        7PY         0.00000
  11        7PZ         0.00000
  12        8PX         0.00000
  13        8PY         0.00000
  14        8PZ         0.00000
  15        9PX         0.00000
  16        9PY         0.00000
  17        9PZ         0.00000
  18       10D 0        0.00845
  19       10D+1        0.00000
  20       10D-1        0.00000
  21       10D+2        0.01463
  22       10D-2        0.00000
  23       11D 0       -0.00771
  24       11D+1        0.00000
  25       11D-1        0.00000
  26       11D+2       -0.01335
  27       11D-2        0.00000
  28       12D 0        0.00323
  29       12D+1        0.00000
  30       12D-1        0.00000
  31       12D+2        0.00559
  32       12D-2        0.00000
  33       13F 0        0.00000
  34       13F+1        0.00000
  35       13F-1        0.00000
  36       13F+2        0.00000
  37       13F-2        0.00000
  38       13F+3        0.00000
  39       13F-3        0.00000
  40       14F 0        0.00000
  41       14F+1        0.00000
  42       14F-1        0.00000
  43       14F+2        0.00000
  44       14F-2        0.00000
  45       14F+3        0.00000
  46       14F-3        0.00000
     Beta Molecular Orbital Coefficients:
                           1         2         3         4         5
                       (A1G)--O  (T2G)--O      O         V         V
     Eigenvalues --   -19.23331  -0.86672  -0.34054  -0.18895  -0.18895
   1 1   O  1S          0.97419  -0.22566   0.00000   0.00000   0.00000
   2        2S         -0.01061   0.53118   0.00000   0.00000   0.00000
   3        3S          0.04886   0.16294   0.00000   0.00000   0.00000
   4        4S          0.00312   0.39634   0.00000   0.00000   0.00000
   5        5S         -0.00065   0.02161   0.00000   0.00000   0.00000
   6        6PX         0.00000   0.00000   0.00000   0.00000   0.34987
   7        6PY         0.00000   0.00000   0.38425   0.00000   0.00000
   8        6PZ         0.00000   0.00000   0.00000   0.34987   0.00000
   9        7PX         0.00000   0.00000   0.00000   0.00000   0.41658
  10        7PY         0.00000   0.00000   0.45036   0.00000   0.00000
  11        7PZ         0.00000   0.00000   0.00000   0.41658   0.00000
  12        8PX         0.00000   0.00000   0.00000   0.00000   0.39241
  13        8PY         0.00000   0.00000   0.35924   0.00000   0.00000
  14        8PZ         0.00000   0.00000   0.00000   0.39241   0.00000
  15        9PX         0.00000   0.00000   0.00000   0.00000   0.12929
  16        9PY         0.00000   0.00000   0.06270   0.00000   0.00000
  17        9PZ         0.00000   0.00000   0.00000   0.12929   0.00000
  18       10D 0       -0.00028  -0.00272   0.00000   0.00000   0.00000
  19       10D+1        0.00000   0.00000   0.00000   0.00000   0.00000
  20       10D-1        0.00000   0.00000   0.00000   0.00000   0.00000
  21       10D+2       -0.00049  -0.00471   0.00000   0.00000   0.00000
  22       10D-2        0.00000   0.00000   0.00000   0.00000   0.00000
  23       11D 0        0.00006  -0.00285   0.00000   0.00000   0.00000
  24       11D+1        0.00000   0.00000   0.00000   0.00000   0.00000
  25       11D-1        0.00000   0.00000   0.00000   0.00000   0.00000
  26       11D+2        0.00010  -0.00494   0.00000   0.00000   0.00000
  27       11D-2        0.00000   0.00000   0.00000   0.00000   0.00000
  28       12D 0       -0.00003  -0.00138   0.00000   0.00000   0.00000
  29       12D+1        0.00000   0.00000   0.00000   0.00000   0.00000
  30       12D-1        0.00000   0.00000   0.00000   0.00000   0.00000
  31       12D+2       -0.00006  -0.00239   0.00000   0.00000   0.00000
  32       12D-2        0.00000   0.00000   0.00000   0.00000   0.00000
  33       13F 0        0.00000   0.00000   0.00000  -0.00132   0.00000
  34       13F+1        0.00000   0.00000   0.00000   0.00000  -0.00054
  35       13F-1        0.00000   0.00000  -0.00062   0.00000   0.00000
  36       13F+2        0.00000   0.00000   0.00000  -0.00171   0.00000
  37       13F-2        0.00000   0.00000   0.00000   0.00000   0.00000
  38       13F+3        0.00000   0.00000   0.00000   0.00000  -0.00209
  39       13F-3        0.00000   0.00000  -0.00080   0.00000   0.00000
  40       14F 0        0.00000   0.00000   0.00000  -0.00039   0.00000
  41       14F+1        0.00000   0.00000   0.00000   0.00000  -0.00016
  42       14F-1        0.00000   0.00000   0.00017   0.00000   0.00000
  43       14F+2        0.00000   0.00000   0.00000  -0.00051   0.00000
  44       14F-2        0.00000   0.00000   0.00000   0.00000   0.00000
  45       14F+3        0.00000   0.00000   0.00000   0.00000  -0.00062
  46       14F-3        0.00000   0.00000   0.00022   0.00000   0.00000
                           6         7         8         9        10
                       (A1G)--V      V         V         V     (T2G)--V
     Eigenvalues --     0.07444   0.10004   0.11228   0.11228   0.50745
   1 1   O  1S          0.08056   0.00000   0.00000   0.00000   0.00000
   2        2S         -0.10657   0.00000   0.00000   0.00000   0.00000
   3        3S         -0.06245   0.00000   0.00000   0.00000   0.00000
   4        4S         -0.83801   0.00000   0.00000   0.00000   0.00000
   5        5S          1.49319   0.00000   0.00000   0.00000   0.00000
   6        6PX         0.00000   0.00000   0.00000  -0.15310   0.00000
   7        6PY         0.00000  -0.13205   0.00000   0.00000   0.00000
   8        6PZ         0.00000   0.00000  -0.15310   0.00000   0.00000
   9        7PX         0.00000   0.00000   0.00000  -0.14273   0.00000
  10        7PY         0.00000  -0.11647   0.00000   0.00000   0.00000
  11        7PZ         0.00000   0.00000  -0.14273   0.00000   0.00000
  12        8PX         0.00000   0.00000   0.00000  -0.38282   0.00000
  13        8PY         0.00000  -0.32549   0.00000   0.00000   0.00000
  14        8PZ         0.00000   0.00000  -0.38282   0.00000   0.00000
  15        9PX         0.00000   0.00000   0.00000   1.14840   0.00000
  16        9PY         0.00000   1.14446   0.00000   0.00000   0.00000
  17        9PZ         0.00000   0.00000   1.14840   0.00000   0.00000
  18       10D 0        0.00066   0.00000   0.00000   0.00000   0.00000
  19       10D+1        0.00000   0.00000   0.00000   0.00000   0.00000
  20       10D-1        0.00000   0.00000   0.00000   0.00000   0.00000
  21       10D+2        0.00114   0.00000   0.00000   0.00000   0.00000
  22       10D-2        0.00000   0.00000   0.00000   0.00000   0.03724
  23       11D 0        0.00071   0.00000   0.00000   0.00000   0.00000
  24       11D+1        0.00000   0.00000   0.00000   0.00000   0.00000
  25       11D-1        0.00000   0.00000   0.00000   0.00000   0.00000
  26       11D+2        0.00123   0.00000   0.00000   0.00000   0.00000
  27       11D-2        0.00000   0.00000   0.00000   0.00000  -0.09508
  28       12D 0       -0.00123   0.00000   0.00000   0.00000   0.00000
  29       12D+1        0.00000   0.00000   0.00000   0.00000   0.00000
  30       12D-1        0.00000   0.00000   0.00000   0.00000   0.00000
  31       12D+2       -0.00213   0.00000   0.00000   0.00000   0.00000
  32       12D-2        0.00000   0.00000   0.00000   0.00000   1.05041
  33       13F 0        0.00000   0.00000   0.00051   0.00000   0.00000
  34       13F+1        0.00000   0.00000   0.00000   0.00021   0.00000
  35       13F-1        0.00000   0.00009   0.00000   0.00000   0.00000
  36       13F+2        0.00000   0.00000   0.00066   0.00000   0.00000
  37       13F-2        0.00000   0.00000   0.00000   0.00000   0.00000
  38       13F+3        0.00000   0.00000   0.00000   0.00081   0.00000
  39       13F-3        0.00000   0.00012   0.00000   0.00000   0.00000
  40       14F 0        0.00000   0.00000  -0.00003   0.00000   0.00000
  41       14F+1        0.00000   0.00000   0.00000  -0.00001   0.00000
  42       14F-1        0.00000   0.00018   0.00000   0.00000   0.00000
  43       14F+2        0.00000   0.00000  -0.00004   0.00000   0.00000
  44       14F-2        0.00000   0.00000   0.00000   0.00000   0.00000
  45       14F+3        0.00000   0.00000   0.00000  -0.00005   0.00000
  46       14F-3        0.00000   0.00023   0.00000   0.00000   0.00000
                          11        12        13        14        15
                       (T2G)--V   (EG)--V  (T2G)--V   (EG)--V      V
     Eigenvalues --     0.50745   0.51068   0.51195   0.51195   0.73352
   1 1   O  1S          0.00000  -0.00134   0.00000  -0.00000   0.00000
   2        2S          0.00000  -0.00064   0.00000  -0.00000   0.00000
   3        3S          0.00000   0.00043   0.00000  -0.00000   0.00000
   4        4S          0.00000   0.00786   0.00000   0.00000   0.00000
   5        5S          0.00000  -0.00034   0.00000   0.00000   0.00000
   6        6PX         0.00000   0.00000   0.00000   0.00000   0.00000
   7        6PY         0.00000   0.00000   0.00000   0.00000  -0.28657
   8        6PZ         0.00000   0.00000   0.00000   0.00000   0.00000
   9        7PX         0.00000   0.00000   0.00000   0.00000   0.00000
  10        7PY         0.00000   0.00000   0.00000   0.00000  -0.76658
  11        7PZ         0.00000   0.00000   0.00000   0.00000   0.00000
  12        8PX         0.00000   0.00000   0.00000   0.00000   0.00000
  13        8PY         0.00000   0.00000   0.00000   0.00000   1.55238
  14        8PZ         0.00000   0.00000   0.00000   0.00000   0.00000
  15        9PX         0.00000   0.00000   0.00000   0.00000   0.00000
  16        9PY         0.00000   0.00000   0.00000   0.00000  -0.68907
  17        9PZ         0.00000   0.00000   0.00000   0.00000   0.00000
  18       10D 0        0.00000   0.01863   0.00000   0.03150   0.00000
  19       10D+1        0.00000   0.00000   0.03638   0.00000   0.00000
  20       10D-1        0.03724   0.00000   0.00000   0.00000   0.00000
  21       10D+2        0.00000   0.03226   0.00000  -0.01819   0.00000
  22       10D-2        0.00000   0.00000   0.00000   0.00000   0.00000
  23       11D 0        0.00000  -0.04727   0.00000  -0.08546   0.00000
  24       11D+1        0.00000   0.00000  -0.09868   0.00000   0.00000
  25       11D-1       -0.09508   0.00000   0.00000   0.00000   0.00000
  26       11D+2        0.00000  -0.08187   0.00000   0.04934   0.00000
  27       11D-2        0.00000   0.00000   0.00000   0.00000   0.00000
  28       12D 0        0.00000   0.52504   0.00000   0.91151   0.00000
  29       12D+1        0.00000   0.00000   1.05252   0.00000   0.00000
  30       12D-1        1.05041   0.00000   0.00000   0.00000   0.00000
  31       12D+2        0.00000   0.90940   0.00000  -0.52626   0.00000
  32       12D-2        0.00000   0.00000   0.00000   0.00000   0.00000
  33       13F 0        0.00000   0.00000   0.00000   0.00000   0.00000
  34       13F+1        0.00000   0.00000   0.00000   0.00000   0.00000
  35       13F-1        0.00000   0.00000   0.00000   0.00000   0.00006
  36       13F+2        0.00000   0.00000   0.00000   0.00000   0.00000
  37       13F-2        0.00000   0.00000   0.00000   0.00000   0.00000
  38       13F+3        0.00000   0.00000   0.00000   0.00000   0.00000
  39       13F-3        0.00000   0.00000   0.00000   0.00000   0.00008
  40       14F 0        0.00000   0.00000   0.00000   0.00000   0.00000
  41       14F+1        0.00000   0.00000   0.00000   0.00000   0.00000
  42       14F-1        0.00000   0.00000   0.00000   0.00000   0.00132
  43       14F+2        0.00000   0.00000   0.00000   0.00000   0.00000
  44       14F-2        0.00000   0.00000   0.00000   0.00000   0.00000
  45       14F+3        0.00000   0.00000   0.00000   0.00000   0.00000
  46       14F-3        0.00000   0.00000   0.00000   0.00000   0.00171
                          16        17        18        19        20
                           V         V     (A1G)--V      V     (A2U)--V
     Eigenvalues --     0.75802   0.75802   1.09942   1.81286   1.81286
   1 1   O  1S          0.00000   0.00000   0.04661   0.00000   0.00000
   2        2S          0.00000   0.00000  -1.51638   0.00000   0.00000
   3        3S          0.00000   0.00000  -0.36519   0.00000   0.00000
   4        4S          0.00000   0.00000   2.63399   0.00000   0.00000
   5        5S          0.00000   0.00000  -1.11159   0.00000   0.00000
   6        6PX         0.00000  -0.29556   0.00000   0.00000   0.00000
   7        6PY         0.00000   0.00000   0.00000  -0.00000   0.00000
   8        6PZ        -0.29556   0.00000   0.00000   0.00000   0.00000
   9        7PX         0.00000  -0.80115   0.00000   0.00000   0.00000
  10        7PY         0.00000   0.00000   0.00000  -0.00000   0.00000
  11        7PZ        -0.80115   0.00000   0.00000   0.00000   0.00000
  12        8PX         0.00000   1.53589   0.00000   0.00000   0.00000
  13        8PY         0.00000   0.00000   0.00000   0.00000   0.00000
  14        8PZ         1.53589   0.00000   0.00000   0.00000   0.00000
  15        9PX         0.00000  -0.67409   0.00000   0.00000   0.00000
  16        9PY         0.00000   0.00000   0.00000  -0.00000   0.00000
  17        9PZ        -0.67409   0.00000   0.00000   0.00000   0.00000
  18       10D 0        0.00000   0.00000   0.00206   0.00000   0.00000
  19       10D+1        0.00000   0.00000   0.00000   0.00000   0.00000
  20       10D-1        0.00000   0.00000   0.00000   0.00000   0.00000
  21       10D+2        0.00000   0.00000   0.00358   0.00000   0.00000
  22       10D-2        0.00000   0.00000   0.00000   0.00000   0.00000
  23       11D 0        0.00000   0.00000   0.00256   0.00000   0.00000
  24       11D+1        0.00000   0.00000   0.00000   0.00000   0.00000
  25       11D-1        0.00000   0.00000   0.00000   0.00000   0.00000
  26       11D+2        0.00000   0.00000   0.00444   0.00000   0.00000
  27       11D-2        0.00000   0.00000   0.00000   0.00000   0.00000
  28       12D 0        0.00000   0.00000  -0.00287   0.00000   0.00000
  29       12D+1        0.00000   0.00000   0.00000   0.00000   0.00000
  30       12D-1        0.00000   0.00000   0.00000   0.00000   0.00000
  31       12D+2        0.00000   0.00000  -0.00498   0.00000   0.00000
  32       12D-2        0.00000   0.00000   0.00000   0.00000   0.00000
  33       13F 0        0.00092   0.00000   0.00000   0.00000   0.00000
  34       13F+1        0.00000   0.00038   0.00000   0.00000   0.00000
  35       13F-1        0.00000   0.00000   0.00000  -0.09484   0.00000
  36       13F+2        0.00119   0.00000   0.00000   0.00000   0.00000
  37       13F-2        0.00000   0.00000   0.00000   0.00000  -0.11996
  38       13F+3        0.00000   0.00146   0.00000   0.00000   0.00000
  39       13F-3        0.00000   0.00000   0.00000   0.07346   0.00000
  40       14F 0       -0.00014   0.00000   0.00000   0.00000   0.00000
  41       14F+1        0.00000  -0.00006   0.00000   0.00000   0.00000
  42       14F-1        0.00000   0.00000   0.00000   0.83902   0.00000
  43       14F+2       -0.00018   0.00000   0.00000   0.00000   0.00000
  44       14F-2        0.00000   0.00000   0.00000   0.00000   1.06129
  45       14F+3        0.00000  -0.00023   0.00000   0.00000   0.00000
  46       14F-3        0.00000   0.00000   0.00000  -0.64990   0.00000
                          21        22        23        24        25
                           V         V         V         V         V
     Eigenvalues --     1.81545   1.81545   1.81571   1.81584   1.81584
   1 1   O  1S          0.00000   0.00000   0.00000   0.00000   0.00000
   2        2S          0.00000   0.00000   0.00000   0.00000   0.00000
   3        3S          0.00000   0.00000   0.00000   0.00000   0.00000
   4        4S          0.00000   0.00000   0.00000   0.00000   0.00000
   5        5S          0.00000   0.00000   0.00000   0.00000   0.00000
   6        6PX         0.00000   0.00000   0.00000   0.00173   0.00000
   7        6PY         0.00000   0.00000   0.00079   0.00000   0.00000
   8        6PZ        -0.00000   0.00000   0.00000   0.00000   0.00173
   9        7PX         0.00000  -0.00000   0.00000  -0.00009   0.00000
  10        7PY         0.00000   0.00000   0.00177   0.00000   0.00000
  11        7PZ         0.00000   0.00000   0.00000   0.00000  -0.00009
  12        8PX         0.00000   0.00000   0.00000   0.00071   0.00000
  13        8PY         0.00000   0.00000  -0.00320   0.00000   0.00000
  14        8PZ        -0.00000   0.00000   0.00000   0.00000   0.00071
  15        9PX         0.00000  -0.00000   0.00000  -0.00007   0.00000
  16        9PY         0.00000   0.00000   0.00110   0.00000   0.00000
  17        9PZ         0.00000   0.00000   0.00000   0.00000  -0.00007
  18       10D 0        0.00000   0.00000   0.00000   0.00000   0.00000
  19       10D+1        0.00000   0.00000   0.00000   0.00000   0.00000
  20       10D-1        0.00000   0.00000   0.00000   0.00000   0.00000
  21       10D+2        0.00000   0.00000   0.00000   0.00000   0.00000
  22       10D-2        0.00000   0.00000   0.00000   0.00000   0.00000
  23       11D 0        0.00000   0.00000   0.00000   0.00000   0.00000
  24       11D+1        0.00000   0.00000   0.00000   0.00000   0.00000
  25       11D-1        0.00000   0.00000   0.00000   0.00000   0.00000
  26       11D+2        0.00000   0.00000   0.00000   0.00000   0.00000
  27       11D-2        0.00000   0.00000   0.00000   0.00000   0.00000
  28       12D 0        0.00000   0.00000   0.00000   0.00000   0.00000
  29       12D+1        0.00000   0.00000   0.00000   0.00000   0.00000
  30       12D-1        0.00000   0.00000   0.00000   0.00000   0.00000
  31       12D+2        0.00000   0.00000   0.00000   0.00000   0.00000
  32       12D-2        0.00000   0.00000   0.00000   0.00000   0.00000
  33       13F 0       -0.09551   0.00000   0.00000   0.00000  -0.07347
  34       13F+1        0.00000  -0.11698   0.00000  -0.02999   0.00000
  35       13F-1        0.00000   0.00000  -0.07340   0.00000   0.00000
  36       13F+2        0.07399   0.00000   0.00000   0.00000  -0.09484
  37       13F-2        0.00000   0.00000   0.00000   0.00000   0.00000
  38       13F+3        0.00000   0.03020   0.00000  -0.11616   0.00000
  39       13F-3        0.00000   0.00000  -0.09476   0.00000   0.00000
  40       14F 0        0.83933   0.00000   0.00000   0.00000   0.64992
  41       14F+1        0.00000   1.02798   0.00000   0.26530   0.00000
  42       14F-1        0.00000   0.00000   0.64988   0.00000   0.00000
  43       14F+2       -0.65017   0.00000   0.00000   0.00000   0.83901
  44       14F-2        0.00000   0.00000   0.00000   0.00000   0.00000
  45       14F+3        0.00000  -0.26540   0.00000   1.02760   0.00000
  46       14F-3        0.00000   0.00000   0.83899   0.00000   0.00000
                          26        27        28        29        30
                       (T2G)--V  (T2G)--V  (T2G)--V  (T2G)--V  (T2G)--V
     Eigenvalues --     1.87813   1.87813   1.88292   1.89256   1.89256
   1 1   O  1S          0.00000   0.00000  -0.00146   0.00000   0.00000
   2        2S          0.00000   0.00000   0.01525   0.00000  -0.00000
   3        3S          0.00000   0.00000   0.00263   0.00000  -0.00000
   4        4S          0.00000   0.00000  -0.01269   0.00000   0.00000
   5        5S          0.00000   0.00000   0.00472   0.00000  -0.00000
   6        6PX         0.00000   0.00000   0.00000   0.00000   0.00000
   7        6PY         0.00000   0.00000   0.00000   0.00000   0.00000
   8        6PZ         0.00000   0.00000   0.00000   0.00000   0.00000
   9        7PX         0.00000   0.00000   0.00000   0.00000   0.00000
  10        7PY         0.00000   0.00000   0.00000   0.00000   0.00000
  11        7PZ         0.00000   0.00000   0.00000   0.00000   0.00000
  12        8PX         0.00000   0.00000   0.00000   0.00000   0.00000
  13        8PY         0.00000   0.00000   0.00000   0.00000   0.00000
  14        8PZ         0.00000   0.00000   0.00000   0.00000   0.00000
  15        9PX         0.00000   0.00000   0.00000   0.00000   0.00000
  16        9PY         0.00000   0.00000   0.00000   0.00000   0.00000
  17        9PZ         0.00000   0.00000   0.00000   0.00000   0.00000
  18       10D 0        0.00000   0.00000   0.00445   0.00000   0.00462
  19       10D+1        0.00000   0.00000   0.00000   0.00534   0.00000
  20       10D-1        0.00000   0.00907   0.00000   0.00000   0.00000
  21       10D+2        0.00000   0.00000   0.00770   0.00000  -0.00267
  22       10D-2        0.00907   0.00000   0.00000   0.00000   0.00000
  23       11D 0        0.00000   0.00000   0.62214   0.00000   1.07951
  24       11D+1        0.00000   0.00000   0.00000   1.24651   0.00000
  25       11D-1        0.00000   1.24419   0.00000   0.00000   0.00000
  26       11D+2        0.00000   0.00000   1.07758   0.00000  -0.62326
  27       11D-2        1.24419   0.00000   0.00000   0.00000   0.00000
  28       12D 0        0.00000   0.00000  -0.34759   0.00000  -0.59942
  29       12D+1        0.00000   0.00000   0.00000  -0.69215   0.00000
  30       12D-1        0.00000  -0.69468   0.00000   0.00000   0.00000
  31       12D+2        0.00000   0.00000  -0.60205   0.00000   0.34607
  32       12D-2       -0.69468   0.00000   0.00000   0.00000   0.00000
  33       13F 0        0.00000   0.00000   0.00000   0.00000   0.00000
  34       13F+1        0.00000   0.00000   0.00000   0.00000   0.00000
  35       13F-1        0.00000   0.00000   0.00000   0.00000   0.00000
  36       13F+2        0.00000   0.00000   0.00000   0.00000   0.00000
  37       13F-2        0.00000   0.00000   0.00000   0.00000   0.00000
  38       13F+3        0.00000   0.00000   0.00000   0.00000   0.00000
  39       13F-3        0.00000   0.00000   0.00000   0.00000   0.00000
  40       14F 0        0.00000   0.00000   0.00000   0.00000   0.00000
  41       14F+1        0.00000   0.00000   0.00000   0.00000   0.00000
  42       14F-1        0.00000   0.00000   0.00000   0.00000   0.00000
  43       14F+2        0.00000   0.00000   0.00000   0.00000   0.00000
  44       14F-2        0.00000   0.00000   0.00000   0.00000   0.00000
  45       14F+3        0.00000   0.00000   0.00000   0.00000   0.00000
  46       14F-3        0.00000   0.00000   0.00000   0.00000   0.00000
                          31        32        33        34        35
                       (T1U)--V  (T1U)--V  (T1U)--V  (A2U)--V      V
     Eigenvalues --     3.67647   3.71105   3.71105   6.01196   6.01196
   1 1   O  1S          0.00000   0.00000   0.00000   0.00000   0.00000
   2        2S          0.00000   0.00000   0.00000   0.00000   0.00000
   3        3S          0.00000   0.00000   0.00000   0.00000   0.00000
   4        4S          0.00000   0.00000   0.00000   0.00000   0.00000
   5        5S          0.00000   0.00000   0.00000   0.00000   0.00000
   6        6PX         0.00000  -1.23585   0.00000   0.00000   0.00000
   7        6PY        -1.23017   0.00000   0.00000   0.00000   0.00000
   8        6PZ         0.00000   0.00000  -1.23585   0.00000   0.00000
   9        7PX         0.00000   1.55172   0.00000   0.00000   0.00000
  10        7PY         1.56191   0.00000   0.00000   0.00000  -0.00000
  11        7PZ         0.00000   0.00000   1.55172   0.00000   0.00000
  12        8PX         0.00000  -0.84331   0.00000   0.00000   0.00000
  13        8PY        -0.85192   0.00000   0.00000   0.00000   0.00000
  14        8PZ         0.00000   0.00000  -0.84331   0.00000   0.00000
  15        9PX         0.00000   0.26341   0.00000   0.00000   0.00000
  16        9PY         0.26607   0.00000   0.00000   0.00000  -0.00000
  17        9PZ         0.00000   0.00000   0.26341   0.00000   0.00000
  18       10D 0        0.00000   0.00000   0.00000   0.00000   0.00000
  19       10D+1        0.00000   0.00000   0.00000   0.00000   0.00000
  20       10D-1        0.00000   0.00000   0.00000   0.00000   0.00000
  21       10D+2        0.00000   0.00000   0.00000   0.00000   0.00000
  22       10D-2        0.00000   0.00000   0.00000   0.00000   0.00000
  23       11D 0        0.00000   0.00000   0.00000   0.00000   0.00000
  24       11D+1        0.00000   0.00000   0.00000   0.00000   0.00000
  25       11D-1        0.00000   0.00000   0.00000   0.00000   0.00000
  26       11D+2        0.00000   0.00000   0.00000   0.00000   0.00000
  27       11D-2        0.00000   0.00000   0.00000   0.00000   0.00000
  28       12D 0        0.00000   0.00000   0.00000   0.00000   0.00000
  29       12D+1        0.00000   0.00000   0.00000   0.00000   0.00000
  30       12D-1        0.00000   0.00000   0.00000   0.00000   0.00000
  31       12D+2        0.00000   0.00000   0.00000   0.00000   0.00000
  32       12D-2        0.00000   0.00000   0.00000   0.00000   0.00000
  33       13F 0        0.00000   0.00000   0.00078   0.00000   0.00000
  34       13F+1        0.00000   0.00032   0.00000   0.00000   0.00000
  35       13F-1        0.00154   0.00000   0.00000   0.00000   0.94386
  36       13F+2        0.00000   0.00000   0.00100   0.00000   0.00000
  37       13F-2        0.00000   0.00000   0.00000   1.19390   0.00000
  38       13F+3        0.00000   0.00123   0.00000   0.00000   0.00000
  39       13F-3        0.00199   0.00000   0.00000   0.00000  -0.73111
  40       14F 0        0.00000   0.00000   0.00011   0.00000   0.00000
  41       14F+1        0.00000   0.00005   0.00000   0.00000   0.00000
  42       14F-1       -0.00071   0.00000   0.00000   0.00000  -0.44262
  43       14F+2        0.00000   0.00000   0.00015   0.00000   0.00000
  44       14F-2        0.00000   0.00000   0.00000  -0.55987   0.00000
  45       14F+3        0.00000   0.00018   0.00000   0.00000   0.00000
  46       14F-3       -0.00091   0.00000   0.00000   0.00000   0.34285
                          36        37        38        39        40
                           V         V         V         V         V
     Eigenvalues --     6.01512   6.01712   6.01712   6.02568   6.02568
   1 1   O  1S          0.00000   0.00000   0.00000   0.00000   0.00000
   2        2S          0.00000   0.00000   0.00000   0.00000   0.00000
   3        3S          0.00000   0.00000   0.00000   0.00000   0.00000
   4        4S          0.00000   0.00000   0.00000   0.00000   0.00000
   5        5S          0.00000   0.00000   0.00000   0.00000   0.00000
   6        6PX         0.00000   0.00000   0.00260   0.00000   0.00000
   7        6PY         0.00304   0.00000   0.00000   0.00000   0.00000
   8        6PZ         0.00000   0.00260   0.00000  -0.00000   0.00000
   9        7PX         0.00000   0.00000   0.00021   0.00000  -0.00000
  10        7PY        -0.00265   0.00000   0.00000   0.00000   0.00000
  11        7PZ         0.00000   0.00021   0.00000   0.00000   0.00000
  12        8PX         0.00000   0.00000   0.00000   0.00000  -0.00000
  13        8PY         0.00169   0.00000   0.00000   0.00000   0.00000
  14        8PZ         0.00000   0.00000   0.00000   0.00000   0.00000
  15        9PX         0.00000   0.00000  -0.00000   0.00000   0.00000
  16        9PY        -0.00049   0.00000   0.00000   0.00000   0.00000
  17        9PZ         0.00000  -0.00000   0.00000  -0.00000   0.00000
  18       10D 0        0.00000   0.00000   0.00000   0.00000   0.00000
  19       10D+1        0.00000   0.00000   0.00000   0.00000   0.00000
  20       10D-1        0.00000   0.00000   0.00000   0.00000   0.00000
  21       10D+2        0.00000   0.00000   0.00000   0.00000   0.00000
  22       10D-2        0.00000   0.00000   0.00000   0.00000   0.00000
  23       11D 0        0.00000   0.00000   0.00000   0.00000   0.00000
  24       11D+1        0.00000   0.00000   0.00000   0.00000   0.00000
  25       11D-1        0.00000   0.00000   0.00000   0.00000   0.00000
  26       11D+2        0.00000   0.00000   0.00000   0.00000   0.00000
  27       11D-2        0.00000   0.00000   0.00000   0.00000   0.00000
  28       12D 0        0.00000   0.00000   0.00000   0.00000   0.00000
  29       12D+1        0.00000   0.00000   0.00000   0.00000   0.00000
  30       12D-1        0.00000   0.00000   0.00000   0.00000   0.00000
  31       12D+2        0.00000   0.00000   0.00000   0.00000   0.00000
  32       12D-2        0.00000   0.00000   0.00000   0.00000   0.00000
  33       13F 0        0.00000   0.73111   0.00000   0.94379   0.00000
  34       13F+1        0.00000   0.00000   0.29847   0.00000   1.15591
  35       13F-1        0.73112   0.00000   0.00000   0.00000   0.00000
  36       13F+2        0.00000   0.94386   0.00000  -0.73106   0.00000
  37       13F-2        0.00000   0.00000   0.00000   0.00000   0.00000
  38       13F+3        0.00000   0.00000   1.15599   0.00000  -0.29845
  39       13F-3        0.94387   0.00000   0.00000   0.00000   0.00000
  40       14F 0        0.00000  -0.34285   0.00000  -0.44202   0.00000
  41       14F+1        0.00000   0.00000  -0.13997   0.00000  -0.54136
  42       14F-1       -0.34290   0.00000   0.00000   0.00000   0.00000
  43       14F+2        0.00000  -0.44261   0.00000   0.34238   0.00000
  44       14F-2        0.00000   0.00000   0.00000   0.00000   0.00000
  45       14F+3        0.00000   0.00000  -0.54209   0.00000   0.13978
  46       14F-3       -0.44269   0.00000   0.00000   0.00000   0.00000
                          41        42        43        44        45
                       (T2G)--V  (T2G)--V  (T2G)--V  (T2G)--V  (T2G)--V
     Eigenvalues --     6.47299   6.47299   6.48125   6.51157   6.51157
   1 1   O  1S          0.00000   0.00000   0.01633   0.00000  -0.00000
   2        2S          0.00000   0.00000   0.05165   0.00000  -0.00000
   3        3S          0.00000   0.00000  -0.03154   0.00000   0.00000
   4        4S          0.00000   0.00000  -0.03457   0.00000   0.00000
   5        5S          0.00000   0.00000   0.01088   0.00000  -0.00000
   6        6PX         0.00000   0.00000   0.00000   0.00000   0.00000
   7        6PY         0.00000   0.00000   0.00000   0.00000   0.00000
   8        6PZ         0.00000   0.00000   0.00000   0.00000   0.00000
   9        7PX         0.00000   0.00000   0.00000   0.00000   0.00000
  10        7PY         0.00000   0.00000   0.00000   0.00000   0.00000
  11        7PZ         0.00000   0.00000   0.00000   0.00000   0.00000
  12        8PX         0.00000   0.00000   0.00000   0.00000   0.00000
  13        8PY         0.00000   0.00000   0.00000   0.00000   0.00000
  14        8PZ         0.00000   0.00000   0.00000   0.00000   0.00000
  15        9PX         0.00000   0.00000   0.00000   0.00000   0.00000
  16        9PY         0.00000   0.00000   0.00000   0.00000   0.00000
  17        9PZ         0.00000   0.00000   0.00000   0.00000   0.00000
  18       10D 0        0.00000   0.00000   0.60251   0.00000   1.04372
  19       10D+1        0.00000   0.00000   0.00000   1.20519   0.00000
  20       10D-1        0.00000   1.20514   0.00000   0.00000   0.00000
  21       10D+2        0.00000   0.00000   1.04357   0.00000  -0.60259
  22       10D-2        1.20514   0.00000   0.00000   0.00000   0.00000
  23       11D 0        0.00000   0.00000  -0.41381   0.00000  -0.71350
  24       11D+1        0.00000   0.00000   0.00000  -0.82388   0.00000
  25       11D-1        0.00000  -0.82779   0.00000   0.00000   0.00000
  26       11D+2        0.00000   0.00000  -0.71674   0.00000   0.41194
  27       11D-2       -0.82779   0.00000   0.00000   0.00000   0.00000
  28       12D 0        0.00000   0.00000   0.15590   0.00000   0.26883
  29       12D+1        0.00000   0.00000   0.00000   0.31041   0.00000
  30       12D-1        0.00000   0.31190   0.00000   0.00000   0.00000
  31       12D+2        0.00000   0.00000   0.27002   0.00000  -0.15521
  32       12D-2        0.31190   0.00000   0.00000   0.00000   0.00000
  33       13F 0        0.00000   0.00000   0.00000   0.00000   0.00000
  34       13F+1        0.00000   0.00000   0.00000   0.00000   0.00000
  35       13F-1        0.00000   0.00000   0.00000   0.00000   0.00000
  36       13F+2        0.00000   0.00000   0.00000   0.00000   0.00000
  37       13F-2        0.00000   0.00000   0.00000   0.00000   0.00000
  38       13F+3        0.00000   0.00000   0.00000   0.00000   0.00000
  39       13F-3        0.00000   0.00000   0.00000   0.00000   0.00000
  40       14F 0        0.00000   0.00000   0.00000   0.00000   0.00000
  41       14F+1        0.00000   0.00000   0.00000   0.00000   0.00000
  42       14F-1        0.00000   0.00000   0.00000   0.00000   0.00000
  43       14F+2        0.00000   0.00000   0.00000   0.00000   0.00000
  44       14F-2        0.00000   0.00000   0.00000   0.00000   0.00000
  45       14F+3        0.00000   0.00000   0.00000   0.00000   0.00000
  46       14F-3        0.00000   0.00000   0.00000   0.00000   0.00000
                          46
                       (T2G)--V
     Eigenvalues --     7.72232
   1 1   O  1S          1.26727
   2        2S          3.26548
   3        3S         -2.49034
   4        4S         -2.08346
   5        5S          0.63934
   6        6PX         0.00000
   7        6PY         0.00000
   8        6PZ         0.00000
   9        7PX         0.00000
  10        7PY         0.00000
  11        7PZ         0.00000
  12        8PX         0.00000
  13        8PY         0.00000
  14        8PZ         0.00000
  15        9PX         0.00000
  16        9PY         0.00000
  17        9PZ         0.00000
  18       10D 0       -0.00812
  19       10D+1        0.00000
  20       10D-1        0.00000
  21       10D+2       -0.01407
  22       10D-2        0.00000
  23       11D 0        0.00531
  24       11D+1        0.00000
  25       11D-1        0.00000
  26       11D+2        0.00920
  27       11D-2        0.00000
  28       12D 0       -0.00189
  29       12D+1        0.00000
  30       12D-1        0.00000
  31       12D+2       -0.00327
  32       12D-2        0.00000
  33       13F 0        0.00000
  34       13F+1        0.00000
  35       13F-1        0.00000
  36       13F+2        0.00000
  37       13F-2        0.00000
  38       13F+3        0.00000
  39       13F-3        0.00000
  40       14F 0        0.00000
  41       14F+1        0.00000
  42       14F-1        0.00000
  43       14F+2        0.00000
  44       14F-2        0.00000
  45       14F+3        0.00000
  46       14F-3        0.00000
[...]
  33       13F 0        0.00000  -0.00000   0.00000   0.00000   0.00000
  34       13F+1       -0.00000  -0.00000   0.00000   0.00000   0.00000
  35       13F-1       -0.00000   0.00000   0.00000   0.00000   0.00000
  36       13F+2       -0.00000  -0.00000   0.00000   0.00000   0.00000
  37       13F-2       -0.00000   0.00000   0.00000   0.00000   0.00000
  38       13F+3        0.00000   0.00000   0.00000   0.00000   0.00000
  39       13F-3        0.00000   0.00000   0.00000   0.00000   0.00000
  40       14F 0       -0.00000   0.00000   0.00000   0.00000   0.00000
  41       14F+1       -0.00000  -0.00000   0.00000   0.00000   0.00000
  42       14F-1       -0.00000   0.00000   0.00000   0.00000   0.00000
  43       14F+2       -0.00000  -0.00000   0.00000   0.00000   0.00000
  44       14F-2        0.00000   0.00000   0.00000   0.00000   0.00000
  45       14F+3        0.00000   0.00000   0.00000   0.00000   0.00000
  46       14F-3       -0.00000   0.00000   0.00000   0.00000   0.00000
                          21        22        23        24        25
  21       10D+2        0.00006
  22       10D-2        0.00000   0.00000
  23       11D 0       -0.00000   0.00000   0.00006
  24       11D+1       -0.00000   0.00000   0.00000  -0.00000
  25       11D-1        0.00000   0.00000  -0.00000   0.00000   0.00000
  26       11D+2        0.00005  -0.00000  -0.00000   0.00000   0.00000
  27       11D-2        0.00000   0.00000   0.00000   0.00000   0.00000
  28       12D 0        0.00000   0.00000   0.00000   0.00000  -0.00000
  29       12D+1       -0.00000   0.00000   0.00000   0.00000   0.00000
  30       12D-1       -0.00000   0.00000   0.00000   0.00000   0.00000
  31       12D+2        0.00000  -0.00000   0.00000   0.00000  -0.00000
  32       12D-2       -0.00000   0.00000   0.00000   0.00000   0.00000
  33       13F 0        0.00000   0.00000   0.00000   0.00000   0.00000
  34       13F+1        0.00000   0.00000   0.00000   0.00000   0.00000
  35       13F-1        0.00000   0.00000   0.00000   0.00000   0.00000
  36       13F+2        0.00000   0.00000   0.00000   0.00000   0.00000
  37       13F-2        0.00000   0.00000   0.00000   0.00000   0.00000
  38       13F+3        0.00000   0.00000   0.00000   0.00000   0.00000
  39       13F-3        0.00000   0.00000   0.00000   0.00000   0.00000
  40       14F 0        0.00000   0.00000   0.00000   0.00000   0.00000
  41       14F+1        0.00000   0.00000   0.00000   0.00000   0.00000
  42       14F-1        0.00000   0.00000   0.00000   0.00000   0.00000
  43       14F+2        0.00000   0.00000   0.00000   0.00000   0.00000
  44       14F-2        0.00000   0.00000   0.00000   0.00000   0.00000
  45       14F+3        0.00000   0.00000   0.00000   0.00000   0.00000
  46       14F-3        0.00000   0.00000   0.00000   0.00000   0.00000
                          26        27        28        29        30
  26       11D+2        0.00017
  27       11D-2        0.00000   0.00000
  28       12D 0        0.00000   0.00000   0.00000
  29       12D+1       -0.00000   0.00000  -0.00000  -0.00000
  30       12D-1       -0.00000   0.00000   0.00000   0.00000   0.00000
  31       12D+2        0.00001  -0.00000  -0.00000  -0.00000   0.00000
  32       12D-2       -0.00000   0.00000   0.00000   0.00000   0.00000
  33       13F 0        0.00000   0.00000   0.00000   0.00000   0.00000
  34       13F+1        0.00000   0.00000   0.00000   0.00000   0.00000
  35       13F-1        0.00000   0.00000   0.00000   0.00000   0.00000
  36       13F+2        0.00000   0.00000   0.00000   0.00000   0.00000
  37       13F-2        0.00000   0.00000   0.00000   0.00000   0.00000
  38       13F+3        0.00000   0.00000   0.00000   0.00000   0.00000
  39       13F-3        0.00000   0.00000   0.00000   0.00000   0.00000
  40       14F 0        0.00000   0.00000   0.00000   0.00000   0.00000
  41       14F+1        0.00000   0.00000   0.00000   0.00000   0.00000
  42       14F-1        0.00000   0.00000   0.00000   0.00000   0.00000
  43       14F+2        0.00000   0.00000   0.00000   0.00000   0.00000
  44       14F-2        0.00000   0.00000   0.00000   0.00000   0.00000
  45       14F+3        0.00000   0.00000   0.00000   0.00000   0.00000
  46       14F-3        0.00000   0.00000   0.00000   0.00000   0.00000
                          31        32        33        34        35
  31       12D+2        0.00001
  32       12D-2        0.00000   0.00000
  33       13F 0        0.00000   0.00000   0.00001
  34       13F+1        0.00000   0.00000  -0.00000   0.00000
  35       13F-1        0.00000   0.00000   0.00000   0.00000   0.00002
  36       13F+2        0.00000   0.00000  -0.00000   0.00000   0.00000
  37       13F-2        0.00000   0.00000  -0.00000  -0.00000   0.00000
  38       13F+3        0.00000   0.00000  -0.00000   0.00000  -0.00000
  39       13F-3        0.00000   0.00000  -0.00000   0.00000  -0.00000
  40       14F 0        0.00000   0.00000   0.00000  -0.00000   0.00000
  41       14F+1        0.00000   0.00000   0.00000   0.00000  -0.00000
  42       14F-1        0.00000   0.00000   0.00000   0.00000   0.00001
  43       14F+2        0.00000   0.00000  -0.00000   0.00000   0.00000
  44       14F-2        0.00000   0.00000  -0.00000  -0.00000   0.00000
  45       14F+3        0.00000   0.00000   0.00000  -0.00000  -0.00000
  46       14F-3        0.00000   0.00000   0.00000  -0.00000   0.00000
                          36        37        38        39        40
  36       13F+2        0.00002
  37       13F-2       -0.00000   0.00000
  38       13F+3       -0.00000   0.00000   0.00003
  39       13F-3       -0.00000  -0.00000  -0.00000   0.00003
  40       14F 0       -0.00000  -0.00000  -0.00000   0.00000   0.00001
  41       14F+1       -0.00000  -0.00000  -0.00000  -0.00000   0.00000
  42       14F-1        0.00000  -0.00000  -0.00000   0.00000   0.00000
  43       14F+2        0.00001  -0.00000   0.00000   0.00000  -0.00000
  44       14F-2       -0.00000   0.00000   0.00000  -0.00000  -0.00000
  45       14F+3       -0.00000   0.00000   0.00001   0.00000  -0.00000
  46       14F-3       -0.00000   0.00000  -0.00000   0.00001   0.00000
                          41        42        43        44        45
  41       14F+1        0.00000
  42       14F-1        0.00000   0.00001
  43       14F+2       -0.00000   0.00000   0.00001
  44       14F-2       -0.00000  -0.00000  -0.00000   0.00000
  45       14F+3       -0.00000  -0.00000  -0.00000   0.00000   0.00002
  46       14F-3       -0.00000   0.00000   0.00000  -0.00000  -0.00000
                          46
  46       14F-3        0.00002
     Gross orbital populations:
                         Total     Alpha     Beta      Spin
   1 1   O  1S          1.95689   0.97766   0.97923  -0.00157
   2        2S          1.06459   0.55082   0.51377   0.03704
   3        3S          0.28252   0.14819   0.13433   0.01387
   4        4S          0.67867   0.31918   0.35949  -0.04031
   5        5S          0.01683   0.00377   0.01306  -0.00929
   6        6PX         0.31089   0.31089   0.00000   0.31089
   7        6PY         0.57833   0.29748   0.28085   0.01663
   8        6PZ         0.31089   0.31089   0.00000   0.31089
   9        7PX         0.45572   0.45572   0.00000   0.45572
  10        7PY         0.85409   0.43631   0.41778   0.01852
  11        7PZ         0.45572   0.45572   0.00000   0.45572
  12        8PX         0.22532   0.22532   0.00000   0.22532
  13        8PY         0.52686   0.25043   0.27643  -0.02601
  14        8PZ         0.22532   0.22532   0.00000   0.22532
  15        9PX         0.00800   0.00800   0.00000   0.00800
  16        9PY         0.04060   0.01567   0.02493  -0.00926
  17        9PZ         0.00800   0.00800   0.00000   0.00800
  18       10D 0        0.00004   0.00003   0.00001   0.00002
  19       10D+1        0.00000   0.00000   0.00000   0.00000
  20       10D-1        0.00000   0.00000   0.00000   0.00000
  21       10D+2        0.00012   0.00008   0.00004   0.00005
  22       10D-2        0.00000   0.00000   0.00000   0.00000
  23       11D 0        0.00008   0.00007   0.00001   0.00005
  24       11D+1       -0.00000  -0.00000   0.00000  -0.00000
  25       11D-1        0.00000   0.00000   0.00000   0.00000
  26       11D+2        0.00024   0.00020   0.00004   0.00015
  27       11D-2        0.00000   0.00000   0.00000   0.00000
  28       12D 0        0.00001   0.00000   0.00000  -0.00000
  29       12D+1        0.00000  -0.00000   0.00000  -0.00000
  30       12D-1        0.00000   0.00000   0.00000  -0.00000
  31       12D+2        0.00002   0.00001   0.00001  -0.00000
  32       12D-2        0.00000   0.00000   0.00000  -0.00000
  33       13F 0        0.00002   0.00002   0.00000   0.00002
  34       13F+1        0.00000   0.00000   0.00000   0.00000
  35       13F-1        0.00002   0.00002   0.00000   0.00002
  36       13F+2        0.00003   0.00003   0.00000   0.00003
  37       13F-2        0.00000   0.00000  -0.00000   0.00000
  38       13F+3        0.00004   0.00004   0.00000   0.00004
  39       13F-3        0.00004   0.00004   0.00000   0.00004
  40       14F 0        0.00001   0.00001  -0.00000   0.00001
  41       14F+1        0.00000   0.00000  -0.00000   0.00000
  42       14F-1        0.00002   0.00002  -0.00000   0.00002
  43       14F+2        0.00002   0.00002  -0.00000   0.00002
  44       14F-2        0.00000   0.00000  -0.00000   0.00000
  45       14F+3        0.00003   0.00003  -0.00000   0.00003
  46       14F-3        0.00003   0.00003  -0.00000   0.00003
          Condensed to atoms (all electrons):
               1
     1  O    8.000000
          Atomic-Atomic Spin Densities.
               1
     1  O    2.000000
 Mulliken charges and spin densities:
               1          2
     1  O   -0.000000   2.000000
 Sum of Mulliken charges =  -0.00000   2.00000
 Mulliken charges and spin densities with hydrogens summed into heavy atoms:
               1          2
     1  O   -0.000000   2.000000
 Electronic spatial extent (au):  <R**2>=             11.6055
 Charge=             -0.0000 electrons
 Dipole moment (field-independent basis, Debye):
    X=              0.0000    Y=              0.0000    Z=              0.0000  Tot=              0.0000
 Quadrupole moment (field-independent basis, Debye-Ang):
   XX=             -4.7753   YY=             -6.0591   ZZ=             -4.7753
   XY=              0.0000   XZ=             -0.0000   YZ=             -0.0000
 Traceless Quadrupole moment (field-independent basis, Debye-Ang):
   XX=              0.4279   YY=             -0.8558   ZZ=              0.4279
   XY=              0.0000   XZ=             -0.0000   YZ=             -0.0000
 Octapole moment (field-independent basis, Debye-Ang**2):
  XXX=              0.0000  YYY=              0.0000  ZZZ=              0.0000  XYY=              0.0000
  XXY=              0.0000  XXZ=              0.0000  XZZ=              0.0000  YZZ=              0.0000
  YYZ=              0.0000  XYZ=              0.0000
 Hexadecapole moment (field-independent basis, Debye-Ang**3):
 XXXX=             -3.5145 YYYY=             -5.7621 ZZZZ=             -3.5145 XXXY=              0.0000
 XXXZ=             -0.0000 YYYX=              0.0000 YYYZ=             -0.0000 ZZZX=              0.0000
 ZZZY=             -0.0000 XXYY=             -1.5465 XXZZ=             -1.1715 YYZZ=             -1.5465
 XXYZ=             -0.0000 YYXZ=              0.0000 ZZXY=              0.0000
 N-N= 0.000000000000D+00 E-N=-1.779045535003D+02  KE= 7.470130284904D+01
 Symmetry AG   KE= 6.440446405754D+01
 Symmetry B1G  KE= 9.817616602087D-36
 Symmetry B2G  KE= 1.123463470884D-52
 Symmetry B3G  KE= 9.817616602087D-36
 Symmetry AU   KE= 2.941954710587D-36
 Symmetry B1U  KE= 2.664093252900D+00
 Symmetry B2U  KE= 4.968652285701D+00
 Symmetry B3U  KE= 2.664093252900D+00
 Symmetry AG   SP= 4.382394160022D-16
 Symmetry B1G  SP= 1.443196432760D-36
 Symmetry B2G  SP=-2.287725026313D-53
 Symmetry B3G  SP= 1.443196432760D-36
 Symmetry AU   SP= 6.808185728359D-37
 Symmetry B1U  SP= 1.000000000000D+00
 Symmetry B2U  SP=-2.947742165372D-15
 Symmetry B3U  SP= 1.000000000000D+00
 Orbital energies and kinetic energies (alpha):
                                 1                 2
   1         (A1G)--O        -19.284760         28.978984
   2         O                -1.025204          3.285169
   3         O                -0.465748          2.664093
   4         O                -0.465748          2.664093
   5         O                -0.391117          2.550712
   6         V                 0.063348          0.476928
   7         V                 0.094273          0.340639
   8         V                 0.094273          0.340639
   9         V                 0.097774          0.364042
  10         (T2G)--V          0.485422          0.734422
  11         V                 0.485422          0.734422
  12         (T2G)--V          0.497208          0.730069
  13         (T2G)--V          0.497208          0.730069
  14         V                 0.502120          0.730135
  15         V                 0.683751          1.967584
  16         V                 0.683751          1.967584
  17         V                 0.715880          2.033219
  18         V                 1.035917          3.132896
  19         V                 1.765032          2.160531
  20         V                 1.765032          2.160531
  21         (T2G)--V          1.782741          2.731362
  22         V                 1.782741          2.731362
  23         V                 1.783490          2.159697
  24         (A2U)--V          1.783490          2.159697
  25         V                 1.794549          2.159252
  26         V                 1.794549          2.159252
  27         V                 1.798737          2.159094
  28         (T2G)--V          1.821938          2.730580
  29         (T2G)--V          1.821938          2.730580
  30         V                 1.836173          2.730727
  31         V                 3.573224          9.236788
  32         V                 3.573224          9.236788
  33         V                 3.635999          9.261296
  34         V                 5.881151          7.399465
  35         V                 5.881151          7.399465
  36         V                 5.922242          7.400299
  37         (A2U)--V          5.922242          7.400299
  38         V                 5.947160          7.400492
  39         V                 5.947160          7.400492
  40         V                 5.955935          7.400485
  41         (T2G)--V          6.309847          9.544079
  42         V                 6.309847          9.544079
  43         (T2G)--V          6.369636          9.549215
  44         (T2G)--V          6.369636          9.549215
  45         V                 6.389442          9.552165
  46         V                 7.632099         26.160061
 Orbital energies and kinetic energies (beta):
                                 1                 2
   1         (A1G)--O        -19.233309         29.076940
   2         (T2G)--O         -0.866724          3.063371
   3         O                -0.340535          2.417940
   4         V                -0.188947          2.103127
   5         V                -0.188947          2.103127
   6         (A1G)--V          0.074438          0.495832
   7         V                 0.100044          0.396384
   8         V                 0.112275          0.501285
   9         V                 0.112275          0.501285
  10         (T2G)--V          0.507446          0.723831
  11         (T2G)--V          0.507446          0.723831
  12         (EG)--V           0.510681          0.724035
  13         (T2G)--V          0.511949          0.722336
  14         (EG)--V           0.511951          0.722336
  15         V                 0.733517          2.097243
  16         V                 0.758019          2.226785
  17         V                 0.758019          2.226785
  18         (A1G)--V          1.099420          3.220709
  19         V                 1.812860          2.157689
  20         (A2U)--V          1.812860          2.157689
  21         V                 1.815449          2.157404
  22         V                 1.815449          2.157404
  23         V                 1.815714          2.157724
  24         V                 1.815840          2.157703
  25         V                 1.815840          2.157703
  26         (T2G)--V          1.878131          2.724831
  27         (T2G)--V          1.878131          2.724831
  28         (T2G)--V          1.882923          2.724647
  29         (T2G)--V          1.892562          2.721076
  30         (T2G)--V          1.892563          2.721076
  31         (T1U)--V          3.676470          9.297265
  32         (T1U)--V          3.711048          9.377640
  33         (T1U)--V          3.711048          9.377640
  34         (A2U)--V          6.011962          7.402307
  35         V                 6.011962          7.402307
  36         V                 6.015120          7.402292
  37         V                 6.017121          7.402307
  38         V                 6.017121          7.402307
  39         V                 6.025677          7.402592
  40         V                 6.025677          7.402592
  41         (T2G)--V          6.472988          9.561201
  42         (T2G)--V          6.472988          9.561201
  43         (T2G)--V          6.481251          9.563237
  44         (T2G)--V          6.511568          9.566451
  45         (T2G)--V          6.511569          9.566450
  46         (T2G)--V          7.722323         26.178293
 Total kinetic energy from orbitals= 7.470130284904D+01
                          Isotropic Fermi Contact Couplings
        Atom                 a.u.       MegaHertz       Gauss      10(-4) cm-1
     1  O(17)              0.01635      -4.95434      -1.76783      -1.65259
 --------------------------------------------------------
       Center         ----  Spin Dipole Couplings  ----
                      3XX-RR        3YY-RR        3ZZ-RR
 --------------------------------------------------------
     1   Atom        2.019395     -4.038789      2.019395
 --------------------------------------------------------
                        XY            XZ            YZ
 --------------------------------------------------------
     1   Atom        0.000000      0.000000      0.000000
 --------------------------------------------------------


 ---------------------------------------------------------------------------------
              Anisotropic Spin Dipole Couplings in Principal Axis System
 ---------------------------------------------------------------------------------

       Atom             a.u.   MegaHertz   Gauss  10(-4) cm-1        Axes

              Baa    -4.0388   292.244   104.280    97.482 -0.0000  1.0000  0.0000
     1 O(17)  Bbb     2.0194  -146.122   -52.140   -48.741  0.0000  0.0000  1.0000
              Bcc     2.0194  -146.122   -52.140   -48.741  1.0000  0.0000  0.0000
 

 ---------------------------------------------------------------------------------

 1\1\GINC-LOGIN\SP\UB3LYP\Aug-CC-pVTZ\O1(3)\C7441090\20-Nov-2023\0\\# B
 3LYP/aug-cc-pVTZ EmpiricalDispersion=GD3 Pop=Full\\Oxygen\\0,3\O,0,0.,
 0.,0.\\Version=ES64L-G16RevA.03\HF=-75.0941778\S2=2.003916\S2-1=0.\S2A
 =2.000006\RMSD=5.035e-10\Dipole=0.,0.,0.\Quadrupole=0.3181503,-0.63630
 06,0.3181503,0.,0.,0.\PG=OH [O(O1)]\\@


 A politician is a person who can make waves and then
 make you think he's the only one who can save the ship.
 -- Ivern Ball
 Job cpu time:       0 days  0 hours  0 minutes  9.2 seconds.
 Elapsed time:       0 days  0 hours  0 minutes  4.5 seconds.
 File lengths (MBytes):  RWF=      5 Int=      0 D2E=      0 Chk=      1 Scr=      1
 Normal termination of Gaussian 16 at Mon Nov 20 23:53:03 2023.
