Phosphorus                                                              
SP        UB3LYP                                                      Aug-CC-pVTZ         
Number of atoms                            I                1
Info1-9                                    I   N=           9
          12          11           0           0           0         110
           1          18        -502
Full Title                                 C   N=           1
Phosphorus  
Route                                      C   N=           5
# B3LYP/aug-cc-pVTZ EmpiricalDispersion=GD3 Pop=Full        
Charge                                     I                0
Multiplicity                               I                4
Number of electrons                        I               15
Number of alpha electrons                  I                9
Number of beta electrons                   I                6
Number of basis functions                  I               50
Number of independent functions            I               50
Number of point charges in /Mol/           I                0
Number of translation vectors              I                0
Atomic numbers                             I   N=           1
          15
Nuclear charges                            R   N=           1
  1.50000000E+01
Current cartesian coordinates              R   N=           3
  0.00000000E+00  0.00000000E+00  0.00000000E+00
Number of symbols in /Mol/                 I                0
Force Field                                I                0
Atom Types                                 C   N=           1
            
Int Atom Types                             I   N=           1
           0
MM charges                                 R   N=           1
  0.00000000E+00
Integer atomic weights                     I   N=           1
          31
Real atomic weights                        R   N=           1
  3.09737634E+01
Atom fragment info                         I   N=           1
           0
Atom residue num                           I   N=           1
           0
Nuclear spins                              I   N=           1
           1
Nuclear ZEff                               R   N=           1
 -1.29400000E+01
Nuclear ZNuc                               R   N=           1
  1.50000000E+01
Nuclear QMom                               R   N=           1
  0.00000000E+00
Nuclear GFac                               R   N=           1
  1.13160000E+00
MicOpt                                     I   N=           1
          -1
Number of residues                         I                0
Number of secondary structures             I                0
SymInf integers                            I   N=          26
           1           8           1           1           1           1
          -1          -1          -1           1          -1          -1
          -1           1          -1          -1          -1          -1
           1           1           1          -1           1           1
           1          -1
RotTr to input orientation                 R   N=          12
  0.00000000E+00  0.00000000E+00 -1.00000000E+00  0.00000000E+00  1.00000000E+00
  0.00000000E+00  1.00000000E+00  0.00000000E+00  0.00000000E+00  0.00000000E+00
  0.00000000E+00  0.00000000E+00
Number of contracted shells                I               16
Number of primitive shells                 I               52
Pure/Cartesian d shells                    I                0
Pure/Cartesian f shells                    I                0
Highest angular momentum                   I                3
Largest degree of contraction              I               11
Shell types                                I   N=          16
           0           0           0           0           0           0
           1           1           1           1           1          -2
          -2          -2          -3          -3
Number of primitives per shell             I   N=          16
          11           9           9           1           1           1
           6           6           1           1           1           1
           1           1           1           1
Shell to atom map                          I   N=          16
           1           1           1           1           1           1
           1           1           1           1           1           1
           1           1           1           1
Primitive exponents                        R   N=          52
  3.12400000E+05  4.68000000E+04  1.06500000E+04  3.01800000E+03  9.86800000E+02
  3.57400000E+02  1.39600000E+02  5.76300000E+01  2.46000000E+01  1.01200000E+01
  1.80500000E+00  3.01800000E+03  9.86800000E+02  3.57400000E+02  1.39600000E+02
  5.76300000E+01  2.46000000E+01  1.01200000E+01  4.28300000E+00  1.80500000E+00
  3.01800000E+03  9.86800000E+02  1.39600000E+02  5.76300000E+01  2.46000000E+01
  1.01200000E+01  4.28300000E+00  1.80500000E+00  2.78200000E-01  6.15800000E-01
  1.05500000E-01  4.09000000E-02  5.04900000E+02  1.19400000E+02  3.79600000E+01
  1.39500000E+01  5.45700000E+00  2.17700000E+00  1.19400000E+02  3.79600000E+01
  1.39500000E+01  5.45700000E+00  2.17700000E+00  2.87700000E-01  8.01000000E-01
  9.71400000E-02  3.07000000E-02  2.16000000E-01  6.52000000E-01  7.75000000E-02
  4.52000000E-01  1.65000000E-01
Contraction coefficients                   R   N=          52
  5.76409100E-05  4.47841029E-04  2.34697853E-03  9.77257315E-03  3.41109673E-02
  1.00095547E-01  2.34095074E-01  3.81885824E-01  3.17411191E-01  7.08957618E-02
  4.03826368E-03 -1.08131743E-05 -2.02373839E-04 -1.66257411E-03 -1.07639559E-02
 -4.60897228E-02 -1.03463589E-01  5.59177659E-02  5.31030635E-01  5.20254372E-01
 -1.89255066E-06  5.42818728E-06  2.66014402E-04  9.87797734E-04  4.72065909E-03
 -3.29817187E-03 -7.26062994E-02 -3.36622040E-01  1.15329640E+00  1.00000000E+00
  1.00000000E+00  1.00000000E+00  2.43225983E-03  1.92940754E-02  8.84191099E-02
  2.54530346E-01  4.39887761E-01  3.83287485E-01 -9.58097670E-05 -7.89898548E-04
 -6.42511832E-03 -1.49121640E-02 -3.17353877E-02  1.01155536E+00  1.00000000E+00
  1.00000000E+00  1.00000000E+00  1.00000000E+00  1.00000000E+00  1.00000000E+00
  1.00000000E+00  1.00000000E+00
Coordinates of each shell                  R   N=          48
  0.00000000E+00  0.00000000E+00  0.00000000E+00  0.00000000E+00  0.00000000E+00
  0.00000000E+00  0.00000000E+00  0.00000000E+00  0.00000000E+00  0.00000000E+00
  0.00000000E+00  0.00000000E+00  0.00000000E+00  0.00000000E+00  0.00000000E+00
  0.00000000E+00  0.00000000E+00  0.00000000E+00  0.00000000E+00  0.00000000E+00
  0.00000000E+00  0.00000000E+00  0.00000000E+00  0.00000000E+00  0.00000000E+00
  0.00000000E+00  0.00000000E+00  0.00000000E+00  0.00000000E+00  0.00000000E+00
  0.00000000E+00  0.00000000E+00  0.00000000E+00  0.00000000E+00  0.00000000E+00
  0.00000000E+00  0.00000000E+00  0.00000000E+00  0.00000000E+00  0.00000000E+00
  0.00000000E+00  0.00000000E+00  0.00000000E+00  0.00000000E+00  0.00000000E+00
  0.00000000E+00  0.00000000E+00  0.00000000E+00
Num ILSW                                   I              100
ILSW                                       I   N=         100
           1           0           0           0           2           0
           0           0           0           0         402          -1
           5           0           0           0           0           0
           0           0           1           0           0           0
           1           0           0           0           0           0
           0           0      100000           0          -1           0
           0           0           0           0           0           0
           0           0           0           1           0           0
           0 -2000000000           1           0           0           0
           0           0         131          52           0           0
           0           0           5           0           0           0
           0           0           0           0           0           1
           0           0           0           0           0           0
           0           0           0           0           0           0
           0           0           0           0           0           0
           0           0           0           0           0           0
           0           0           0           0
Num RLSW                                   I               52
RLSW                                       R   N=          52
  8.00000000E-01  7.20000000E-01  1.00000000E+00  8.10000000E-01  2.00000000E-01
  0.00000000E+00  0.00000000E+00  1.00000000E+00  0.00000000E+00  0.00000000E+00
  0.00000000E+00  0.00000000E+00  1.00000000E+00  0.00000000E+00  0.00000000E+00
  0.00000000E+00  0.00000000E+00  1.00000000E+00  0.00000000E+00  0.00000000E+00
  0.00000000E+00  0.00000000E+00  1.00000000E+00  0.00000000E+00  0.00000000E+00
  0.00000000E+00  0.00000000E+00  1.00000000E+00  0.00000000E+00  0.00000000E+00
  0.00000000E+00  0.00000000E+00  1.00000000E+00  0.00000000E+00  0.00000000E+00
  0.00000000E+00  0.00000000E+00  0.00000000E+00  1.00000000E+00  1.00000000E+00
  0.00000000E+00  1.00000000E+00  0.00000000E+00  0.00000000E+00  0.00000000E+00
  0.00000000E+00  0.00000000E+00  0.00000000E+00  0.00000000E+00  0.00000000E+00
  0.00000000E+00  0.00000000E+00
MxBond                                     I                1
NBond                                      I   N=           1
           0
IBond                                      I   N=           1
           0
RBond                                      R   N=           1
  0.00000000E+00
Virial Ratio                               R      2.003115541120551E+00
SCF Energy                                 R     -3.412862676413682E+02
Total Energy                               R     -3.412862676413682E+02
S**2                                       R      3.750591535855748E+00
S**2 after annihilation                    R      3.750000001943450E+00
RMS Density                                R      5.667312115482323E-09
Job Status                                 I                1
Nuclear derivative order                   I                0
External E-field                           R   N=          35
  0.00000000E+00  0.00000000E+00  0.00000000E+00  0.00000000E+00  0.00000000E+00
  0.00000000E+00  0.00000000E+00  0.00000000E+00  0.00000000E+00  0.00000000E+00
  0.00000000E+00  0.00000000E+00  0.00000000E+00  0.00000000E+00  0.00000000E+00
  0.00000000E+00  0.00000000E+00  0.00000000E+00  0.00000000E+00  0.00000000E+00
  0.00000000E+00  0.00000000E+00  0.00000000E+00  0.00000000E+00  0.00000000E+00
  0.00000000E+00  0.00000000E+00  0.00000000E+00  0.00000000E+00  0.00000000E+00
  0.00000000E+00  0.00000000E+00  0.00000000E+00  0.00000000E+00  0.00000000E+00
IOpCl                                      I                1
IROHF                                      I                0
Alpha Orbital Energies                     R   N=          50
 -7.71348354E+01 -6.59241082E+00 -4.75632982E+00 -4.75632982E+00 -4.75632982E+00
 -6.00795117E-01 -2.61939539E-01 -2.61939539E-01 -2.61939539E-01  1.74209721E-02
  4.43745200E-02  4.43745200E-02  4.43745200E-02  1.11849911E-01  1.11849911E-01
  1.11849911E-01  1.11849911E-01  1.11849911E-01  3.62459599E-01  3.62459599E-01
  3.62459599E-01  4.10542104E-01  4.10542104E-01  4.10542104E-01  4.10542104E-01
  4.10542104E-01  4.44933451E-01  5.08712975E-01  5.08712975E-01  5.08712975E-01
  5.08712975E-01  5.08712975E-01  5.08712975E-01  5.08712975E-01  1.36766693E+00
  1.36766693E+00  1.36766693E+00  1.36766693E+00  1.36766693E+00  1.60013429E+00
  1.60013429E+00  1.60013429E+00  1.60013429E+00  1.60013429E+00  1.60013429E+00
  1.60013429E+00  1.92942739E+00  1.92942739E+00  1.92942739E+00  2.95680232E+00
Beta Orbital Energies                      R   N=          50
 -7.71221289E+01 -6.57931832E+00 -4.73663690E+00 -4.73663690E+00 -4.73663690E+00
 -4.84956581E-01 -1.19956225E-01 -1.19956225E-01 -1.19956225E-01  2.80567726E-02
  5.51968999E-02  5.51968999E-02  5.51968999E-02  1.37120622E-01  1.37120622E-01
  1.37120622E-01  1.37120622E-01  1.37120622E-01  4.00540441E-01  4.00540441E-01
  4.00540441E-01  4.75151919E-01  4.75151919E-01  4.75151919E-01  4.75151919E-01
  4.75151919E-01  4.82479919E-01  5.35319482E-01  5.35319482E-01  5.35319482E-01
  5.35319482E-01  5.35319482E-01  5.35319482E-01  5.35319482E-01  1.42462836E+00
  1.42462836E+00  1.42462836E+00  1.42462836E+00  1.42462836E+00  1.67501188E+00
  1.67501188E+00  1.67501188E+00  1.67501188E+00  1.67501188E+00  1.67501188E+00
  1.67501188E+00  1.97491457E+00  1.97491457E+00  1.97491457E+00  2.99199178E+00
Alpha MO coefficients                      R   N=        2500
  1.00095193E+00 -9.38019643E-04  3.41140244E-03 -4.01171345E-03 -2.15273095E-03
  7.05875346E-04  0.00000000E+00  0.00000000E+00  0.00000000E+00  0.00000000E+00
  0.00000000E+00  0.00000000E+00  0.00000000E+00  0.00000000E+00  0.00000000E+00
  0.00000000E+00  0.00000000E+00  0.00000000E+00  0.00000000E+00  0.00000000E+00
  0.00000000E+00 -1.72294065E-15  0.00000000E+00  0.00000000E+00 -3.77302749E-16
  0.00000000E+00  1.73304027E-15  0.00000000E+00  0.00000000E+00  4.32319462E-16
  0.00000000E+00  6.50384357E-16  0.00000000E+00  0.00000000E+00  6.86736271E-17
  0.00000000E+00  0.00000000E+00  0.00000000E+00  0.00000000E+00  0.00000000E+00
  0.00000000E+00  0.00000000E+00  0.00000000E+00  0.00000000E+00  0.00000000E+00
  0.00000000E+00  0.00000000E+00  0.00000000E+00  0.00000000E+00  0.00000000E+00
 -2.71481935E-01  9.74617543E-01 -1.95605762E-02  8.82965911E-02  8.64070930E-03
 -2.46746866E-03  0.00000000E+00  0.00000000E+00  0.00000000E+00  0.00000000E+00
  0.00000000E+00  0.00000000E+00  0.00000000E+00  0.00000000E+00  0.00000000E+00
  0.00000000E+00  0.00000000E+00  0.00000000E+00  0.00000000E+00  0.00000000E+00
  0.00000000E+00  5.59165558E-16  0.00000000E+00  0.00000000E+00  5.09258683E-16
  0.00000000E+00 -3.67236966E-16  0.00000000E+00  0.00000000E+00 -7.83104171E-16
  0.00000000E+00 -3.52746086E-16  0.00000000E+00  0.00000000E+00 -8.79373768E-17
  0.00000000E+00  0.00000000E+00  0.00000000E+00  0.00000000E+00  0.00000000E+00
  0.00000000E+00  0.00000000E+00  0.00000000E+00  0.00000000E+00  0.00000000E+00
  0.00000000E+00  0.00000000E+00  0.00000000E+00  0.00000000E+00  0.00000000E+00
  0.00000000E+00  0.00000000E+00  0.00000000E+00  0.00000000E+00  0.00000000E+00
  0.00000000E+00  0.00000000E+00  0.00000000E+00  9.57866149E-01  0.00000000E+00
  0.00000000E+00 -1.55615130E-04  0.00000000E+00  0.00000000E+00  8.18940738E-02
  0.00000000E+00  0.00000000E+00 -2.27222120E-04  0.00000000E+00  0.00000000E+00
  1.59949126E-04  0.00000000E+00  0.00000000E+00  0.00000000E+00  0.00000000E+00
  0.00000000E+00  0.00000000E+00  0.00000000E+00  0.00000000E+00  0.00000000E+00
  0.00000000E+00  0.00000000E+00  0.00000000E+00  0.00000000E+00  0.00000000E+00
  0.00000000E+00 -2.66067723E-13  0.00000000E+00  0.00000000E+00 -4.15531074E-16
  0.00000000E+00  0.00000000E+00  0.00000000E+00  8.51733386E-14  0.00000000E+00
  0.00000000E+00  1.10635776E-16  0.00000000E+00  0.00000000E+00  0.00000000E+00
  0.00000000E+00  0.00000000E+00  0.00000000E+00  0.00000000E+00  0.00000000E+00
  0.00000000E+00  0.00000000E+00  9.57866149E-01  0.00000000E+00  0.00000000E+00
 -1.55615130E-04  0.00000000E+00  0.00000000E+00  8.18940738E-02  0.00000000E+00
  0.00000000E+00 -2.27222120E-04  0.00000000E+00  0.00000000E+00  1.59949126E-04
  0.00000000E+00  0.00000000E+00  0.00000000E+00  0.00000000E+00  0.00000000E+00
  0.00000000E+00  0.00000000E+00  0.00000000E+00  0.00000000E+00  0.00000000E+00
  0.00000000E+00  0.00000000E+00  0.00000000E+00  0.00000000E+00  0.00000000E+00
  0.00000000E+00  0.00000000E+00  0.00000000E+00  1.62873358E-13  0.00000000E+00
  0.00000000E+00  0.00000000E+00  2.09454619E-13  0.00000000E+00  0.00000000E+00
 -5.19616232E-14  0.00000000E+00  0.00000000E+00  0.00000000E+00 -6.86167095E-14
  0.00000000E+00  0.00000000E+00  0.00000000E+00  0.00000000E+00  0.00000000E+00
  0.00000000E+00  9.57866149E-01  0.00000000E+00  0.00000000E+00 -1.55615130E-04
  0.00000000E+00  0.00000000E+00  8.18940738E-02  0.00000000E+00  0.00000000E+00
 -2.27222120E-04  0.00000000E+00  0.00000000E+00  1.59949126E-04  0.00000000E+00
  0.00000000E+00  0.00000000E+00  0.00000000E+00  0.00000000E+00  0.00000000E+00
  0.00000000E+00  0.00000000E+00  0.00000000E+00  0.00000000E+00  0.00000000E+00
  0.00000000E+00  0.00000000E+00  0.00000000E+00  0.00000000E+00  0.00000000E+00
  0.00000000E+00  0.00000000E+00  1.62823873E-13  0.00000000E+00  0.00000000E+00
  0.00000000E+00 -2.10369226E-13  0.00000000E+00  0.00000000E+00 -5.13097003E-14
  0.00000000E+00  0.00000000E+00  0.00000000E+00  6.61936740E-14  0.00000000E+00
  7.96518165E-02 -3.02429923E-01  6.33387834E-01  8.91189010E-02  3.69545029E-01
 -3.11657443E-03  0.00000000E+00  0.00000000E+00  0.00000000E+00  0.00000000E+00
  0.00000000E+00  0.00000000E+00  0.00000000E+00  0.00000000E+00  0.00000000E+00
  0.00000000E+00  0.00000000E+00  0.00000000E+00  0.00000000E+00  0.00000000E+00
  0.00000000E+00  2.51132232E-15  0.00000000E+00  0.00000000E+00  2.83880354E-15
  0.00000000E+00 -3.26239458E-15  0.00000000E+00  0.00000000E+00 -3.12357109E-15
  0.00000000E+00 -7.26535863E-16  0.00000000E+00  0.00000000E+00 -1.33857400E-15
  0.00000000E+00  0.00000000E+00  0.00000000E+00  0.00000000E+00  0.00000000E+00
  0.00000000E+00  0.00000000E+00  0.00000000E+00  0.00000000E+00  0.00000000E+00
  0.00000000E+00  0.00000000E+00  0.00000000E+00  0.00000000E+00  0.00000000E+00
  0.00000000E+00  0.00000000E+00  0.00000000E+00  0.00000000E+00  0.00000000E+00
  0.00000000E+00  0.00000000E+00  0.00000000E+00 -2.40966219E-01  0.00000000E+00
  0.00000000E+00  5.56749532E-01  0.00000000E+00  0.00000000E+00  1.74200319E-01
  0.00000000E+00  0.00000000E+00  4.07739691E-01  0.00000000E+00  0.00000000E+00
  2.82971348E-02  0.00000000E+00  0.00000000E+00  0.00000000E+00  0.00000000E+00
  0.00000000E+00  0.00000000E+00  0.00000000E+00  0.00000000E+00  0.00000000E+00
  0.00000000E+00  0.00000000E+00  0.00000000E+00  0.00000000E+00  0.00000000E+00
  0.00000000E+00 -1.30816302E-11  0.00000000E+00  0.00000000E+00 -6.78756864E-16
  0.00000000E+00  0.00000000E+00  0.00000000E+00 -1.20013141E-11  0.00000000E+00
  0.00000000E+00  5.81353233E-16  0.00000000E+00  0.00000000E+00  0.00000000E+00
  0.00000000E+00  0.00000000E+00  0.00000000E+00  0.00000000E+00  0.00000000E+00
  0.00000000E+00 -2.40966219E-01  0.00000000E+00  0.00000000E+00  5.56749532E-01
  0.00000000E+00  0.00000000E+00  1.74200319E-01  0.00000000E+00  0.00000000E+00
  4.07739691E-01  0.00000000E+00  0.00000000E+00  2.82971348E-02  0.00000000E+00
  0.00000000E+00  0.00000000E+00  0.00000000E+00  0.00000000E+00  0.00000000E+00
  0.00000000E+00  0.00000000E+00  0.00000000E+00  0.00000000E+00  0.00000000E+00
  0.00000000E+00  0.00000000E+00  0.00000000E+00  0.00000000E+00  0.00000000E+00
  0.00000000E+00  0.00000000E+00  8.00934228E-12  0.00000000E+00  0.00000000E+00
  0.00000000E+00 -1.03414278E-11  0.00000000E+00  0.00000000E+00  7.35067538E-12
  0.00000000E+00  0.00000000E+00  0.00000000E+00 -9.48985795E-12  0.00000000E+00
  0.00000000E+00  0.00000000E+00  0.00000000E+00  0.00000000E+00  0.00000000E+00
  0.00000000E+00  0.00000000E+00 -2.40966219E-01  0.00000000E+00  0.00000000E+00
  5.56749532E-01  0.00000000E+00  0.00000000E+00  1.74200319E-01  0.00000000E+00
  0.00000000E+00  4.07739691E-01  0.00000000E+00  0.00000000E+00  2.82971348E-02
  0.00000000E+00  0.00000000E+00  0.00000000E+00  0.00000000E+00  0.00000000E+00
  0.00000000E+00  0.00000000E+00  0.00000000E+00  0.00000000E+00  0.00000000E+00
  0.00000000E+00  0.00000000E+00  0.00000000E+00  0.00000000E+00  0.00000000E+00
  0.00000000E+00  0.00000000E+00  0.00000000E+00  8.00949085E-12  0.00000000E+00
  0.00000000E+00  0.00000000E+00  1.03412723E-11  0.00000000E+00  0.00000000E+00
  7.35029381E-12  0.00000000E+00  0.00000000E+00  0.00000000E+00  9.49037668E-12
 -2.48275339E-02  1.35180402E-01 -1.48920962E-01 -6.82189293E-02 -1.08373078E+00
  1.73141365E+00  0.00000000E+00  0.00000000E+00  0.00000000E+00  0.00000000E+00
  0.00000000E+00  0.00000000E+00  0.00000000E+00  0.00000000E+00  0.00000000E+00
  0.00000000E+00  0.00000000E+00  0.00000000E+00  0.00000000E+00  0.00000000E+00
  0.00000000E+00 -3.51505380E-15  0.00000000E+00  0.00000000E+00  2.74860531E-15
  0.00000000E+00  2.57855726E-15  0.00000000E+00  0.00000000E+00 -1.29648269E-15
  0.00000000E+00  1.73859183E-14  0.00000000E+00  0.00000000E+00 -1.56256067E-14
  0.00000000E+00  0.00000000E+00  0.00000000E+00  0.00000000E+00  0.00000000E+00
  0.00000000E+00  0.00000000E+00  0.00000000E+00  0.00000000E+00  0.00000000E+00
  0.00000000E+00  0.00000000E+00  0.00000000E+00  0.00000000E+00  0.00000000E+00
  0.00000000E+00  0.00000000E+00  0.00000000E+00  0.00000000E+00  0.00000000E+00
  0.00000000E+00  0.00000000E+00  0.00000000E+00  8.35557931E-02  0.00000000E+00
  0.00000000E+00 -1.49919049E-01  0.00000000E+00  0.00000000E+00 -8.03117153E-02
  0.00000000E+00  0.00000000E+00 -4.37588508E-01  0.00000000E+00  0.00000000E+00
  1.22032891E+00  0.00000000E+00  0.00000000E+00  0.00000000E+00  0.00000000E+00
  0.00000000E+00  0.00000000E+00  0.00000000E+00  0.00000000E+00  0.00000000E+00
  0.00000000E+00  0.00000000E+00  0.00000000E+00  0.00000000E+00  0.00000000E+00
  0.00000000E+00  4.80225279E-12  0.00000000E+00  0.00000000E+00  1.07352297E-16
  0.00000000E+00  0.00000000E+00  0.00000000E+00 -2.12807806E-12  0.00000000E+00
  0.00000000E+00 -5.40230991E-16  0.00000000E+00  0.00000000E+00  0.00000000E+00
  0.00000000E+00  0.00000000E+00  0.00000000E+00  0.00000000E+00  0.00000000E+00
  0.00000000E+00  8.35557931E-02  0.00000000E+00  0.00000000E+00 -1.49919049E-01
  0.00000000E+00  0.00000000E+00 -8.03117153E-02  0.00000000E+00  0.00000000E+00
 -4.37588508E-01  0.00000000E+00  0.00000000E+00  1.22032891E+00  0.00000000E+00
  0.00000000E+00  0.00000000E+00  0.00000000E+00  0.00000000E+00  0.00000000E+00
  0.00000000E+00  0.00000000E+00  0.00000000E+00  0.00000000E+00  0.00000000E+00
  0.00000000E+00  0.00000000E+00  0.00000000E+00  0.00000000E+00  0.00000000E+00
  0.00000000E+00  0.00000000E+00 -2.94013909E-12  0.00000000E+00  0.00000000E+00
  0.00000000E+00  3.79546291E-12  0.00000000E+00  0.00000000E+00  1.30190529E-12
  0.00000000E+00  0.00000000E+00  0.00000000E+00 -1.68048801E-12  0.00000000E+00
  0.00000000E+00  0.00000000E+00  0.00000000E+00  0.00000000E+00  0.00000000E+00
  0.00000000E+00  0.00000000E+00  8.35557931E-02  0.00000000E+00  0.00000000E+00
 -1.49919049E-01  0.00000000E+00  0.00000000E+00 -8.03117153E-02  0.00000000E+00
  0.00000000E+00 -4.37588508E-01  0.00000000E+00  0.00000000E+00  1.22032891E+00
  0.00000000E+00  0.00000000E+00  0.00000000E+00  0.00000000E+00  0.00000000E+00
  0.00000000E+00  0.00000000E+00  0.00000000E+00  0.00000000E+00  0.00000000E+00
  0.00000000E+00  0.00000000E+00  0.00000000E+00  0.00000000E+00  0.00000000E+00
  0.00000000E+00  0.00000000E+00  0.00000000E+00 -2.94020034E-12  0.00000000E+00
  0.00000000E+00  0.00000000E+00 -3.79562107E-12  0.00000000E+00  0.00000000E+00
  1.30081677E-12  0.00000000E+00  0.00000000E+00  0.00000000E+00  1.68098867E-12
  0.00000000E+00  0.00000000E+00  0.00000000E+00  0.00000000E+00  0.00000000E+00
  0.00000000E+00  0.00000000E+00  0.00000000E+00  0.00000000E+00  0.00000000E+00
  0.00000000E+00  0.00000000E+00  0.00000000E+00  0.00000000E+00  0.00000000E+00
  0.00000000E+00  0.00000000E+00  0.00000000E+00  0.00000000E+00  0.00000000E+00
  0.00000000E+00  0.00000000E+00  0.00000000E+00  0.00000000E+00  0.00000000E+00
  9.59836423E-02  0.00000000E+00  0.00000000E+00  0.00000000E+00  0.00000000E+00
  1.34118993E-01  0.00000000E+00  0.00000000E+00  0.00000000E+00  0.00000000E+00
  8.95826010E-01  0.00000000E+00  0.00000000E+00  0.00000000E+00  0.00000000E+00
  0.00000000E+00  0.00000000E+00  0.00000000E+00  0.00000000E+00  0.00000000E+00
  0.00000000E+00  0.00000000E+00  0.00000000E+00  0.00000000E+00  0.00000000E+00
  0.00000000E+00  0.00000000E+00  0.00000000E+00  0.00000000E+00  0.00000000E+00
  0.00000000E+00  0.00000000E+00  0.00000000E+00  0.00000000E+00  0.00000000E+00
  0.00000000E+00  0.00000000E+00  0.00000000E+00  0.00000000E+00  0.00000000E+00
  0.00000000E+00  0.00000000E+00  0.00000000E+00  0.00000000E+00  0.00000000E+00
  0.00000000E+00  0.00000000E+00  9.59836423E-02  0.00000000E+00  0.00000000E+00
  0.00000000E+00  0.00000000E+00  1.34118993E-01  0.00000000E+00  0.00000000E+00
  0.00000000E+00  0.00000000E+00  8.95826010E-01  0.00000000E+00  0.00000000E+00
  0.00000000E+00  0.00000000E+00  0.00000000E+00  0.00000000E+00  0.00000000E+00
  0.00000000E+00  0.00000000E+00  0.00000000E+00  0.00000000E+00  0.00000000E+00
  0.00000000E+00  0.00000000E+00  0.00000000E+00  0.00000000E+00  0.00000000E+00
  0.00000000E+00  0.00000000E+00  0.00000000E+00  0.00000000E+00  0.00000000E+00
  0.00000000E+00  0.00000000E+00  0.00000000E+00  0.00000000E+00  0.00000000E+00
  0.00000000E+00  0.00000000E+00  0.00000000E+00  0.00000000E+00  0.00000000E+00
  0.00000000E+00  0.00000000E+00  0.00000000E+00  0.00000000E+00  0.00000000E+00
  0.00000000E+00  0.00000000E+00  0.00000000E+00  9.59836423E-02  0.00000000E+00
  0.00000000E+00  0.00000000E+00  0.00000000E+00  1.34118993E-01  0.00000000E+00
  0.00000000E+00  0.00000000E+00  0.00000000E+00  8.95826010E-01  0.00000000E+00
  0.00000000E+00  0.00000000E+00  0.00000000E+00  0.00000000E+00  0.00000000E+00
  0.00000000E+00  0.00000000E+00  0.00000000E+00  0.00000000E+00  0.00000000E+00
  0.00000000E+00  0.00000000E+00  0.00000000E+00  0.00000000E+00  0.00000000E+00
 -7.64468131E-16 -4.20412452E-16 -1.36456710E-14  7.08741432E-17  1.79010353E-15
  1.77872003E-14  0.00000000E+00  0.00000000E+00  0.00000000E+00  0.00000000E+00
  0.00000000E+00  0.00000000E+00  0.00000000E+00  0.00000000E+00  0.00000000E+00
  0.00000000E+00  0.00000000E+00  0.00000000E+00  0.00000000E+00  0.00000000E+00
  0.00000000E+00 -6.89867683E-03  0.00000000E+00  0.00000000E+00  9.57354053E-02
  0.00000000E+00 -9.63959658E-03  0.00000000E+00  0.00000000E+00  1.33772129E-01
  0.00000000E+00 -6.43861183E-02  0.00000000E+00  0.00000000E+00  8.93509187E-01
  0.00000000E+00  0.00000000E+00  0.00000000E+00  0.00000000E+00  0.00000000E+00
  0.00000000E+00  0.00000000E+00  0.00000000E+00  0.00000000E+00  0.00000000E+00
  0.00000000E+00  0.00000000E+00  0.00000000E+00  0.00000000E+00  0.00000000E+00
  7.58095296E-16 -5.47131963E-17  1.27392858E-14  4.78412096E-16 -1.16605630E-15
 -1.73124576E-14  0.00000000E+00  0.00000000E+00  0.00000000E+00  0.00000000E+00
  0.00000000E+00  0.00000000E+00  0.00000000E+00  0.00000000E+00  0.00000000E+00
  0.00000000E+00  0.00000000E+00  0.00000000E+00  0.00000000E+00  0.00000000E+00
  0.00000000E+00  9.57354053E-02  0.00000000E+00  0.00000000E+00  6.89867683E-03
  0.00000000E+00  1.33772129E-01  0.00000000E+00  0.00000000E+00  9.63959658E-03
  0.00000000E+00  8.93509187E-01  0.00000000E+00  0.00000000E+00  6.43861183E-02
  0.00000000E+00  0.00000000E+00  0.00000000E+00  0.00000000E+00  0.00000000E+00
  0.00000000E+00  0.00000000E+00  0.00000000E+00  0.00000000E+00  0.00000000E+00
  0.00000000E+00  0.00000000E+00  0.00000000E+00  0.00000000E+00  0.00000000E+00
  0.00000000E+00  0.00000000E+00  0.00000000E+00  0.00000000E+00  0.00000000E+00
  0.00000000E+00  0.00000000E+00  1.65373254E-01  0.00000000E+00  0.00000000E+00
 -1.26986152E+00  0.00000000E+00  0.00000000E+00 -8.43317976E-02  0.00000000E+00
  0.00000000E+00  1.90789489E+00  0.00000000E+00  0.00000000E+00 -8.36386354E-01
  0.00000000E+00  0.00000000E+00  0.00000000E+00  0.00000000E+00  0.00000000E+00
  0.00000000E+00  0.00000000E+00  0.00000000E+00  0.00000000E+00  0.00000000E+00
  0.00000000E+00  0.00000000E+00  0.00000000E+00  0.00000000E+00  0.00000000E+00
  0.00000000E+00  0.00000000E+00  0.00000000E+00 -8.59758696E-12  0.00000000E+00
  0.00000000E+00  0.00000000E+00 -1.11001180E-11  0.00000000E+00  0.00000000E+00
  3.14949853E-11  0.00000000E+00  0.00000000E+00  0.00000000E+00  4.06536632E-11
  0.00000000E+00  0.00000000E+00  0.00000000E+00  0.00000000E+00  0.00000000E+00
  0.00000000E+00  0.00000000E+00  0.00000000E+00  1.65373254E-01  0.00000000E+00
  0.00000000E+00 -1.26986152E+00  0.00000000E+00  0.00000000E+00 -8.43317976E-02
  0.00000000E+00  0.00000000E+00  1.90789489E+00  0.00000000E+00  0.00000000E+00
 -8.36386354E-01  0.00000000E+00  0.00000000E+00  0.00000000E+00  0.00000000E+00
  0.00000000E+00  0.00000000E+00  0.00000000E+00  0.00000000E+00  0.00000000E+00
  0.00000000E+00  0.00000000E+00  0.00000000E+00  0.00000000E+00  0.00000000E+00
  0.00000000E+00  1.40430087E-11  0.00000000E+00  0.00000000E+00  1.39304592E-15
  0.00000000E+00  0.00000000E+00  0.00000000E+00 -5.14551522E-11  0.00000000E+00
  0.00000000E+00  3.02376035E-16  0.00000000E+00  0.00000000E+00  0.00000000E+00
  0.00000000E+00  0.00000000E+00  0.00000000E+00  0.00000000E+00  0.00000000E+00
  0.00000000E+00  1.65373254E-01  0.00000000E+00  0.00000000E+00 -1.26986152E+00
  0.00000000E+00  0.00000000E+00 -8.43317976E-02  0.00000000E+00  0.00000000E+00
  1.90789489E+00  0.00000000E+00  0.00000000E+00 -8.36386354E-01  0.00000000E+00
  0.00000000E+00  0.00000000E+00  0.00000000E+00  0.00000000E+00  0.00000000E+00
  0.00000000E+00  0.00000000E+00  0.00000000E+00  0.00000000E+00  0.00000000E+00
  0.00000000E+00  0.00000000E+00  0.00000000E+00  0.00000000E+00  0.00000000E+00
  0.00000000E+00  0.00000000E+00 -8.59580621E-12  0.00000000E+00  0.00000000E+00
  0.00000000E+00  1.11003038E-11  0.00000000E+00  0.00000000E+00  3.14954657E-11
  0.00000000E+00  0.00000000E+00  0.00000000E+00 -4.06627346E-11  0.00000000E+00
  0.00000000E+00  0.00000000E+00  0.00000000E+00  0.00000000E+00  0.00000000E+00
  0.00000000E+00  0.00000000E+00  0.00000000E+00  0.00000000E+00  0.00000000E+00