 Entering Gaussian System, Link 0=g16
 Input=P.com
 Output=P.log
 Initial command:
 /usr/site/hpc/x86_64/glibc-2.17/broadwell/gaussian/g16_a.03/pgi-16.5/g16/l1.exe "/home/c744/c7441090/data/Gau-3859923.inp" -scrdir="/home/c744/c7441090/data/"
 Entering Link 1 = /usr/site/hpc/x86_64/glibc-2.17/broadwell/gaussian/g16_a.03/pgi-16.5/g16/l1.exe PID=   3859924.
  
 Copyright (c) 1988,1990,1992,1993,1995,1998,2003,2009,2016,
            Gaussian, Inc.  All Rights Reserved.
  
 This is part of the Gaussian(R) 16 program.  It is based on
 the Gaussian(R) 09 system (copyright 2009, Gaussian, Inc.),
 the Gaussian(R) 03 system (copyright 2003, Gaussian, Inc.),
 the Gaussian(R) 98 system (copyright 1998, Gaussian, Inc.),
 the Gaussian(R) 94 system (copyright 1995, Gaussian, Inc.),
 the Gaussian 92(TM) system (copyright 1992, Gaussian, Inc.),
 the Gaussian 90(TM) system (copyright 1990, Gaussian, Inc.),
 the Gaussian 88(TM) system (copyright 1988, Gaussian, Inc.),
 the Gaussian 86(TM) system (copyright 1986, Carnegie Mellon
 University), and the Gaussian 82(TM) system (copyright 1983,
 Carnegie Mellon University). Gaussian is a federally registered
 trademark of Gaussian, Inc.
  
 This software contains proprietary and confidential information,
 including trade secrets, belonging to Gaussian, Inc.
  
 This software is provided under written license and may be
 used, copied, transmitted, or stored only in accord with that
 written license.
  
 The following legend is applicable only to US Government
 contracts under FAR:
  
                    RESTRICTED RIGHTS LEGEND
  
 Use, reproduction and disclosure by the US Government is
 subject to restrictions as set forth in subparagraphs (a)
 and (c) of the Commercial Computer Software - Restricted
 Rights clause in FAR 52.227-19.
  
 Gaussian, Inc.
 340 Quinnipiac St., Bldg. 40, Wallingford CT 06492
  
  
 ---------------------------------------------------------------
 Warning -- This program may not be used in any manner that
 competes with the business of Gaussian, Inc. or will provide
 assistance to any competitor of Gaussian, Inc.  The licensee
 of this program is prohibited from giving any competitor of
 Gaussian, Inc. access to this program.  By using this program,
 the user acknowledges that Gaussian, Inc. is engaged in the
 business of creating and licensing software in the field of
 computational chemistry and represents and warrants to the
 licensee that it is not a competitor of Gaussian, Inc. and that
 it will not use this program in any manner prohibited above.
 ---------------------------------------------------------------
  

 Cite this work as:
 Gaussian 16, Revision A.03,
 M. J. Frisch, G. W. Trucks, H. B. Schlegel, G. E. Scuseria, 
 M. A. Robb, J. R. Cheeseman, G. Scalmani, V. Barone, 
 G. A. Petersson, H. Nakatsuji, X. Li, M. Caricato, A. V. Marenich, 
 J. Bloino, B. G. Janesko, R. Gomperts, B. Mennucci, H. P. Hratchian, 
 J. V. Ortiz, A. F. Izmaylov, J. L. Sonnenberg, D. Williams-Young, 
 F. Ding, F. Lipparini, F. Egidi, J. Goings, B. Peng, A. Petrone, 
 T. Henderson, D. Ranasinghe, V. G. Zakrzewski, J. Gao, N. Rega, 
 G. Zheng, W. Liang, M. Hada, M. Ehara, K. Toyota, R. Fukuda, 
 J. Hasegawa, M. Ishida, T. Nakajima, Y. Honda, O. Kitao, H. Nakai, 
 T. Vreven, K. Throssell, J. A. Montgomery, Jr., J. E. Peralta, 
 F. Ogliaro, M. J. Bearpark, J. J. Heyd, E. N. Brothers, K. N. Kudin, 
 V. N. Staroverov, T. A. Keith, R. Kobayashi, J. Normand, 
 K. Raghavachari, A. P. Rendell, J. C. Burant, S. S. Iyengar, 
 J. Tomasi, M. Cossi, J. M. Millam, M. Klene, C. Adamo, R. Cammi, 
 J. W. Ochterski, R. L. Martin, K. Morokuma, O. Farkas, 
 J. B. Foresman, and D. J. Fox, Gaussian, Inc., Wallingford CT, 2016.
 
 ******************************************
 Gaussian 16:  ES64L-G16RevA.03 25-Dec-2016
                20-Nov-2023 
 ******************************************
 %NProcShared=4
 Will use up to    4 processors via shared memory.
 %Mem=1GB
 %Chk=P.chk
 ----------------------------------------------------
 # B3LYP/aug-cc-pVTZ EmpiricalDispersion=GD3 Pop=Full
 ----------------------------------------------------
 1/38=1,172=1/1;
 2/12=2,17=6,18=5,40=1/2;
 3/5=16,6=1,7=10,11=2,25=1,30=1,74=-5,124=31/1,2,3;
 4//1;
 5/5=2,38=5/2;
 6/7=3,28=1/1;
 99/5=1,9=1/99;
 ----------
 Phosphorus
 ----------
 Symbolic Z-matrix:
 Charge =  0 Multiplicity = 4
 P                     0.        0.        0. 
 
                          Input orientation:                          
 ---------------------------------------------------------------------
 Center     Atomic      Atomic             Coordinates (Angstroms)
 Number     Number       Type             X           Y           Z
 ---------------------------------------------------------------------
      1         15           0        0.000000    0.000000    0.000000
 ---------------------------------------------------------------------
 Stoichiometry    P(4)
 Framework group  OH[O(P)]
 Deg. of freedom     0
 Full point group                 OH      NOp  48
 Largest Abelian subgroup         D2H     NOp   8
 Largest concise Abelian subgroup C1      NOp   1
                         Standard orientation:                         
 ---------------------------------------------------------------------
 Center     Atomic      Atomic             Coordinates (Angstroms)
 Number     Number       Type             X           Y           Z
 ---------------------------------------------------------------------
      1         15           0        0.000000    0.000000    0.000000
 ---------------------------------------------------------------------
 Standard basis: Aug-CC-pVTZ (5D, 7F)
 There are    15 symmetry adapted cartesian basis functions of AG  symmetry.
 There are     3 symmetry adapted cartesian basis functions of B1G symmetry.
 There are     3 symmetry adapted cartesian basis functions of B2G symmetry.
 There are     3 symmetry adapted cartesian basis functions of B3G symmetry.
 There are     2 symmetry adapted cartesian basis functions of AU  symmetry.
 There are    11 symmetry adapted cartesian basis functions of B1U symmetry.
 There are    11 symmetry adapted cartesian basis functions of B2U symmetry.
 There are    11 symmetry adapted cartesian basis functions of B3U symmetry.
 There are    12 symmetry adapted basis functions of AG  symmetry.
 There are     3 symmetry adapted basis functions of B1G symmetry.
 There are     3 symmetry adapted basis functions of B2G symmetry.
 There are     3 symmetry adapted basis functions of B3G symmetry.
 There are     2 symmetry adapted basis functions of AU  symmetry.
 There are     9 symmetry adapted basis functions of B1U symmetry.
 There are     9 symmetry adapted basis functions of B2U symmetry.
 There are     9 symmetry adapted basis functions of B3U symmetry.
    50 basis functions,   115 primitive gaussians,    59 cartesian basis functions
     9 alpha electrons        6 beta electrons
       nuclear repulsion energy         0.0000000000 Hartrees.
 NAtoms=    1 NActive=    1 NUniq=    1 SFac= 1.00D+00 NAtFMM=   60 NAOKFM=F Big=F
 Integral buffers will be    131072 words long.
 Raffenetti 2 integral format.
 Two-electron integral symmetry is turned on.
 Nuclear repulsion after empirical dispersion term =        0.0000000000 Hartrees.
 One-electron integrals computed using PRISM.
 NBasis=    50 RedAO= T EigKep=  1.59D-02  NBF=    12     3     3     3     2     9     9     9
 NBsUse=    50 1.00D-06 EigRej= -1.00D+00 NBFU=    12     3     3     3     2     9     9     9
 ExpMin= 3.07D-02 ExpMax= 3.12D+05 ExpMxC= 9.87D+02 IAcc=3 IRadAn=         5 AccDes= 0.00D+00
 Harris functional with IExCor=  402 and IRadAn=       5 diagonalized for initial guess.
 HarFok:  IExCor=  402 AccDes= 0.00D+00 IRadAn=         5 IDoV= 1 UseB2=F ITyADJ=14
 ICtDFT=  3500011 ScaDFX=  1.000000  1.000000  1.000000  1.000000
 FoFCou: FMM=F IPFlag=           0 FMFlag=      100000 FMFlg1=           0
         NFxFlg=           0 DoJE=T BraDBF=F KetDBF=T FulRan=T
         wScrn=  0.000000 ICntrl=       500 IOpCl=  0 I1Cent=   200000004 NGrid=           0
         NMat0=    1 NMatS0=      1 NMatT0=    0 NMatD0=    1 NMtDS0=    0 NMtDT0=    0
 Petite list used in FoFCou.
 Initial guess orbital symmetries:
 Alpha Orbitals:
       Occupied  (A1G) (A1G) (T1U) (T1U) (T1U) (A1G) (T1U) (T1U)
                 (T1U)
       Virtual   (A1G) (T1U) (T1U) (T1U) (T2G) (T2G) (T2G) (EG)
                 (EG) (T1U) (T1U) (T1U) (T2G) (T2G) (T2G) (EG)
                 (EG) (A1G) (T2U) (T2U) (T2U) (A2U) (T1U) (T1U)
                 (T1U) (T2G) (T2G) (T2G) (EG) (EG) (T2U) (T2U)
                 (T2U) (A2U) (T1U) (T1U) (T1U) (T1U) (T1U) (T1U)
                 (A1G)
 Beta  Orbitals:
       Occupied  (A1G) (A1G) (T1U) (T1U) (T1U) (A1G)
       Virtual   (T1U) (T1U) (T1U) (A1G) (T1U) (T1U) (T1U) (T2G)
                 (T2G) (T2G) (EG) (EG) (T1U) (T1U) (T1U) (T2G)
                 (T2G) (T2G) (EG) (EG) (A1G) (T2U) (T2U) (T2U)
                 (A2U) (T1U) (T1U) (T1U) (T2G) (T2G) (T2G) (EG)
                 (EG) (T2U) (T2U) (T2U) (A2U) (T1U) (T1U) (T1U)
                 (T1U) (T1U) (T1U) (A1G)
 The electronic state of the initial guess is 4-A1G.
 Initial guess <Sx>= 0.0000 <Sy>= 0.0000 <Sz>= 1.5000 <S**2>= 3.7500 S= 1.5000
 Keep R1 and R2 ints in memory in symmetry-blocked form, NReq=4341620.
 Requested convergence on RMS density matrix=1.00D-08 within 128 cycles.
 Requested convergence on MAX density matrix=1.00D-06.
 Requested convergence on             energy=1.00D-06.
 No special actions if energy rises.
 SCF Done:  E(UB3LYP) =  -341.286267641     A.U. after    7 cycles
            NFock=  7  Conv=0.57D-08     -V/T= 2.0031
 <Sx>= 0.0000 <Sy>= 0.0000 <Sz>= 1.5000 <S**2>= 3.7506 S= 1.5001
 <L.S>= 0.000000000000E+00
 Annihilation of the first spin contaminant:
 S**2 before annihilation     3.7506,   after     3.7500

 **********************************************************************

            Population analysis using the SCF density.

 **********************************************************************

 Orbital symmetries:
 Alpha Orbitals:
       Occupied  (A1G) (A1G) (T1U) (T1U) (T1U) (A1G) (T1U) (T1U)
                 (T1U)
       Virtual   (A1G) (T1U) (T1U) (T1U) (T2G) (T2G) (T2G) (EG)
                 (EG) (T1U) (T1U) (T1U) (T2G) (T2G) (T2G) (EG)
                 (EG) (A1G) (T2U) (T2U) (T2U) (A2U) (T1U) (T1U)
                 (T1U) (T2G) (T2G) (T2G) (EG) (EG) (T2U) (T2U)
                 (T2U) (A2U) (T1U) (T1U) (T1U) (T1U) (T1U) (T1U)
                 (A1G)
 Beta  Orbitals:
       Occupied  (A1G) (A1G) (T1U) (T1U) (T1U) (A1G)
       Virtual   (T1U) (T1U) (T1U) (A1G) (T1U) (T1U) (T1U) (T2G)
                 (T2G) (T2G) (EG) (EG) (T1U) (T1U) (T1U) (T2G)
                 (T2G) (T2G) (EG) (EG) (A1G) (T2U) (T2U) (T2U)
                 (A2U) (T1U) (T1U) (T1U) (T2G) (T2G) (T2G) (EG)
                 (EG) (T2U) (T2U) (T2U) (A2U) (T1U) (T1U) (T1U)
                 (T1U) (T1U) (T1U) (A1G)
 The electronic state is 4-A1G.
 Alpha  occ. eigenvalues --  -77.13484  -6.59241  -4.75633  -4.75633  -4.75633
 Alpha  occ. eigenvalues --   -0.60080  -0.26194  -0.26194  -0.26194
 Alpha virt. eigenvalues --    0.01742   0.04437   0.04437   0.04437   0.11185
 Alpha virt. eigenvalues --    0.11185   0.11185   0.11185   0.11185   0.36246
 Alpha virt. eigenvalues --    0.36246   0.36246   0.41054   0.41054   0.41054
 Alpha virt. eigenvalues --    0.41054   0.41054   0.44493   0.50871   0.50871
 Alpha virt. eigenvalues --    0.50871   0.50871   0.50871   0.50871   0.50871
 Alpha virt. eigenvalues --    1.36767   1.36767   1.36767   1.36767   1.36767
 Alpha virt. eigenvalues --    1.60013   1.60013   1.60013   1.60013   1.60013
 Alpha virt. eigenvalues --    1.60013   1.60013   1.92943   1.92943   1.92943
 Alpha virt. eigenvalues --    2.95680
  Beta  occ. eigenvalues --  -77.12213  -6.57932  -4.73664  -4.73664  -4.73664
  Beta  occ. eigenvalues --   -0.48496
  Beta virt. eigenvalues --   -0.11996  -0.11996  -0.11996   0.02806   0.05520
  Beta virt. eigenvalues --    0.05520   0.05520   0.13712   0.13712   0.13712
  Beta virt. eigenvalues --    0.13712   0.13712   0.40054   0.40054   0.40054
  Beta virt. eigenvalues --    0.47515   0.47515   0.47515   0.47515   0.47515
  Beta virt. eigenvalues --    0.48248   0.53532   0.53532   0.53532   0.53532
  Beta virt. eigenvalues --    0.53532   0.53532   0.53532   1.42463   1.42463
  Beta virt. eigenvalues --    1.42463   1.42463   1.42463   1.67501   1.67501
  Beta virt. eigenvalues --    1.67501   1.67501   1.67501   1.67501   1.67501
  Beta virt. eigenvalues --    1.97491   1.97491   1.97491   2.99199
     Alpha Molecular Orbital Coefficients:
                           1         2         3         4         5
                       (A1G)--O  (A1G)--O  (T1U)--O  (T1U)--O  (T1U)--O
     Eigenvalues --   -77.13484  -6.59241  -4.75633  -4.75633  -4.75633
   1 1   P  1S          1.00095  -0.27148   0.00000   0.00000   0.00000
   2        2S         -0.00094   0.97462   0.00000   0.00000   0.00000
   3        3S          0.00341  -0.01956   0.00000   0.00000   0.00000
   4        4S         -0.00401   0.08830   0.00000   0.00000   0.00000
   5        5S         -0.00215   0.00864   0.00000   0.00000   0.00000
   6        6S          0.00071  -0.00247   0.00000   0.00000   0.00000
   7        7PX         0.00000   0.00000   0.00000   0.00000   0.95787
   8        7PY         0.00000   0.00000   0.00000   0.95787   0.00000
   9        7PZ         0.00000   0.00000   0.95787   0.00000   0.00000
  10        8PX         0.00000   0.00000   0.00000   0.00000  -0.00016
  11        8PY         0.00000   0.00000   0.00000  -0.00016   0.00000
  12        8PZ         0.00000   0.00000  -0.00016   0.00000   0.00000
  13        9PX         0.00000   0.00000   0.00000   0.00000   0.08189
  14        9PY         0.00000   0.00000   0.00000   0.08189   0.00000
  15        9PZ         0.00000   0.00000   0.08189   0.00000   0.00000
  16       10PX         0.00000   0.00000   0.00000   0.00000  -0.00023
  17       10PY         0.00000   0.00000   0.00000  -0.00023   0.00000
  18       10PZ         0.00000   0.00000  -0.00023   0.00000   0.00000
  19       11PX         0.00000   0.00000   0.00000   0.00000   0.00016
  20       11PY         0.00000   0.00000   0.00000   0.00016   0.00000
  21       11PZ         0.00000   0.00000   0.00016   0.00000   0.00000
  22       12D 0       -0.00000   0.00000   0.00000   0.00000   0.00000
  23       12D+1        0.00000   0.00000   0.00000   0.00000   0.00000
  24       12D-1        0.00000   0.00000   0.00000   0.00000   0.00000
  25       12D+2       -0.00000   0.00000   0.00000   0.00000   0.00000
  26       12D-2        0.00000   0.00000   0.00000   0.00000   0.00000
  27       13D 0        0.00000  -0.00000   0.00000   0.00000   0.00000
  28       13D+1        0.00000   0.00000   0.00000   0.00000   0.00000
  29       13D-1        0.00000   0.00000   0.00000   0.00000   0.00000
  30       13D+2        0.00000  -0.00000   0.00000   0.00000   0.00000
  31       13D-2        0.00000   0.00000   0.00000   0.00000   0.00000
  32       14D 0        0.00000  -0.00000   0.00000   0.00000   0.00000
  33       14D+1        0.00000   0.00000   0.00000   0.00000   0.00000
  34       14D-1        0.00000   0.00000   0.00000   0.00000   0.00000
  35       14D+2        0.00000  -0.00000   0.00000   0.00000   0.00000
  36       14D-2        0.00000   0.00000   0.00000   0.00000   0.00000
  37       15F 0        0.00000   0.00000  -0.00000   0.00000   0.00000
  38       15F+1        0.00000   0.00000   0.00000   0.00000   0.00000
  39       15F-1        0.00000   0.00000   0.00000   0.00000   0.00000
  40       15F+2        0.00000   0.00000  -0.00000   0.00000   0.00000
  41       15F-2        0.00000   0.00000   0.00000   0.00000   0.00000
  42       15F+3        0.00000   0.00000   0.00000   0.00000  -0.00000
  43       15F-3        0.00000   0.00000   0.00000   0.00000   0.00000
  44       16F 0        0.00000   0.00000   0.00000   0.00000   0.00000
  45       16F+1        0.00000   0.00000   0.00000   0.00000  -0.00000
  46       16F-1        0.00000   0.00000   0.00000  -0.00000   0.00000
  47       16F+2        0.00000   0.00000   0.00000   0.00000   0.00000
  48       16F-2        0.00000   0.00000   0.00000   0.00000   0.00000
  49       16F+3        0.00000   0.00000   0.00000   0.00000   0.00000
  50       16F-3        0.00000   0.00000   0.00000  -0.00000   0.00000
                           6         7         8         9        10
                       (A1G)--O  (T1U)--O  (T1U)--O  (T1U)--O  (A1G)--V
     Eigenvalues --    -0.60080  -0.26194  -0.26194  -0.26194   0.01742
   1 1   P  1S          0.07965   0.00000   0.00000   0.00000  -0.02483
   2        2S         -0.30243   0.00000   0.00000   0.00000   0.13518
   3        3S          0.63339   0.00000   0.00000   0.00000  -0.14892
   4        4S          0.08912   0.00000   0.00000   0.00000  -0.06822
   5        5S          0.36955   0.00000   0.00000   0.00000  -1.08373
   6        6S         -0.00312   0.00000   0.00000   0.00000   1.73141
   7        7PX         0.00000   0.00000  -0.24097   0.00000   0.00000
   8        7PY         0.00000   0.00000   0.00000  -0.24097   0.00000
   9        7PZ         0.00000  -0.24097   0.00000   0.00000   0.00000
  10        8PX         0.00000   0.00000   0.55675   0.00000   0.00000
  11        8PY         0.00000   0.00000   0.00000   0.55675   0.00000
  12        8PZ         0.00000   0.55675   0.00000   0.00000   0.00000
  13        9PX         0.00000   0.00000   0.17420   0.00000   0.00000
  14        9PY         0.00000   0.00000   0.00000   0.17420   0.00000
  15        9PZ         0.00000   0.17420   0.00000   0.00000   0.00000
  16       10PX         0.00000   0.00000   0.40774   0.00000   0.00000
  17       10PY         0.00000   0.00000   0.00000   0.40774   0.00000
  18       10PZ         0.00000   0.40774   0.00000   0.00000   0.00000
  19       11PX         0.00000   0.00000   0.02830   0.00000   0.00000
  20       11PY         0.00000   0.00000   0.00000   0.02830   0.00000
  21       11PZ         0.00000   0.02830   0.00000   0.00000   0.00000
  22       12D 0        0.00000   0.00000   0.00000   0.00000  -0.00000
  23       12D+1        0.00000   0.00000   0.00000   0.00000   0.00000
  24       12D-1        0.00000   0.00000   0.00000   0.00000   0.00000
  25       12D+2        0.00000   0.00000   0.00000   0.00000   0.00000
  26       12D-2        0.00000   0.00000   0.00000   0.00000   0.00000
  27       13D 0       -0.00000   0.00000   0.00000   0.00000   0.00000
  28       13D+1        0.00000   0.00000   0.00000   0.00000   0.00000
  29       13D-1        0.00000   0.00000   0.00000   0.00000   0.00000
  30       13D+2       -0.00000   0.00000   0.00000   0.00000  -0.00000
  31       13D-2        0.00000   0.00000   0.00000   0.00000   0.00000
  32       14D 0       -0.00000   0.00000   0.00000   0.00000   0.00000
  33       14D+1        0.00000   0.00000   0.00000   0.00000   0.00000
  34       14D-1        0.00000   0.00000   0.00000   0.00000   0.00000
  35       14D+2       -0.00000   0.00000   0.00000   0.00000  -0.00000
  36       14D-2        0.00000   0.00000   0.00000   0.00000   0.00000
  37       15F 0        0.00000  -0.00000   0.00000   0.00000   0.00000
  38       15F+1        0.00000   0.00000   0.00000   0.00000   0.00000
  39       15F-1        0.00000   0.00000   0.00000   0.00000   0.00000
  40       15F+2        0.00000  -0.00000   0.00000   0.00000   0.00000
  41       15F-2        0.00000   0.00000   0.00000   0.00000   0.00000
  42       15F+3        0.00000   0.00000  -0.00000   0.00000   0.00000
  43       15F-3        0.00000   0.00000   0.00000   0.00000   0.00000
  44       16F 0        0.00000  -0.00000   0.00000   0.00000   0.00000
  45       16F+1        0.00000   0.00000   0.00000   0.00000   0.00000
  46       16F-1        0.00000   0.00000   0.00000   0.00000   0.00000
  47       16F+2        0.00000   0.00000   0.00000   0.00000   0.00000
  48       16F-2        0.00000   0.00000   0.00000   0.00000   0.00000
  49       16F+3        0.00000   0.00000  -0.00000   0.00000   0.00000
  50       16F-3        0.00000   0.00000   0.00000   0.00000   0.00000
                          11        12        13        14        15
                       (T1U)--V  (T1U)--V  (T1U)--V  (T2G)--V  (T2G)--V
     Eigenvalues --     0.04437   0.04437   0.04437   0.11185   0.11185
   1 1   P  1S          0.00000   0.00000   0.00000   0.00000   0.00000
   2        2S          0.00000   0.00000   0.00000   0.00000   0.00000
   3        3S          0.00000   0.00000   0.00000   0.00000   0.00000
   4        4S          0.00000   0.00000   0.00000   0.00000   0.00000
   5        5S          0.00000   0.00000   0.00000   0.00000   0.00000
   6        6S          0.00000   0.00000   0.00000   0.00000   0.00000
   7        7PX         0.00000   0.08356   0.00000   0.00000   0.00000
   8        7PY         0.00000   0.00000   0.08356   0.00000   0.00000
   9        7PZ         0.08356   0.00000   0.00000   0.00000   0.00000
  10        8PX         0.00000  -0.14992   0.00000   0.00000   0.00000
  11        8PY         0.00000   0.00000  -0.14992   0.00000   0.00000
  12        8PZ        -0.14992   0.00000   0.00000   0.00000   0.00000
  13        9PX         0.00000  -0.08031   0.00000   0.00000   0.00000
  14        9PY         0.00000   0.00000  -0.08031   0.00000   0.00000
  15        9PZ        -0.08031   0.00000   0.00000   0.00000   0.00000
  16       10PX         0.00000  -0.43759   0.00000   0.00000   0.00000
  17       10PY         0.00000   0.00000  -0.43759   0.00000   0.00000
  18       10PZ        -0.43759   0.00000   0.00000   0.00000   0.00000
  19       11PX         0.00000   1.22033   0.00000   0.00000   0.00000
  20       11PY         0.00000   0.00000   1.22033   0.00000   0.00000
  21       11PZ         1.22033   0.00000   0.00000   0.00000   0.00000
  22       12D 0        0.00000   0.00000   0.00000   0.00000   0.00000
  23       12D+1        0.00000   0.00000   0.00000   0.00000   0.09598
  24       12D-1        0.00000   0.00000   0.00000   0.00000   0.00000
  25       12D+2        0.00000   0.00000   0.00000   0.00000   0.00000
  26       12D-2        0.00000   0.00000   0.00000   0.09598   0.00000
  27       13D 0        0.00000   0.00000   0.00000   0.00000   0.00000
  28       13D+1        0.00000   0.00000   0.00000   0.00000   0.13412
  29       13D-1        0.00000   0.00000   0.00000   0.00000   0.00000
  30       13D+2        0.00000   0.00000   0.00000   0.00000   0.00000
  31       13D-2        0.00000   0.00000   0.00000   0.13412   0.00000
  32       14D 0        0.00000   0.00000   0.00000   0.00000   0.00000
  33       14D+1        0.00000   0.00000   0.00000   0.00000   0.89583
  34       14D-1        0.00000   0.00000   0.00000   0.00000   0.00000
  35       14D+2        0.00000   0.00000   0.00000   0.00000   0.00000
  36       14D-2        0.00000   0.00000   0.00000   0.89583   0.00000
  37       15F 0        0.00000   0.00000   0.00000   0.00000   0.00000
  38       15F+1        0.00000  -0.00000   0.00000   0.00000   0.00000
  39       15F-1        0.00000   0.00000  -0.00000   0.00000   0.00000
  40       15F+2        0.00000   0.00000   0.00000   0.00000   0.00000
  41       15F-2        0.00000   0.00000   0.00000   0.00000   0.00000
  42       15F+3        0.00000   0.00000   0.00000   0.00000   0.00000
  43       15F-3        0.00000   0.00000  -0.00000   0.00000   0.00000
  44       16F 0       -0.00000   0.00000   0.00000   0.00000   0.00000
  45       16F+1        0.00000   0.00000   0.00000   0.00000   0.00000
  46       16F-1        0.00000   0.00000   0.00000   0.00000   0.00000
  47       16F+2       -0.00000   0.00000   0.00000   0.00000   0.00000
  48       16F-2        0.00000   0.00000   0.00000   0.00000   0.00000
  49       16F+3        0.00000  -0.00000   0.00000   0.00000   0.00000
  50       16F-3        0.00000   0.00000   0.00000   0.00000   0.00000
                          16        17        18        19        20
                       (T2G)--V   (EG)--V   (EG)--V  (T1U)--V  (T1U)--V
     Eigenvalues --     0.11185   0.11185   0.11185   0.36246   0.36246
   1 1   P  1S          0.00000  -0.00000   0.00000   0.00000   0.00000
   2        2S          0.00000  -0.00000  -0.00000   0.00000   0.00000
   3        3S          0.00000  -0.00000   0.00000   0.00000   0.00000
   4        4S          0.00000   0.00000   0.00000   0.00000   0.00000
   5        5S          0.00000   0.00000  -0.00000   0.00000   0.00000
   6        6S          0.00000   0.00000  -0.00000   0.00000   0.00000
   7        7PX         0.00000   0.00000   0.00000   0.00000   0.00000
   8        7PY         0.00000   0.00000   0.00000   0.16537   0.00000
   9        7PZ         0.00000   0.00000   0.00000   0.00000   0.16537
  10        8PX         0.00000   0.00000   0.00000   0.00000   0.00000
  11        8PY         0.00000   0.00000   0.00000  -1.26986   0.00000
  12        8PZ         0.00000   0.00000   0.00000   0.00000  -1.26986
  13        9PX         0.00000   0.00000   0.00000   0.00000   0.00000
  14        9PY         0.00000   0.00000   0.00000  -0.08433   0.00000
  15        9PZ         0.00000   0.00000   0.00000   0.00000  -0.08433
  16       10PX         0.00000   0.00000   0.00000   0.00000   0.00000
  17       10PY         0.00000   0.00000   0.00000   1.90789   0.00000
  18       10PZ         0.00000   0.00000   0.00000   0.00000   1.90789
  19       11PX         0.00000   0.00000   0.00000   0.00000   0.00000
  20       11PY         0.00000   0.00000   0.00000  -0.83639   0.00000
  21       11PZ         0.00000   0.00000   0.00000   0.00000  -0.83639
  22       12D 0        0.00000  -0.00690   0.09574   0.00000   0.00000
  23       12D+1        0.00000   0.00000   0.00000   0.00000   0.00000
  24       12D-1        0.09598   0.00000   0.00000   0.00000   0.00000
  25       12D+2        0.00000   0.09574   0.00690   0.00000   0.00000
  26       12D-2        0.00000   0.00000   0.00000   0.00000   0.00000
  27       13D 0        0.00000  -0.00964   0.13377   0.00000   0.00000
  28       13D+1        0.00000   0.00000   0.00000   0.00000   0.00000
  29       13D-1        0.13412   0.00000   0.00000   0.00000   0.00000
  30       13D+2        0.00000   0.13377   0.00964   0.00000   0.00000
  31       13D-2        0.00000   0.00000   0.00000   0.00000   0.00000
  32       14D 0        0.00000  -0.06439   0.89351   0.00000   0.00000
  33       14D+1        0.00000   0.00000   0.00000   0.00000   0.00000
  34       14D-1        0.89583   0.00000   0.00000   0.00000   0.00000
  35       14D+2        0.00000   0.89351   0.06439   0.00000   0.00000
  36       14D-2        0.00000   0.00000   0.00000   0.00000   0.00000
  37       15F 0        0.00000   0.00000   0.00000   0.00000   0.00000
  38       15F+1        0.00000   0.00000   0.00000   0.00000   0.00000
  39       15F-1        0.00000   0.00000   0.00000  -0.00000   0.00000
  40       15F+2        0.00000   0.00000   0.00000   0.00000   0.00000
  41       15F-2        0.00000   0.00000   0.00000   0.00000   0.00000
  42       15F+3        0.00000   0.00000   0.00000   0.00000   0.00000
  43       15F-3        0.00000   0.00000   0.00000  -0.00000   0.00000
  44       16F 0        0.00000   0.00000   0.00000   0.00000  -0.00000
  45       16F+1        0.00000   0.00000   0.00000   0.00000   0.00000
  46       16F-1        0.00000   0.00000   0.00000   0.00000   0.00000
  47       16F+2        0.00000   0.00000   0.00000   0.00000   0.00000
  48       16F-2        0.00000   0.00000   0.00000   0.00000   0.00000
  49       16F+3        0.00000   0.00000   0.00000   0.00000   0.00000
  50       16F-3        0.00000   0.00000   0.00000   0.00000   0.00000
                          21        22        23        24        25
                       (T1U)--V  (T2G)--V  (T2G)--V  (T2G)--V   (EG)--V
     Eigenvalues --     0.36246   0.41054   0.41054   0.41054   0.41054
   1 1   P  1S          0.00000   0.00000   0.00000   0.00000  -0.00000
   2        2S          0.00000   0.00000   0.00000   0.00000  -0.00000
   3        3S          0.00000   0.00000   0.00000   0.00000  -0.00000
   4        4S          0.00000   0.00000   0.00000   0.00000   0.00000
   5        5S          0.00000   0.00000   0.00000   0.00000   0.00000
   6        6S          0.00000   0.00000   0.00000   0.00000  -0.00000
   7        7PX         0.16537   0.00000   0.00000   0.00000   0.00000
   8        7PY         0.00000   0.00000   0.00000   0.00000   0.00000
   9        7PZ         0.00000   0.00000   0.00000   0.00000   0.00000
  10        8PX        -1.26986   0.00000   0.00000   0.00000   0.00000
  11        8PY         0.00000   0.00000   0.00000   0.00000   0.00000
  12        8PZ         0.00000   0.00000   0.00000   0.00000   0.00000
  13        9PX        -0.08433   0.00000   0.00000   0.00000   0.00000
  14        9PY         0.00000   0.00000   0.00000   0.00000   0.00000
  15        9PZ         0.00000   0.00000   0.00000   0.00000   0.00000
  16       10PX         1.90789   0.00000   0.00000   0.00000   0.00000
  17       10PY         0.00000   0.00000   0.00000   0.00000   0.00000
  18       10PZ         0.00000   0.00000   0.00000   0.00000   0.00000
  19       11PX        -0.83639   0.00000   0.00000   0.00000   0.00000
  20       11PY         0.00000   0.00000   0.00000   0.00000   0.00000
  21       11PZ         0.00000   0.00000   0.00000   0.00000   0.00000
  22       12D 0        0.00000   0.00000   0.00000   0.00000  -0.08049
  23       12D+1        0.00000   0.00000   1.09974   0.00000   0.00000
  24       12D-1        0.00000   0.00000   0.00000   1.09974   0.00000
  25       12D+2        0.00000   0.00000   0.00000   0.00000   1.09679
  26       12D-2        0.00000   1.09974   0.00000   0.00000   0.00000
  27       13D 0        0.00000   0.00000   0.00000   0.00000  -0.01517
  28       13D+1        0.00000   0.00000   0.20722   0.00000   0.00000
  29       13D-1        0.00000   0.00000   0.00000   0.20722   0.00000
  30       13D+2        0.00000   0.00000   0.00000   0.00000   0.20666
  31       13D-2        0.00000   0.20722   0.00000   0.00000   0.00000
  32       14D 0        0.00000   0.00000   0.00000   0.00000   0.06722
  33       14D+1        0.00000   0.00000  -0.91836   0.00000   0.00000
  34       14D-1        0.00000   0.00000   0.00000  -0.91836   0.00000
  35       14D+2        0.00000   0.00000   0.00000   0.00000  -0.91590
  36       14D-2        0.00000  -0.91836   0.00000   0.00000   0.00000
  37       15F 0        0.00000   0.00000   0.00000   0.00000   0.00000
  38       15F+1       -0.00000   0.00000   0.00000   0.00000   0.00000
  39       15F-1        0.00000   0.00000   0.00000   0.00000   0.00000
  40       15F+2        0.00000   0.00000   0.00000   0.00000   0.00000
  41       15F-2        0.00000   0.00000   0.00000   0.00000   0.00000
  42       15F+3        0.00000   0.00000   0.00000   0.00000   0.00000
  43       15F-3        0.00000   0.00000   0.00000   0.00000   0.00000
  44       16F 0        0.00000   0.00000   0.00000   0.00000   0.00000
  45       16F+1        0.00000   0.00000   0.00000   0.00000   0.00000
  46       16F-1        0.00000   0.00000   0.00000   0.00000   0.00000
  47       16F+2        0.00000   0.00000   0.00000   0.00000   0.00000
  48       16F-2        0.00000   0.00000   0.00000   0.00000   0.00000
  49       16F+3       -0.00000   0.00000   0.00000   0.00000   0.00000
  50       16F-3        0.00000   0.00000   0.00000   0.00000   0.00000
                          26        27        28        29        30
                        (EG)--V  (A1G)--V  (T2U)--V  (T2U)--V  (T2U)--V
     Eigenvalues --     0.41054   0.44493   0.50871   0.50871   0.50871
   1 1   P  1S         -0.00000  -0.09505   0.00000   0.00000   0.00000
   2        2S         -0.00000  -0.17565   0.00000   0.00000   0.00000
   3        3S         -0.00000  -2.08904   0.00000   0.00000   0.00000
   4        4S         -0.00000  -0.27048   0.00000   0.00000   0.00000
   5        5S          0.00000   3.69943   0.00000   0.00000   0.00000
   6        6S         -0.00000  -1.69744   0.00000   0.00000   0.00000
   7        7PX         0.00000   0.00000  -0.00000   0.00000   0.00000
   8        7PY         0.00000   0.00000   0.00000  -0.00000   0.00000
   9        7PZ         0.00000   0.00000   0.00000   0.00000  -0.00000
  10        8PX         0.00000   0.00000  -0.00000   0.00000   0.00000
  11        8PY         0.00000   0.00000   0.00000   0.00000   0.00000
  12        8PZ         0.00000   0.00000   0.00000   0.00000   0.00000
  13        9PX         0.00000   0.00000   0.00000   0.00000   0.00000
  14        9PY         0.00000   0.00000   0.00000   0.00000   0.00000
  15        9PZ         0.00000   0.00000   0.00000   0.00000   0.00000
  16       10PX         0.00000   0.00000   0.00000   0.00000   0.00000
  17       10PY         0.00000   0.00000   0.00000  -0.00000   0.00000
  18       10PZ         0.00000   0.00000   0.00000   0.00000  -0.00000
  19       11PX         0.00000   0.00000  -0.00000   0.00000   0.00000
  20       11PY         0.00000   0.00000   0.00000   0.00000   0.00000
  21       11PZ         0.00000   0.00000   0.00000   0.00000   0.00000
  22       12D 0        1.09679  -0.00000   0.00000   0.00000   0.00000
  23       12D+1        0.00000   0.00000   0.00000   0.00000   0.00000
  24       12D-1        0.00000   0.00000   0.00000   0.00000   0.00000
  25       12D+2        0.08049  -0.00000   0.00000   0.00000   0.00000
  26       12D-2        0.00000   0.00000   0.00000   0.00000   0.00000
  27       13D 0        0.20666   0.00000   0.00000   0.00000   0.00000
  28       13D+1        0.00000   0.00000   0.00000   0.00000   0.00000
  29       13D-1        0.00000   0.00000   0.00000   0.00000   0.00000
  30       13D+2        0.01517  -0.00000   0.00000   0.00000   0.00000
  31       13D-2        0.00000   0.00000   0.00000   0.00000   0.00000
  32       14D 0       -0.91590   0.00000   0.00000   0.00000   0.00000
  33       14D+1        0.00000   0.00000   0.00000   0.00000   0.00000
  34       14D-1        0.00000   0.00000   0.00000   0.00000   0.00000
  35       14D+2       -0.06722   0.00000   0.00000   0.00000   0.00000
  36       14D-2        0.00000   0.00000   0.00000   0.00000   0.00000
  37       15F 0        0.00000   0.00000   0.00000   0.00000   0.00000
  38       15F+1        0.00000   0.00000  -0.05792   0.00000   0.00000
  39       15F-1        0.00000   0.00000   0.00000  -0.05792   0.00000
  40       15F+2        0.00000   0.00000   0.00000   0.00000  -0.07327
  41       15F-2        0.00000   0.00000   0.00000   0.00000   0.00000
  42       15F+3        0.00000   0.00000  -0.04487   0.00000   0.00000
  43       15F-3        0.00000   0.00000   0.00000   0.04487   0.00000
  44       16F 0        0.00000   0.00000   0.00000   0.00000  -0.00003
  45       16F+1        0.00000   0.00000   0.82258   0.00000   0.00000
  46       16F-1        0.00000   0.00000   0.00000   0.82257   0.00000
  47       16F+2        0.00000   0.00000   0.00000   0.00000   1.04054
  48       16F-2        0.00000   0.00000   0.00000   0.00000   0.00000
  49       16F+3        0.00000   0.00000   0.63725   0.00000   0.00000
  50       16F-3        0.00000   0.00000   0.00000  -0.63726   0.00000
                          31        32        33        34        35
                       (A2U)--V  (T1U)--V  (T1U)--V  (T1U)--V  (T2G)--V
     Eigenvalues --     0.50871   0.50871   0.50871   0.50871   1.36767
   1 1   P  1S          0.00000   0.00000   0.00000   0.00000   0.00000
   2        2S          0.00000   0.00000   0.00000   0.00000   0.00000
   3        3S          0.00000   0.00000   0.00000   0.00000   0.00000
   4        4S          0.00000   0.00000   0.00000   0.00000   0.00000
   5        5S          0.00000   0.00000   0.00000   0.00000   0.00000
   6        6S          0.00000   0.00000   0.00000   0.00000   0.00000
   7        7PX         0.00000   0.00000   0.00000  -0.00000   0.00000
   8        7PY         0.00000   0.00000   0.00000   0.00000   0.00000
   9        7PZ         0.00000  -0.00000   0.00000   0.00000   0.00000
  10        8PX         0.00000   0.00000   0.00000  -0.00000   0.00000
  11        8PY         0.00000   0.00000   0.00000   0.00000   0.00000
  12        8PZ         0.00000  -0.00000   0.00000   0.00000   0.00000
  13        9PX         0.00000   0.00000   0.00000   0.00000   0.00000
  14        9PY         0.00000   0.00000  -0.00000   0.00000   0.00000
  15        9PZ         0.00000   0.00000   0.00000   0.00000   0.00000
  16       10PX         0.00000   0.00000   0.00000   0.00000   0.00000
  17       10PY         0.00000   0.00000  -0.00000   0.00000   0.00000
  18       10PZ         0.00000   0.00000   0.00000   0.00000   0.00000
  19       11PX         0.00000   0.00000   0.00000  -0.00000   0.00000
  20       11PY         0.00000   0.00000   0.00000   0.00000   0.00000
  21       11PZ         0.00000  -0.00000   0.00000   0.00000   0.00000
  22       12D 0        0.00000   0.00000   0.00000   0.00000   0.00000
  23       12D+1        0.00000   0.00000   0.00000   0.00000   0.00000
  24       12D-1        0.00000   0.00000   0.00000   0.00000   0.00000
  25       12D+2        0.00000   0.00000   0.00000   0.00000   0.00000
  26       12D-2        0.00000   0.00000   0.00000   0.00000  -1.29768
  27       13D 0        0.00000   0.00000   0.00000   0.00000   0.00000
  28       13D+1        0.00000   0.00000   0.00000   0.00000   0.00000
  29       13D-1        0.00000   0.00000   0.00000   0.00000   0.00000
  30       13D+2        0.00000   0.00000   0.00000   0.00000   0.00000
  31       13D-2        0.00000   0.00000   0.00000   0.00000   1.30352
  32       14D 0        0.00000   0.00000   0.00000   0.00000   0.00000
  33       14D+1        0.00000   0.00000   0.00000   0.00000   0.00000
  34       14D-1        0.00000   0.00000   0.00000   0.00000   0.00000
  35       14D+2        0.00000   0.00000   0.00000   0.00000   0.00000
  36       14D-2        0.00000   0.00000   0.00000   0.00000   0.52191
  37       15F 0        0.00000  -0.07327   0.00000   0.00000   0.00000
  38       15F+1        0.00000   0.00000   0.00000   0.04487   0.00000
  39       15F-1        0.00000   0.00000  -0.04487   0.00000   0.00000
  40       15F+2        0.00000  -0.00000   0.00000   0.00000   0.00000
  41       15F-2       -0.07327   0.00000   0.00000   0.00000   0.00000
  42       15F+3        0.00000   0.00000   0.00000  -0.05792   0.00000
  43       15F-3        0.00000   0.00000  -0.05792   0.00000   0.00000
  44       16F 0        0.00000   1.04054   0.00000   0.00000   0.00000
  45       16F+1        0.00000   0.00000   0.00000  -0.63725   0.00000
  46       16F-1        0.00000   0.00000   0.63726   0.00000   0.00000
  47       16F+2        0.00000   0.00003   0.00000   0.00000   0.00000
  48       16F-2        1.04054   0.00000   0.00000   0.00000   0.00000
  49       16F+3        0.00000   0.00000   0.00000   0.82258   0.00000
  50       16F-3        0.00000   0.00000   0.82257   0.00000   0.00000
                          36        37        38        39        40
                       (T2G)--V  (T2G)--V   (EG)--V   (EG)--V  (T2U)--V
     Eigenvalues --     1.36767   1.36767   1.36767   1.36767   1.60013
   1 1   P  1S          0.00000   0.00000  -0.00000   0.00000   0.00000
   2        2S          0.00000   0.00000   0.00000  -0.00000   0.00000
   3        3S          0.00000   0.00000   0.00000  -0.00000   0.00000
   4        4S          0.00000   0.00000  -0.00000   0.00000   0.00000
   5        5S          0.00000   0.00000   0.00000   0.00000   0.00000
   6        6S          0.00000   0.00000  -0.00000   0.00000   0.00000
   7        7PX         0.00000   0.00000   0.00000   0.00000   0.00000
   8        7PY         0.00000   0.00000   0.00000   0.00000   0.00000
   9        7PZ         0.00000   0.00000   0.00000   0.00000   0.00000
  10        8PX         0.00000   0.00000   0.00000   0.00000   0.00000
  11        8PY         0.00000   0.00000   0.00000   0.00000   0.00000
  12        8PZ         0.00000   0.00000   0.00000   0.00000   0.00000
  13        9PX         0.00000   0.00000   0.00000   0.00000   0.00000
  14        9PY         0.00000   0.00000   0.00000   0.00000  -0.00000
  15        9PZ         0.00000   0.00000   0.00000   0.00000   0.00000
  16       10PX         0.00000   0.00000   0.00000   0.00000   0.00000
  17       10PY         0.00000   0.00000   0.00000   0.00000  -0.00000
  18       10PZ         0.00000   0.00000   0.00000   0.00000   0.00000
  19       11PX         0.00000   0.00000   0.00000   0.00000   0.00000
  20       11PY         0.00000   0.00000   0.00000   0.00000  -0.00000
  21       11PZ         0.00000   0.00000   0.00000   0.00000   0.00000
  22       12D 0        0.00000   0.00000   0.05001  -1.29672   0.00000
  23       12D+1       -1.29768   0.00000   0.00000   0.00000   0.00000
  24       12D-1        0.00000  -1.29768   0.00000   0.00000   0.00000
  25       12D+2        0.00000   0.00000  -1.29672  -0.05001   0.00000
  26       12D-2        0.00000   0.00000   0.00000   0.00000   0.00000
  27       13D 0        0.00000   0.00000  -0.05023   1.30255   0.00000
  28       13D+1        1.30352   0.00000   0.00000   0.00000   0.00000
  29       13D-1        0.00000   1.30352   0.00000   0.00000   0.00000
  30       13D+2        0.00000   0.00000   1.30255   0.05023   0.00000
  31       13D-2        0.00000   0.00000   0.00000   0.00000   0.00000
  32       14D 0        0.00000   0.00000  -0.02011   0.52153   0.00000
  33       14D+1        0.52191   0.00000   0.00000   0.00000   0.00000
  34       14D-1        0.00000   0.52191   0.00000   0.00000   0.00000
  35       14D+2        0.00000   0.00000   0.52153   0.02011   0.00000
  36       14D-2        0.00000   0.00000   0.00000   0.00000   0.00000
  37       15F 0        0.00000   0.00000   0.00000   0.00000   0.00000
  38       15F+1        0.00000   0.00000   0.00000   0.00000   0.00000
  39       15F-1        0.00000   0.00000   0.00000   0.00000   0.96685
  40       15F+2        0.00000   0.00000   0.00000   0.00000   0.00000
  41       15F-2        0.00000   0.00000   0.00000   0.00000   0.00000
  42       15F+3        0.00000   0.00000   0.00000   0.00000   0.00000
  43       15F-3        0.00000   0.00000   0.00000   0.00000  -0.74894
  44       16F 0        0.00000   0.00000   0.00000   0.00000   0.00000
  45       16F+1        0.00000   0.00000   0.00000   0.00000   0.00000
  46       16F-1        0.00000   0.00000   0.00000   0.00000  -0.51134
  47       16F+2        0.00000   0.00000   0.00000   0.00000   0.00000
  48       16F-2        0.00000   0.00000   0.00000   0.00000   0.00000
  49       16F+3        0.00000   0.00000   0.00000   0.00000   0.00000
  50       16F-3        0.00000   0.00000   0.00000   0.00000   0.39609
                          41        42        43        44        45
                       (T2U)--V  (T2U)--V  (A2U)--V  (T1U)--V  (T1U)--V
     Eigenvalues --     1.60013   1.60013   1.60013   1.60013   1.60013
   1 1   P  1S          0.00000   0.00000   0.00000   0.00000   0.00000
   2        2S          0.00000   0.00000   0.00000   0.00000   0.00000
   3        3S          0.00000   0.00000   0.00000   0.00000   0.00000
   4        4S          0.00000   0.00000   0.00000   0.00000   0.00000
   5        5S          0.00000   0.00000   0.00000   0.00000   0.00000
   6        6S          0.00000   0.00000   0.00000   0.00000   0.00000
   7        7PX         0.00000  -0.00000   0.00000   0.00000   0.00000
   8        7PY         0.00000   0.00000   0.00000   0.00000   0.00000
   9        7PZ        -0.00000   0.00000   0.00000  -0.00000   0.00000
  10        8PX         0.00000  -0.00000   0.00000   0.00000   0.00000
  11        8PY         0.00000   0.00000   0.00000   0.00000   0.00000
  12        8PZ        -0.00000   0.00000   0.00000  -0.00000   0.00000
  13        9PX         0.00000   0.00000   0.00000   0.00000   0.00000
  14        9PY         0.00000   0.00000   0.00000   0.00000  -0.00000
  15        9PZ         0.00000   0.00000   0.00000   0.00000   0.00000
  16       10PX         0.00000   0.00000   0.00000   0.00000   0.00000
  17       10PY         0.00000   0.00000   0.00000   0.00000  -0.00000
  18       10PZ         0.00000   0.00000   0.00000   0.00000   0.00000
  19       11PX         0.00000   0.00000   0.00000   0.00000   0.00000
  20       11PY         0.00000   0.00000   0.00000   0.00000   0.00000
  21       11PZ        -0.00000   0.00000   0.00000  -0.00000   0.00000
  22       12D 0        0.00000   0.00000   0.00000   0.00000   0.00000
  23       12D+1        0.00000   0.00000   0.00000   0.00000   0.00000
  24       12D-1        0.00000   0.00000   0.00000   0.00000   0.00000
  25       12D+2        0.00000   0.00000   0.00000   0.00000   0.00000
  26       12D-2        0.00000   0.00000   0.00000   0.00000   0.00000
  27       13D 0        0.00000   0.00000   0.00000   0.00000   0.00000
  28       13D+1        0.00000   0.00000   0.00000   0.00000   0.00000
  29       13D-1        0.00000   0.00000   0.00000   0.00000   0.00000
  30       13D+2        0.00000   0.00000   0.00000   0.00000   0.00000
  31       13D-2        0.00000   0.00000   0.00000   0.00000   0.00000
  32       14D 0        0.00000   0.00000   0.00000   0.00000   0.00000
  33       14D+1        0.00000   0.00000   0.00000   0.00000   0.00000
  34       14D-1        0.00000   0.00000   0.00000   0.00000   0.00000
  35       14D+2        0.00000   0.00000   0.00000   0.00000   0.00000
  36       14D-2        0.00000   0.00000   0.00000   0.00000   0.00000
  37       15F 0        0.00001   0.00000   0.00000   1.22299   0.00000
  38       15F+1        0.00000   0.96687   0.00000   0.00000   0.00000
  39       15F-1        0.00000   0.00000   0.00000   0.00000   0.74894
  40       15F+2        1.22299   0.00000   0.00000  -0.00001   0.00000
  41       15F-2        0.00000   0.00000   1.22299   0.00000   0.00000
  42       15F+3        0.00000   0.74892   0.00000   0.00000   0.00000
  43       15F-3        0.00000   0.00000   0.00000   0.00000   0.96685
  44       16F 0       -0.00001   0.00000   0.00000  -0.64680   0.00000
  45       16F+1        0.00000  -0.51135   0.00000   0.00000   0.00000
  46       16F-1        0.00000   0.00000   0.00000   0.00000  -0.39609
  47       16F+2       -0.64680   0.00000   0.00000   0.00001   0.00000
  48       16F-2        0.00000   0.00000  -0.64680   0.00000   0.00000
  49       16F+3        0.00000  -0.39608   0.00000   0.00000   0.00000
  50       16F-3        0.00000   0.00000   0.00000   0.00000  -0.51134
                          46        47        48        49        50
                       (T1U)--V  (T1U)--V  (T1U)--V  (T1U)--V  (A1G)--V
     Eigenvalues --     1.60013   1.92943   1.92943   1.92943   2.95680
   1 1   P  1S          0.00000   0.00000   0.00000   0.00000   0.01014
   2        2S          0.00000   0.00000   0.00000   0.00000   2.69233
   3        3S          0.00000   0.00000   0.00000   0.00000   4.37706
   4        4S          0.00000   0.00000   0.00000   0.00000  -3.78407
   5        5S          0.00000   0.00000   0.00000   0.00000  -3.00198
   6        6S          0.00000   0.00000   0.00000   0.00000   0.97814
   7        7PX        -0.00000   0.00000   0.71238   0.00000   0.00000
   8        7PY         0.00000   0.71238   0.00000   0.00000   0.00000
   9        7PZ         0.00000   0.00000   0.00000   0.71238   0.00000
  10        8PX        -0.00000   0.00000   2.00868   0.00000   0.00000
  11        8PY         0.00000   2.00868   0.00000   0.00000   0.00000
  12        8PZ         0.00000   0.00000   0.00000   2.00868   0.00000
  13        9PX         0.00000   0.00000  -1.90138   0.00000   0.00000
  14        9PY         0.00000  -1.90138   0.00000   0.00000   0.00000
  15        9PZ         0.00000   0.00000   0.00000  -1.90138   0.00000
  16       10PX         0.00000   0.00000  -1.05247   0.00000   0.00000
  17       10PY         0.00000  -1.05247   0.00000   0.00000   0.00000
  18       10PZ         0.00000   0.00000   0.00000  -1.05247   0.00000
  19       11PX        -0.00000   0.00000   0.32538   0.00000   0.00000
  20       11PY         0.00000   0.32538   0.00000   0.00000   0.00000
  21       11PZ         0.00000   0.00000   0.00000   0.32538   0.00000
  22       12D 0        0.00000   0.00000   0.00000   0.00000  -0.00000
  23       12D+1        0.00000   0.00000   0.00000   0.00000   0.00000
  24       12D-1        0.00000   0.00000   0.00000   0.00000   0.00000
  25       12D+2        0.00000   0.00000   0.00000   0.00000   0.00000
  26       12D-2        0.00000   0.00000   0.00000   0.00000   0.00000
  27       13D 0        0.00000   0.00000   0.00000   0.00000   0.00000
  28       13D+1        0.00000   0.00000   0.00000   0.00000   0.00000
  29       13D-1        0.00000   0.00000   0.00000   0.00000   0.00000
  30       13D+2        0.00000   0.00000   0.00000   0.00000  -0.00000
  31       13D-2        0.00000   0.00000   0.00000   0.00000   0.00000
  32       14D 0        0.00000   0.00000   0.00000   0.00000   0.00000
  33       14D+1        0.00000   0.00000   0.00000   0.00000   0.00000
  34       14D-1        0.00000   0.00000   0.00000   0.00000   0.00000
  35       14D+2        0.00000   0.00000   0.00000   0.00000  -0.00000
  36       14D-2        0.00000   0.00000   0.00000   0.00000   0.00000
  37       15F 0        0.00000   0.00000   0.00000   0.00000   0.00000
  38       15F+1       -0.74892   0.00000  -0.00000   0.00000   0.00000
  39       15F-1        0.00000  -0.00000   0.00000   0.00000   0.00000
  40       15F+2        0.00000   0.00000   0.00000   0.00000   0.00000
  41       15F-2        0.00000   0.00000   0.00000   0.00000   0.00000
  42       15F+3        0.96687   0.00000   0.00000   0.00000   0.00000
  43       15F-3        0.00000  -0.00000   0.00000   0.00000   0.00000
  44       16F 0        0.00000   0.00000   0.00000  -0.00000   0.00000
  45       16F+1        0.39608   0.00000   0.00000   0.00000   0.00000
  46       16F-1        0.00000   0.00000   0.00000   0.00000   0.00000
  47       16F+2        0.00000   0.00000   0.00000  -0.00000   0.00000
  48       16F-2        0.00000   0.00000   0.00000   0.00000   0.00000
  49       16F+3       -0.51135   0.00000  -0.00000   0.00000   0.00000
  50       16F-3        0.00000   0.00000   0.00000   0.00000   0.00000
     Beta Molecular Orbital Coefficients:
                           1         2         3         4         5
                       (A1G)--O  (A1G)--O  (T1U)--O  (T1U)--O  (T1U)--O
     Eigenvalues --   -77.12213  -6.57932  -4.73664  -4.73664  -4.73664
   1 1   P  1S          1.00098  -0.27154   0.00000   0.00000   0.00000
   2        2S         -0.00113   0.97326   0.00000   0.00000   0.00000
   3        3S          0.00328  -0.02357   0.00000   0.00000   0.00000
   4        4S         -0.00384   0.09049   0.00000   0.00000   0.00000
   5        5S         -0.00207   0.01083   0.00000   0.00000   0.00000
   6        6S          0.00068  -0.00324   0.00000   0.00000   0.00000
   7        7PX         0.00000   0.00000   0.00000   0.00000   0.95740
   8        7PY         0.00000   0.00000   0.95740   0.00000   0.00000
   9        7PZ         0.00000   0.00000   0.00000   0.95740   0.00000
  10        8PX         0.00000   0.00000   0.00000   0.00000  -0.00256
  11        8PY         0.00000   0.00000  -0.00256   0.00000   0.00000
  12        8PZ         0.00000   0.00000   0.00000  -0.00256   0.00000
  13        9PX         0.00000   0.00000   0.00000   0.00000   0.08350
  14        9PY         0.00000   0.00000   0.08350   0.00000   0.00000
  15        9PZ         0.00000   0.00000   0.00000   0.08350   0.00000
  16       10PX         0.00000   0.00000   0.00000   0.00000   0.00086
  17       10PY         0.00000   0.00000   0.00086   0.00000   0.00000
  18       10PZ         0.00000   0.00000   0.00000   0.00086   0.00000
  19       11PX         0.00000   0.00000   0.00000   0.00000  -0.00020
  20       11PY         0.00000   0.00000  -0.00020   0.00000   0.00000
  21       11PZ         0.00000   0.00000   0.00000  -0.00020   0.00000
  22       12D 0       -0.00000   0.00000   0.00000   0.00000   0.00000
  23       12D+1        0.00000   0.00000   0.00000   0.00000   0.00000
  24       12D-1        0.00000   0.00000   0.00000   0.00000   0.00000
  25       12D+2        0.00000  -0.00000   0.00000   0.00000   0.00000
  26       12D-2        0.00000   0.00000   0.00000   0.00000   0.00000
  27       13D 0        0.00000  -0.00000   0.00000   0.00000   0.00000
  28       13D+1        0.00000   0.00000   0.00000   0.00000   0.00000
  29       13D-1        0.00000   0.00000   0.00000   0.00000   0.00000
  30       13D+2       -0.00000   0.00000   0.00000   0.00000   0.00000
  31       13D-2        0.00000   0.00000   0.00000   0.00000   0.00000
  32       14D 0        0.00000  -0.00000   0.00000   0.00000   0.00000
  33       14D+1        0.00000   0.00000   0.00000   0.00000   0.00000
  34       14D-1        0.00000   0.00000   0.00000   0.00000   0.00000
  35       14D+2       -0.00000   0.00000   0.00000   0.00000   0.00000
  36       14D-2        0.00000   0.00000   0.00000   0.00000   0.00000
  37       15F 0        0.00000   0.00000   0.00000  -0.00000   0.00000
  38       15F+1        0.00000   0.00000   0.00000   0.00000   0.00000
  39       15F-1        0.00000   0.00000   0.00000   0.00000   0.00000
  40       15F+2        0.00000   0.00000   0.00000  -0.00000   0.00000
  41       15F-2        0.00000   0.00000   0.00000   0.00000   0.00000
  42       15F+3        0.00000   0.00000   0.00000   0.00000  -0.00000
  43       15F-3        0.00000   0.00000   0.00000   0.00000   0.00000
  44       16F 0        0.00000   0.00000   0.00000   0.00000   0.00000
  45       16F+1        0.00000   0.00000   0.00000   0.00000  -0.00000
  46       16F-1        0.00000   0.00000  -0.00000   0.00000   0.00000
  47       16F+2        0.00000   0.00000   0.00000   0.00000   0.00000
  48       16F-2        0.00000   0.00000   0.00000   0.00000   0.00000
  49       16F+3        0.00000   0.00000   0.00000   0.00000   0.00000
  50       16F-3        0.00000   0.00000  -0.00000   0.00000   0.00000
                           6         7         8         9        10
                       (A1G)--O  (T1U)--V  (T1U)--V  (T1U)--V  (A1G)--V
     Eigenvalues --    -0.48496  -0.11996  -0.11996  -0.11996   0.02806
   1 1   P  1S          0.07799   0.00000   0.00000   0.00000  -0.02331
   2        2S         -0.32064   0.00000   0.00000   0.00000   0.15068
   3        3S          0.58087   0.00000   0.00000   0.00000  -0.08758
   4        4S          0.11554   0.00000   0.00000   0.00000  -0.06590
   5        5S          0.39533   0.00000   0.00000   0.00000  -1.21751
   6        6S          0.01511   0.00000   0.00000   0.00000   1.78773
   7        7PX         0.00000  -0.21986   0.00000   0.00000   0.00000
   8        7PY         0.00000   0.00000   0.00000  -0.21986   0.00000
   9        7PZ         0.00000   0.00000  -0.21986   0.00000   0.00000
  10        8PX         0.00000   0.44303   0.00000   0.00000   0.00000
  11        8PY         0.00000   0.00000   0.00000   0.44303   0.00000
  12        8PZ         0.00000   0.00000   0.44303   0.00000   0.00000
  13        9PX         0.00000   0.16520   0.00000   0.00000   0.00000
  14        9PY         0.00000   0.00000   0.00000   0.16520   0.00000
  15        9PZ         0.00000   0.00000   0.16520   0.00000   0.00000
  16       10PX         0.00000   0.46908   0.00000   0.00000   0.00000
  17       10PY         0.00000   0.00000   0.00000   0.46908   0.00000
  18       10PZ         0.00000   0.00000   0.46908   0.00000   0.00000
  19       11PX         0.00000   0.13529   0.00000   0.00000   0.00000
  20       11PY         0.00000   0.00000   0.00000   0.13529   0.00000
  21       11PZ         0.00000   0.00000   0.13529   0.00000   0.00000
  22       12D 0        0.00000   0.00000   0.00000   0.00000  -0.00000
  23       12D+1        0.00000   0.00000   0.00000   0.00000   0.00000
  24       12D-1        0.00000   0.00000   0.00000   0.00000   0.00000
  25       12D+2       -0.00000   0.00000   0.00000   0.00000   0.00000
  26       12D-2        0.00000   0.00000   0.00000   0.00000   0.00000
  27       13D 0       -0.00000   0.00000   0.00000   0.00000   0.00000
  28       13D+1        0.00000   0.00000   0.00000   0.00000   0.00000
  29       13D-1        0.00000   0.00000   0.00000   0.00000   0.00000
  30       13D+2        0.00000   0.00000   0.00000   0.00000  -0.00000
  31       13D-2        0.00000   0.00000   0.00000   0.00000   0.00000
  32       14D 0       -0.00000   0.00000   0.00000   0.00000   0.00000
  33       14D+1        0.00000   0.00000   0.00000   0.00000   0.00000
  34       14D-1        0.00000   0.00000   0.00000   0.00000   0.00000
  35       14D+2        0.00000   0.00000   0.00000   0.00000  -0.00000
  36       14D-2        0.00000   0.00000   0.00000   0.00000   0.00000
  37       15F 0        0.00000   0.00000  -0.00000   0.00000   0.00000
  38       15F+1        0.00000   0.00000   0.00000   0.00000   0.00000
  39       15F-1        0.00000   0.00000   0.00000   0.00000   0.00000
  40       15F+2        0.00000   0.00000  -0.00000   0.00000   0.00000
  41       15F-2        0.00000   0.00000   0.00000   0.00000   0.00000
  42       15F+3        0.00000  -0.00000   0.00000   0.00000   0.00000
  43       15F-3        0.00000   0.00000   0.00000   0.00000   0.00000
  44       16F 0        0.00000   0.00000  -0.00000   0.00000   0.00000
  45       16F+1        0.00000   0.00000   0.00000   0.00000   0.00000
  46       16F-1        0.00000   0.00000   0.00000   0.00000   0.00000
  47       16F+2        0.00000   0.00000   0.00000   0.00000   0.00000
  48       16F-2        0.00000   0.00000   0.00000   0.00000   0.00000
  49       16F+3        0.00000  -0.00000   0.00000   0.00000   0.00000
  50       16F-3        0.00000   0.00000   0.00000   0.00000   0.00000
                          11        12        13        14        15
                       (T1U)--V  (T1U)--V  (T1U)--V  (T2G)--V  (T2G)--V
     Eigenvalues --     0.05520   0.05520   0.05520   0.13712   0.13712
   1 1   P  1S          0.00000   0.00000   0.00000   0.00000   0.00000
   2        2S          0.00000   0.00000   0.00000   0.00000   0.00000
   3        3S          0.00000   0.00000   0.00000   0.00000   0.00000
   4        4S          0.00000   0.00000   0.00000   0.00000   0.00000
   5        5S          0.00000   0.00000   0.00000   0.00000   0.00000
   6        6S          0.00000   0.00000   0.00000   0.00000   0.00000
   7        7PX         0.00000   0.00000   0.10592   0.00000   0.00000
   8        7PY         0.00000   0.10592   0.00000   0.00000   0.00000
   9        7PZ         0.10592   0.00000   0.00000   0.00000   0.00000
  10        8PX         0.00000   0.00000  -0.15633   0.00000   0.00000
  11        8PY         0.00000  -0.15633   0.00000   0.00000   0.00000
  12        8PZ        -0.15633   0.00000   0.00000   0.00000   0.00000
  13        9PX         0.00000   0.00000  -0.09902   0.00000   0.00000
  14        9PY         0.00000  -0.09902   0.00000   0.00000   0.00000
  15        9PZ        -0.09902   0.00000   0.00000   0.00000   0.00000
  16       10PX         0.00000   0.00000  -0.58062   0.00000   0.00000
  17       10PY         0.00000  -0.58062   0.00000   0.00000   0.00000
  18       10PZ        -0.58062   0.00000   0.00000   0.00000   0.00000
  19       11PX         0.00000   0.00000   1.24646   0.00000   0.00000
  20       11PY         0.00000   1.24646   0.00000   0.00000   0.00000
  21       11PZ         1.24646   0.00000   0.00000   0.00000   0.00000
  22       12D 0        0.00000   0.00000   0.00000   0.00000   0.00000
  23       12D+1        0.00000   0.00000   0.00000   0.00000   0.00000
  24       12D-1        0.00000   0.00000   0.00000   0.00000  -0.01761
  25       12D+2        0.00000   0.00000   0.00000   0.00000   0.00000
  26       12D-2        0.00000   0.00000   0.00000  -0.01761   0.00000
  27       13D 0        0.00000   0.00000   0.00000   0.00000   0.00000
  28       13D+1        0.00000   0.00000   0.00000   0.00000   0.00000
  29       13D-1        0.00000   0.00000   0.00000   0.00000   0.10960
  30       13D+2        0.00000   0.00000   0.00000   0.00000   0.00000
  31       13D-2        0.00000   0.00000   0.00000   0.10960   0.00000
  32       14D 0        0.00000   0.00000   0.00000   0.00000   0.00000
  33       14D+1        0.00000   0.00000   0.00000   0.00000   0.00000
  34       14D-1        0.00000   0.00000   0.00000   0.00000   0.98622
  35       14D+2        0.00000   0.00000   0.00000   0.00000   0.00000
  36       14D-2        0.00000   0.00000   0.00000   0.98622   0.00000
  37       15F 0        0.00000   0.00000   0.00000   0.00000   0.00000
  38       15F+1        0.00000   0.00000  -0.00000   0.00000   0.00000
  39       15F-1        0.00000  -0.00000   0.00000   0.00000   0.00000
  40       15F+2       -0.00000   0.00000   0.00000   0.00000   0.00000
  41       15F-2        0.00000   0.00000   0.00000   0.00000   0.00000
  42       15F+3        0.00000   0.00000   0.00000   0.00000   0.00000
  43       15F-3        0.00000  -0.00000   0.00000   0.00000   0.00000
  44       16F 0        0.00000   0.00000   0.00000   0.00000   0.00000
  45       16F+1        0.00000   0.00000  -0.00000   0.00000   0.00000
  46       16F-1        0.00000  -0.00000   0.00000   0.00000   0.00000
  47       16F+2        0.00000   0.00000   0.00000   0.00000   0.00000
  48       16F-2        0.00000   0.00000   0.00000   0.00000   0.00000
  49       16F+3        0.00000   0.00000   0.00000   0.00000   0.00000
  50       16F-3        0.00000  -0.00000   0.00000   0.00000   0.00000
                          16        17        18        19        20
                       (T2G)--V   (EG)--V   (EG)--V  (T1U)--V  (T1U)--V
     Eigenvalues --     0.13712   0.13712   0.13712   0.40054   0.40054
   1 1   P  1S          0.00000  -0.00000   0.00000   0.00000   0.00000
   2        2S          0.00000  -0.00000  -0.00000   0.00000   0.00000
   3        3S          0.00000  -0.00000   0.00000   0.00000   0.00000
   4        4S          0.00000   0.00000   0.00000   0.00000   0.00000
   5        5S          0.00000  -0.00000   0.00000   0.00000   0.00000
   6        6S          0.00000   0.00000  -0.00000   0.00000   0.00000
   7        7PX         0.00000   0.00000   0.00000   0.00000   0.00000
   8        7PY         0.00000   0.00000   0.00000   0.17945   0.00000
   9        7PZ         0.00000   0.00000   0.00000   0.00000   0.17945
  10        8PX         0.00000   0.00000   0.00000   0.00000   0.00000
  11        8PY         0.00000   0.00000   0.00000  -1.32382   0.00000
  12        8PZ         0.00000   0.00000   0.00000   0.00000  -1.32382
  13        9PX         0.00000   0.00000   0.00000   0.00000   0.00000
  14        9PY         0.00000   0.00000   0.00000  -0.08598   0.00000
  15        9PZ         0.00000   0.00000   0.00000   0.00000  -0.08598
  16       10PX         0.00000   0.00000   0.00000   0.00000   0.00000
  17       10PY         0.00000   0.00000   0.00000   1.86357   0.00000
  18       10PZ         0.00000   0.00000   0.00000   0.00000   1.86357
  19       11PX         0.00000   0.00000   0.00000   0.00000   0.00000
  20       11PY         0.00000   0.00000   0.00000  -0.78817   0.00000
  21       11PZ         0.00000   0.00000   0.00000   0.00000  -0.78817
  22       12D 0        0.00000   0.00271  -0.01740   0.00000   0.00000
  23       12D+1       -0.01761   0.00000   0.00000   0.00000   0.00000
  24       12D-1        0.00000   0.00000   0.00000   0.00000   0.00000
  25       12D+2        0.00000  -0.01740  -0.00271   0.00000   0.00000
  26       12D-2        0.00000   0.00000   0.00000   0.00000   0.00000
  27       13D 0        0.00000  -0.01689   0.10829   0.00000   0.00000
  28       13D+1        0.10960   0.00000   0.00000   0.00000   0.00000
  29       13D-1        0.00000   0.00000   0.00000   0.00000   0.00000
  30       13D+2        0.00000   0.10829   0.01689   0.00000   0.00000
  31       13D-2        0.00000   0.00000   0.00000   0.00000   0.00000
  32       14D 0        0.00000  -0.15201   0.97443   0.00000   0.00000
  33       14D+1        0.98622   0.00000   0.00000   0.00000   0.00000
  34       14D-1        0.00000   0.00000   0.00000   0.00000   0.00000
  35       14D+2        0.00000   0.97443   0.15201   0.00000   0.00000
  36       14D-2        0.00000   0.00000   0.00000   0.00000   0.00000
  37       15F 0        0.00000   0.00000   0.00000   0.00000   0.00000
  38       15F+1        0.00000   0.00000   0.00000   0.00000   0.00000
  39       15F-1        0.00000   0.00000   0.00000  -0.00000   0.00000
  40       15F+2        0.00000   0.00000   0.00000   0.00000   0.00000
  41       15F-2        0.00000   0.00000   0.00000   0.00000   0.00000
  42       15F+3        0.00000   0.00000   0.00000   0.00000   0.00000
  43       15F-3        0.00000   0.00000   0.00000  -0.00000   0.00000
  44       16F 0        0.00000   0.00000   0.00000   0.00000  -0.00000
  45       16F+1        0.00000   0.00000   0.00000   0.00000   0.00000
  46       16F-1        0.00000   0.00000   0.00000   0.00000   0.00000
  47       16F+2        0.00000   0.00000   0.00000   0.00000  -0.00000
  48       16F-2        0.00000   0.00000   0.00000   0.00000   0.00000
  49       16F+3        0.00000   0.00000   0.00000   0.00000   0.00000
  50       16F-3        0.00000   0.00000   0.00000   0.00000   0.00000
                          21        22        23        24        25
                       (T1U)--V  (T2G)--V  (T2G)--V  (T2G)--V   (EG)--V
     Eigenvalues --     0.40054   0.47515   0.47515   0.47515   0.47515
   1 1   P  1S          0.00000   0.00000   0.00000   0.00000  -0.00000
   2        2S          0.00000   0.00000   0.00000   0.00000  -0.00000
   3        3S          0.00000   0.00000   0.00000   0.00000  -0.00000
   4        4S          0.00000   0.00000   0.00000   0.00000  -0.00000
   5        5S          0.00000   0.00000   0.00000   0.00000   0.00000
   6        6S          0.00000   0.00000   0.00000   0.00000  -0.00000
   7        7PX         0.17945   0.00000   0.00000   0.00000   0.00000
   8        7PY         0.00000   0.00000   0.00000   0.00000   0.00000
   9        7PZ         0.00000   0.00000   0.00000   0.00000   0.00000
  10        8PX        -1.32382   0.00000   0.00000   0.00000   0.00000
  11        8PY         0.00000   0.00000   0.00000   0.00000   0.00000
  12        8PZ         0.00000   0.00000   0.00000   0.00000   0.00000
  13        9PX        -0.08598   0.00000   0.00000   0.00000   0.00000
  14        9PY         0.00000   0.00000   0.00000   0.00000   0.00000
  15        9PZ         0.00000   0.00000   0.00000   0.00000   0.00000
  16       10PX         1.86357   0.00000   0.00000   0.00000   0.00000
  17       10PY         0.00000   0.00000   0.00000   0.00000   0.00000
  18       10PZ         0.00000   0.00000   0.00000   0.00000   0.00000
  19       11PX        -0.78817   0.00000   0.00000   0.00000   0.00000
  20       11PY         0.00000   0.00000   0.00000   0.00000   0.00000
  21       11PZ         0.00000   0.00000   0.00000   0.00000   0.00000
  22       12D 0        0.00000   0.00000   0.00000   0.00000   0.03920
  23       12D+1        0.00000   0.00000   1.13523   0.00000   0.00000
  24       12D-1        0.00000   0.00000   0.00000   1.13523   0.00000
  25       12D+2        0.00000   0.00000   0.00000   0.00000   1.13455
  26       12D-2        0.00000   1.13523   0.00000   0.00000   0.00000
  27       13D 0        0.00000   0.00000   0.00000   0.00000   0.00650
  28       13D+1        0.00000   0.00000   0.18808   0.00000   0.00000
  29       13D-1        0.00000   0.00000   0.00000   0.18808   0.00000
  30       13D+2        0.00000   0.00000   0.00000   0.00000   0.18797
  31       13D-2        0.00000   0.18808   0.00000   0.00000   0.00000
  32       14D 0        0.00000   0.00000   0.00000   0.00000  -0.02874
  33       14D+1        0.00000   0.00000  -0.83211   0.00000   0.00000
  34       14D-1        0.00000   0.00000   0.00000  -0.83211   0.00000
  35       14D+2        0.00000   0.00000   0.00000   0.00000  -0.83162
  36       14D-2        0.00000  -0.83211   0.00000   0.00000   0.00000
  37       15F 0        0.00000   0.00000   0.00000   0.00000   0.00000
  38       15F+1       -0.00000   0.00000   0.00000   0.00000   0.00000
  39       15F-1        0.00000   0.00000   0.00000   0.00000   0.00000
  40       15F+2        0.00000   0.00000   0.00000   0.00000   0.00000
  41       15F-2        0.00000   0.00000   0.00000   0.00000   0.00000
  42       15F+3        0.00000   0.00000   0.00000   0.00000   0.00000
  43       15F-3        0.00000   0.00000   0.00000   0.00000   0.00000
  44       16F 0        0.00000   0.00000   0.00000   0.00000   0.00000
  45       16F+1        0.00000   0.00000   0.00000   0.00000   0.00000
  46       16F-1        0.00000   0.00000   0.00000   0.00000   0.00000
  47       16F+2        0.00000   0.00000   0.00000   0.00000   0.00000
  48       16F-2        0.00000   0.00000   0.00000   0.00000   0.00000
  49       16F+3       -0.00000   0.00000   0.00000   0.00000   0.00000
  50       16F-3        0.00000   0.00000   0.00000   0.00000   0.00000
                          26        27        28        29        30
                        (EG)--V  (A1G)--V  (T2U)--V  (T2U)--V  (T2U)--V
     Eigenvalues --     0.47515   0.48248   0.53532   0.53532   0.53532
   1 1   P  1S         -0.00000  -0.09637   0.00000   0.00000   0.00000
   2        2S         -0.00000  -0.17689   0.00000   0.00000   0.00000
   3        3S         -0.00000  -2.11052   0.00000   0.00000   0.00000
   4        4S         -0.00000  -0.26218   0.00000   0.00000   0.00000
   5        5S          0.00000   3.66741   0.00000   0.00000   0.00000
   6        6S         -0.00000  -1.64208   0.00000   0.00000   0.00000
   7        7PX         0.00000   0.00000   0.00000  -0.00000   0.00000
   8        7PY         0.00000   0.00000   0.00000   0.00000  -0.00000
   9        7PZ         0.00000   0.00000   0.00000   0.00000   0.00000
  10        8PX         0.00000   0.00000   0.00000  -0.00000   0.00000
  11        8PY         0.00000   0.00000   0.00000   0.00000   0.00000
  12        8PZ         0.00000   0.00000   0.00000   0.00000   0.00000
  13        9PX         0.00000   0.00000   0.00000   0.00000   0.00000
  14        9PY         0.00000   0.00000   0.00000   0.00000   0.00000
  15        9PZ         0.00000   0.00000  -0.00000   0.00000   0.00000
  16       10PX         0.00000   0.00000   0.00000   0.00000   0.00000
  17       10PY         0.00000   0.00000   0.00000   0.00000  -0.00000
  18       10PZ         0.00000   0.00000  -0.00000   0.00000   0.00000
  19       11PX         0.00000   0.00000   0.00000  -0.00000   0.00000
  20       11PY         0.00000   0.00000   0.00000   0.00000  -0.00000
  21       11PZ         0.00000   0.00000   0.00000   0.00000   0.00000
  22       12D 0        1.13455  -0.00000   0.00000   0.00000   0.00000
  23       12D+1        0.00000   0.00000   0.00000   0.00000   0.00000
  24       12D-1        0.00000   0.00000   0.00000   0.00000   0.00000
  25       12D+2       -0.03920  -0.00000   0.00000   0.00000   0.00000
  26       12D-2        0.00000   0.00000   0.00000   0.00000   0.00000
  27       13D 0        0.18797  -0.00000   0.00000   0.00000   0.00000
  28       13D+1        0.00000   0.00000   0.00000   0.00000   0.00000
  29       13D-1        0.00000   0.00000   0.00000   0.00000   0.00000
  30       13D+2       -0.00650  -0.00000   0.00000   0.00000   0.00000
  31       13D-2        0.00000   0.00000   0.00000   0.00000   0.00000
  32       14D 0       -0.83162   0.00000   0.00000   0.00000   0.00000
  33       14D+1        0.00000   0.00000   0.00000   0.00000   0.00000
  34       14D-1        0.00000   0.00000   0.00000   0.00000   0.00000
  35       14D+2        0.02874   0.00000   0.00000   0.00000   0.00000
  36       14D-2        0.00000   0.00000   0.00000   0.00000   0.00000
  37       15F 0        0.00000   0.00000   0.00000   0.00000   0.00000
  38       15F+1        0.00000   0.00000   0.00000  -0.07705   0.00000
  39       15F-1        0.00000   0.00000   0.00000   0.00000  -0.07705
  40       15F+2        0.00000   0.00000  -0.09747   0.00000   0.00000
  41       15F-2        0.00000   0.00000   0.00000   0.00000   0.00000
  42       15F+3        0.00000   0.00000   0.00000  -0.05969   0.00000
  43       15F-3        0.00000   0.00000   0.00000   0.00000   0.05969
  44       16F 0        0.00000   0.00000  -0.00002   0.00000   0.00000
  45       16F+1        0.00000   0.00000   0.00000   0.83253   0.00000
  46       16F-1        0.00000   0.00000   0.00000   0.00000   0.83253
  47       16F+2        0.00000   0.00000   1.05314   0.00000   0.00000
  48       16F-2        0.00000   0.00000   0.00000   0.00000   0.00000
  49       16F+3        0.00000   0.00000   0.00000   0.64499   0.00000
  50       16F-3        0.00000   0.00000   0.00000   0.00000  -0.64498
                          31        32        33        34        35
                       (A2U)--V  (T1U)--V  (T1U)--V  (T1U)--V  (T2G)--V
     Eigenvalues --     0.53532   0.53532   0.53532   0.53532   1.42463
   1 1   P  1S          0.00000   0.00000   0.00000   0.00000   0.00000
   2        2S          0.00000   0.00000   0.00000   0.00000   0.00000
   3        3S          0.00000   0.00000   0.00000   0.00000   0.00000
   4        4S          0.00000   0.00000   0.00000   0.00000   0.00000
   5        5S          0.00000   0.00000   0.00000   0.00000   0.00000
   6        6S          0.00000   0.00000   0.00000   0.00000   0.00000
   7        7PX         0.00000   0.00000   0.00000   0.00000   0.00000
   8        7PY         0.00000   0.00000   0.00000  -0.00000   0.00000
   9        7PZ         0.00000   0.00000   0.00000   0.00000   0.00000
  10        8PX         0.00000   0.00000  -0.00000   0.00000   0.00000
  11        8PY         0.00000   0.00000   0.00000   0.00000   0.00000
  12        8PZ         0.00000  -0.00000   0.00000   0.00000   0.00000
  13        9PX         0.00000   0.00000   0.00000   0.00000   0.00000
  14        9PY         0.00000   0.00000   0.00000  -0.00000   0.00000
  15        9PZ         0.00000   0.00000   0.00000   0.00000   0.00000
  16       10PX         0.00000   0.00000   0.00000   0.00000   0.00000
  17       10PY         0.00000   0.00000   0.00000  -0.00000   0.00000
  18       10PZ         0.00000   0.00000   0.00000   0.00000   0.00000
  19       11PX         0.00000   0.00000  -0.00000   0.00000   0.00000
  20       11PY         0.00000   0.00000   0.00000   0.00000   0.00000
  21       11PZ         0.00000  -0.00000   0.00000   0.00000   0.00000
  22       12D 0        0.00000   0.00000   0.00000   0.00000   0.00000
  23       12D+1        0.00000   0.00000   0.00000   0.00000   0.00000
  24       12D-1        0.00000   0.00000   0.00000   0.00000   0.00000
  25       12D+2        0.00000   0.00000   0.00000   0.00000   0.00000
  26       12D-2        0.00000   0.00000   0.00000   0.00000  -1.27025
  27       13D 0        0.00000   0.00000   0.00000   0.00000   0.00000
  28       13D+1        0.00000   0.00000   0.00000   0.00000   0.00000
  29       13D-1        0.00000   0.00000   0.00000   0.00000   0.00000
  30       13D+2        0.00000   0.00000   0.00000   0.00000   0.00000
  31       13D-2        0.00000   0.00000   0.00000   0.00000   1.30870
  32       14D 0        0.00000   0.00000   0.00000   0.00000   0.00000
  33       14D+1        0.00000   0.00000   0.00000   0.00000   0.00000
  34       14D-1        0.00000   0.00000   0.00000   0.00000   0.00000
  35       14D+2        0.00000   0.00000   0.00000   0.00000   0.00000
  36       14D-2        0.00000   0.00000   0.00000   0.00000   0.50324
  37       15F 0        0.00000  -0.09747   0.00000   0.00000   0.00000
  38       15F+1        0.00000   0.00000   0.05969   0.00000   0.00000
  39       15F-1        0.00000   0.00000   0.00000  -0.05969   0.00000
  40       15F+2        0.00000  -0.00000   0.00000   0.00000   0.00000
  41       15F-2       -0.09747   0.00000   0.00000   0.00000   0.00000
  42       15F+3        0.00000   0.00000  -0.07705   0.00000   0.00000
  43       15F-3        0.00000   0.00000   0.00000  -0.07705   0.00000
  44       16F 0        0.00000   1.05314   0.00000   0.00000   0.00000
  45       16F+1        0.00000   0.00000  -0.64499   0.00000   0.00000
  46       16F-1        0.00000   0.00000   0.00000   0.64498   0.00000
  47       16F+2        0.00000   0.00002   0.00000   0.00000   0.00000
  48       16F-2        1.05314   0.00000   0.00000   0.00000   0.00000
  49       16F+3        0.00000   0.00000   0.83253   0.00000   0.00000
  50       16F-3        0.00000   0.00000   0.00000   0.83253   0.00000
                          36        37        38        39        40
                       (T2G)--V  (T2G)--V   (EG)--V   (EG)--V  (T2U)--V
     Eigenvalues --     1.42463   1.42463   1.42463   1.42463   1.67501
   1 1   P  1S          0.00000   0.00000  -0.00000   0.00000   0.00000
   2        2S          0.00000   0.00000   0.00000  -0.00000   0.00000
   3        3S          0.00000   0.00000   0.00000  -0.00000   0.00000
   4        4S          0.00000   0.00000  -0.00000   0.00000   0.00000
   5        5S          0.00000   0.00000   0.00000   0.00000   0.00000
   6        6S          0.00000   0.00000  -0.00000   0.00000   0.00000
   7        7PX         0.00000   0.00000   0.00000   0.00000   0.00000
   8        7PY         0.00000   0.00000   0.00000   0.00000   0.00000
   9        7PZ         0.00000   0.00000   0.00000   0.00000  -0.00000
  10        8PX         0.00000   0.00000   0.00000   0.00000   0.00000
  11        8PY         0.00000   0.00000   0.00000   0.00000   0.00000
  12        8PZ         0.00000   0.00000   0.00000   0.00000  -0.00000
  13        9PX         0.00000   0.00000   0.00000   0.00000   0.00000
  14        9PY         0.00000   0.00000   0.00000   0.00000   0.00000
  15        9PZ         0.00000   0.00000   0.00000   0.00000   0.00000
  16       10PX         0.00000   0.00000   0.00000   0.00000   0.00000
  17       10PY         0.00000   0.00000   0.00000   0.00000   0.00000
  18       10PZ         0.00000   0.00000   0.00000   0.00000   0.00000
  19       11PX         0.00000   0.00000   0.00000   0.00000   0.00000
  20       11PY         0.00000   0.00000   0.00000   0.00000   0.00000
  21       11PZ         0.00000   0.00000   0.00000   0.00000  -0.00000
  22       12D 0        0.00000   0.00000   0.06455  -1.26861   0.00000
  23       12D+1       -1.27025   0.00000   0.00000   0.00000   0.00000
  24       12D-1        0.00000  -1.27025   0.00000   0.00000   0.00000
  25       12D+2        0.00000   0.00000  -1.26861  -0.06455   0.00000
  26       12D-2        0.00000   0.00000   0.00000   0.00000   0.00000
  27       13D 0        0.00000   0.00000  -0.06650   1.30701   0.00000
  28       13D+1        1.30870   0.00000   0.00000   0.00000   0.00000
  29       13D-1        0.00000   1.30870   0.00000   0.00000   0.00000
  30       13D+2        0.00000   0.00000   1.30701   0.06650   0.00000
  31       13D-2        0.00000   0.00000   0.00000   0.00000   0.00000
[...]
  41       15F-2       -0.00000   0.00000   0.00000   0.00000   0.00000
  42       15F+3        0.00000   0.00000   0.00000   0.00000   0.00000
  43       15F-3        0.00000   0.00000   0.00000   0.00000   0.00000
  44       16F 0       -0.00000   0.00000   0.00000   0.00000   0.00000
  45       16F+1       -0.00000   0.00000   0.00000   0.00000   0.00000
  46       16F-1       -0.00000   0.00000   0.00000   0.00000   0.00000
  47       16F+2       -0.00000   0.00000   0.00000   0.00000   0.00000
  48       16F-2       -0.00000   0.00000   0.00000   0.00000   0.00000
  49       16F+3        0.00000   0.00000   0.00000   0.00000   0.00000
  50       16F-3        0.00000   0.00000   0.00000   0.00000   0.00000
                          26        27        28        29        30
  26       12D-2        0.00000
  27       13D 0       -0.00000   0.00000
  28       13D+1       -0.00000  -0.00000   0.00000
  29       13D-1        0.00000  -0.00000  -0.00000   0.00000
  30       13D+2       -0.00000   0.00000  -0.00000   0.00000   0.00000
  31       13D-2       -0.00000  -0.00000   0.00000  -0.00000   0.00000
  32       14D 0        0.00000   0.00000  -0.00000  -0.00000   0.00000
  33       14D+1       -0.00000  -0.00000   0.00000  -0.00000   0.00000
  34       14D-1        0.00000  -0.00000   0.00000   0.00000  -0.00000
  35       14D+2       -0.00000   0.00000   0.00000  -0.00000   0.00000
  36       14D-2       -0.00000  -0.00000   0.00000  -0.00000  -0.00000
  37       15F 0        0.00000   0.00000   0.00000   0.00000   0.00000
  38       15F+1        0.00000   0.00000   0.00000   0.00000   0.00000
  39       15F-1        0.00000   0.00000   0.00000   0.00000   0.00000
  40       15F+2        0.00000   0.00000   0.00000   0.00000   0.00000
  41       15F-2        0.00000   0.00000   0.00000   0.00000   0.00000
  42       15F+3        0.00000   0.00000   0.00000   0.00000   0.00000
  43       15F-3        0.00000   0.00000   0.00000   0.00000   0.00000
  44       16F 0        0.00000   0.00000   0.00000   0.00000   0.00000
  45       16F+1        0.00000   0.00000   0.00000   0.00000   0.00000
  46       16F-1        0.00000   0.00000   0.00000   0.00000   0.00000
  47       16F+2        0.00000   0.00000   0.00000   0.00000   0.00000
  48       16F-2        0.00000   0.00000   0.00000   0.00000   0.00000
  49       16F+3        0.00000   0.00000   0.00000   0.00000   0.00000
  50       16F-3        0.00000   0.00000   0.00000   0.00000   0.00000
                          31        32        33        34        35
  31       13D-2        0.00000
  32       14D 0       -0.00000   0.00000
  33       14D+1        0.00000  -0.00000   0.00000
  34       14D-1        0.00000  -0.00000  -0.00000   0.00000
  35       14D+2       -0.00000   0.00000   0.00000  -0.00000   0.00000
  36       14D-2        0.00000  -0.00000   0.00000   0.00000  -0.00000
  37       15F 0        0.00000   0.00000   0.00000   0.00000   0.00000
  38       15F+1        0.00000   0.00000   0.00000   0.00000   0.00000
  39       15F-1        0.00000   0.00000   0.00000   0.00000   0.00000
  40       15F+2        0.00000   0.00000   0.00000   0.00000   0.00000
  41       15F-2        0.00000   0.00000   0.00000   0.00000   0.00000
  42       15F+3        0.00000   0.00000   0.00000   0.00000   0.00000
  43       15F-3        0.00000   0.00000   0.00000   0.00000   0.00000
  44       16F 0        0.00000   0.00000   0.00000   0.00000   0.00000
  45       16F+1        0.00000   0.00000   0.00000   0.00000   0.00000
  46       16F-1        0.00000   0.00000   0.00000   0.00000   0.00000
  47       16F+2        0.00000   0.00000   0.00000   0.00000   0.00000
  48       16F-2        0.00000   0.00000   0.00000   0.00000   0.00000
  49       16F+3        0.00000   0.00000   0.00000   0.00000   0.00000
  50       16F-3        0.00000   0.00000   0.00000   0.00000   0.00000
                          36        37        38        39        40
  36       14D-2        0.00000
  37       15F 0        0.00000   0.00000
  38       15F+1        0.00000  -0.00000   0.00000
  39       15F-1        0.00000  -0.00000   0.00000   0.00000
  40       15F+2        0.00000   0.00000   0.00000  -0.00000   0.00000
  41       15F-2        0.00000   0.00000   0.00000   0.00000   0.00000
  42       15F+3        0.00000  -0.00000   0.00000  -0.00000   0.00000
  43       15F-3        0.00000  -0.00000  -0.00000   0.00000  -0.00000
  44       16F 0        0.00000   0.00000   0.00000   0.00000   0.00000
  45       16F+1        0.00000   0.00000   0.00000   0.00000  -0.00000
  46       16F-1        0.00000   0.00000   0.00000   0.00000  -0.00000
  47       16F+2        0.00000  -0.00000   0.00000  -0.00000   0.00000
  48       16F-2        0.00000   0.00000   0.00000  -0.00000  -0.00000
  49       16F+3        0.00000  -0.00000  -0.00000  -0.00000   0.00000
  50       16F-3        0.00000  -0.00000  -0.00000  -0.00000  -0.00000
                          41        42        43        44        45
  41       15F-2        0.00000
  42       15F+3        0.00000   0.00000
  43       15F-3       -0.00000  -0.00000   0.00000
  44       16F 0       -0.00000   0.00000  -0.00000   0.00000
  45       16F+1        0.00000  -0.00000  -0.00000  -0.00000   0.00000
  46       16F-1       -0.00000  -0.00000  -0.00000   0.00000  -0.00000
  47       16F+2       -0.00000   0.00000   0.00000   0.00000  -0.00000
  48       16F-2        0.00000  -0.00000  -0.00000   0.00000   0.00000
  49       16F+3        0.00000   0.00000   0.00000   0.00000  -0.00000
  50       16F-3        0.00000  -0.00000   0.00000  -0.00000  -0.00000
                          46        47        48        49        50
  46       16F-1        0.00000
  47       16F+2        0.00000   0.00000
  48       16F-2        0.00000  -0.00000   0.00000
  49       16F+3       -0.00000   0.00000   0.00000   0.00000
  50       16F-3       -0.00000   0.00000  -0.00000   0.00000   0.00000
     Gross orbital populations:
                         Total     Alpha     Beta      Spin
   1 1   P  1S          1.99996   0.99998   0.99998  -0.00000
   2        2S          1.89759   0.94932   0.94827   0.00105
   3        3S          1.16287   0.60826   0.55461   0.05364
   4        4S          0.24329   0.11366   0.12964  -0.01598
   5        5S          0.68884   0.33120   0.35765  -0.02645
   6        6S          0.00744  -0.00241   0.00985  -0.01227
   7        7PX         1.92222   0.96727   0.95495   0.01232
   8        7PY         1.92222   0.96727   0.95495   0.01232
   9        7PZ         1.92222   0.96727   0.95495   0.01232
  10        8PX         0.52304   0.52356  -0.00051   0.52407
  11        8PY         0.52304   0.52356  -0.00051   0.52407
  12        8PZ         0.52304   0.52356  -0.00051   0.52407
  13        9PX         0.19096   0.14546   0.04550   0.09996
  14        9PY         0.19096   0.14546   0.04550   0.09996
  15        9PZ         0.19096   0.14546   0.04550   0.09996
  16       10PX         0.35061   0.35054   0.00007   0.35047
  17       10PY         0.35061   0.35054   0.00007   0.35047
  18       10PZ         0.35061   0.35054   0.00007   0.35047
  19       11PX         0.01317   0.01317  -0.00000   0.01317
  20       11PY         0.01317   0.01317  -0.00000   0.01317
  21       11PZ         0.01317   0.01317  -0.00000   0.01317
  22       12D 0        0.00000   0.00000   0.00000  -0.00000
  23       12D+1        0.00000   0.00000   0.00000  -0.00000
  24       12D-1        0.00000   0.00000   0.00000  -0.00000
  25       12D+2        0.00000   0.00000   0.00000  -0.00000
  26       12D-2        0.00000   0.00000   0.00000  -0.00000
  27       13D 0        0.00000   0.00000   0.00000   0.00000
  28       13D+1        0.00000   0.00000   0.00000   0.00000
  29       13D-1        0.00000   0.00000   0.00000   0.00000
  30       13D+2        0.00000   0.00000   0.00000   0.00000
  31       13D-2        0.00000   0.00000   0.00000   0.00000
  32       14D 0       -0.00000  -0.00000  -0.00000   0.00000
  33       14D+1       -0.00000  -0.00000  -0.00000  -0.00000
  34       14D-1       -0.00000  -0.00000  -0.00000   0.00000
  35       14D+2       -0.00000  -0.00000  -0.00000   0.00000
  36       14D-2       -0.00000  -0.00000  -0.00000  -0.00000
  37       15F 0        0.00000   0.00000   0.00000   0.00000
  38       15F+1        0.00000   0.00000   0.00000   0.00000
  39       15F-1        0.00000   0.00000   0.00000   0.00000
  40       15F+2        0.00000   0.00000   0.00000   0.00000
  41       15F-2        0.00000   0.00000   0.00000   0.00000
  42       15F+3        0.00000   0.00000   0.00000   0.00000
  43       15F-3        0.00000   0.00000   0.00000   0.00000
  44       16F 0        0.00000   0.00000  -0.00000   0.00000
  45       16F+1        0.00000   0.00000  -0.00000   0.00000
  46       16F-1        0.00000   0.00000  -0.00000   0.00000
  47       16F+2        0.00000   0.00000   0.00000   0.00000
  48       16F-2        0.00000   0.00000  -0.00000   0.00000
  49       16F+3        0.00000   0.00000  -0.00000   0.00000
  50       16F-3        0.00000   0.00000  -0.00000   0.00000
          Condensed to atoms (all electrons):
               1
     1  P   15.000000
          Atomic-Atomic Spin Densities.
               1
     1  P    3.000000
 Mulliken charges and spin densities:
               1          2
     1  P   -0.000000   3.000000
 Sum of Mulliken charges =  -0.00000   3.00000
 Mulliken charges and spin densities with hydrogens summed into heavy atoms:
               1          2
     1  P   -0.000000   3.000000
 Electronic spatial extent (au):  <R**2>=             30.2954
 Charge=             -0.0000 electrons
 Dipole moment (field-independent basis, Debye):
    X=              0.0000    Y=              0.0000    Z=              0.0000  Tot=              0.0000
 Quadrupole moment (field-independent basis, Debye-Ang):
   XX=            -13.5828   YY=            -13.5828   ZZ=            -13.5828
   XY=             -0.0000   XZ=             -0.0000   YZ=              0.0000
 Traceless Quadrupole moment (field-independent basis, Debye-Ang):
   XX=             -0.0000   YY=              0.0000   ZZ=              0.0000
   XY=             -0.0000   XZ=             -0.0000   YZ=              0.0000
 Octapole moment (field-independent basis, Debye-Ang**2):
  XXX=              0.0000  YYY=              0.0000  ZZZ=              0.0000  XYY=              0.0000
  XXY=              0.0000  XXZ=              0.0000  XZZ=              0.0000  YZZ=              0.0000
  YYZ=              0.0000  XYZ=              0.0000
 Hexadecapole moment (field-independent basis, Debye-Ang**3):
 XXXX=            -22.5718 YYYY=            -22.5718 ZZZZ=            -22.5718 XXXY=              0.0000
 XXXZ=             -0.0000 YYYX=             -0.0000 YYYZ=              0.0000 ZZZX=              0.0000
 ZZZY=             -0.0000 XXYY=             -7.5239 XXZZ=             -7.5239 YYZZ=             -7.5239
 XXYZ=             -0.0000 YYXZ=             -0.0000 ZZXY=             -0.0000
 N-N= 0.000000000000D+00 E-N=-8.117356961317D+02  KE= 3.402262786798D+02
 Symmetry AG   KE= 2.477214548526D+02
 Symmetry B1G  KE= 1.554909557157D-60
 Symmetry B2G  KE= 1.733110180412D-60
 Symmetry B3G  KE= 1.261665649466D-60
 Symmetry AU   KE= 1.266832127687D-53
 Symmetry B1U  KE= 3.083494127574D+01
 Symmetry B2U  KE= 3.083494127574D+01
 Symmetry B3U  KE= 3.083494127574D+01
 Symmetry AG   SP= 6.029354742947D-15
 Symmetry B1G  SP= 2.989793021318D-61
 Symmetry B2G  SP= 4.277732592755D-61
 Symmetry B3G  SP= 1.658478518349D-61
 Symmetry AU   SP= 9.641206362301D-54
 Symmetry B1U  SP= 1.000000000000D+00
 Symmetry B2U  SP= 1.000000000000D+00
 Symmetry B3U  SP= 1.000000000000D+00
 Orbital energies and kinetic energies (alpha):
                                 1                 2
   1         (A1G)--O        -77.134835        106.167503
   2         (A1G)--O         -6.592411         15.620093
   3         (T1U)--O         -4.756330         14.696178
   4         (T1U)--O         -4.756330         14.696178
   5         (T1U)--O         -4.756330         14.696178
   6         (A1G)--O         -0.600795          2.079894
   7         (T1U)--O         -0.261940          1.450572
   8         (T1U)--O         -0.261940          1.450572
   9         (T1U)--O         -0.261940          1.450572
  10         (A1G)--V          0.017421          0.350546
  11         (T1U)--V          0.044375          0.243800
  12         (T1U)--V          0.044375          0.243800
  13         (T1U)--V          0.044375          0.243800
  14         (T2G)--V          0.111850          0.348863
  15         (T2G)--V          0.111850          0.348863
  16         (T2G)--V          0.111850          0.348863
  17         (EG)--V           0.111850          0.348863
  18         (EG)--V           0.111850          0.348863
  19         (T1U)--V          0.362460          1.330869
  20         (T1U)--V          0.362460          1.330869
  21         (T1U)--V          0.362460          1.330869
  22         (T2G)--V          0.410542          0.999412
  23         (T2G)--V          0.410542          0.999412
  24         (T2G)--V          0.410542          0.999412
  25         (EG)--V           0.410542          0.999412
  26         (EG)--V           0.410542          0.999412
  27         (A1G)--V          0.444933          1.911498
  28         (T2U)--V          0.508713          0.719007
  29         (T2U)--V          0.508713          0.719007
  30         (T2U)--V          0.508713          0.719007
  31         (A2U)--V          0.508713          0.719007
  32         (T1U)--V          0.508713          0.719007
  33         (T1U)--V          0.508713          0.719007
  34         (T1U)--V          0.508713          0.719007
  35         (T2G)--V          1.367667          2.687697
  36         (T2G)--V          1.367667          2.687697
  37         (T2G)--V          1.367667          2.687697
  38         (EG)--V           1.367667          2.687697
  39         (EG)--V           1.367667          2.687697
  40         (T2U)--V          1.600134          2.358516
  41         (T2U)--V          1.600134          2.358516
  42         (T2U)--V          1.600134          2.358516
  43         (A2U)--V          1.600134          2.358516
  44         (T1U)--V          1.600134          2.358516
  45         (T1U)--V          1.600134          2.358516
  46         (T1U)--V          1.600134          2.358516
  47         (T1U)--V          1.929427          7.571396
  48         (T1U)--V          1.929427          7.571396
  49         (T1U)--V          1.929427          7.571396
  50         (A1G)--V          2.956802         10.088100
 Orbital energies and kinetic energies (beta):
                                 1                 2
   1         (A1G)--O        -77.122129        106.174887
   2         (A1G)--O         -6.579318         15.618259
   3         (T1U)--O         -4.736637         14.688191
   4         (T1U)--O         -4.736637         14.688191
   5         (T1U)--O         -4.736637         14.688191
   6         (A1G)--O         -0.484957          2.060818
   7         (T1U)--V         -0.119956          1.191291
   8         (T1U)--V         -0.119956          1.191291
   9         (T1U)--V         -0.119956          1.191291
  10         (A1G)--V          0.028057          0.345125
  11         (T1U)--V          0.055197          0.340433
  12         (T1U)--V          0.055197          0.340433
  13         (T1U)--V          0.055197          0.340433
  14         (T2G)--V          0.137121          0.299172
  15         (T2G)--V          0.137121          0.299172
  16         (T2G)--V          0.137121          0.299172
  17         (EG)--V           0.137121          0.299172
  18         (EG)--V           0.137121          0.299172
  19         (T1U)--V          0.400540          1.479362
  20         (T1U)--V          0.400540          1.479362
  21         (T1U)--V          0.400540          1.479362
  22         (T2G)--V          0.475152          1.021142
  23         (T2G)--V          0.475152          1.021142
  24         (T2G)--V          0.475152          1.021142
  25         (EG)--V           0.475152          1.021142
  26         (EG)--V           0.475152          1.021142
  27         (A1G)--V          0.482480          1.957806
  28         (T2U)--V          0.535319          0.713804
  29         (T2U)--V          0.535319          0.713804
  30         (T2U)--V          0.535319          0.713804
  31         (A2U)--V          0.535319          0.713804
  32         (T1U)--V          0.535319          0.713804
  33         (T1U)--V          0.535319          0.713804
  34         (T1U)--V          0.535319          0.713804
  35         (T2G)--V          1.424628          2.715658
  36         (T2G)--V          1.424628          2.715658
  37         (T2G)--V          1.424628          2.715658
  38         (EG)--V           1.424628          2.715658
  39         (EG)--V           1.424628          2.715658
  40         (T2U)--V          1.675012          2.363719
  41         (T2U)--V          1.675012          2.363719
  42         (T2U)--V          1.675012          2.363719
  43         (A2U)--V          1.675012          2.363719
  44         (T1U)--V          1.675012          2.363719
  45         (T1U)--V          1.675012          2.363719
  46         (T1U)--V          1.675012          2.363719
  47         (T1U)--V          1.974915          7.593538
  48         (T1U)--V          1.974915          7.593538
  49         (T1U)--V          1.974915          7.593538
  50         (A1G)--V          2.991992         10.060741
 Total kinetic energy from orbitals= 3.402262786798D+02
                          Isotropic Fermi Contact Couplings
        Atom                 a.u.       MegaHertz       Gauss      10(-4) cm-1
     1  P(31)              0.07925      47.84607      17.07267      15.95973
 --------------------------------------------------------
       Center         ----  Spin Dipole Couplings  ----
                      3XX-RR        3YY-RR        3ZZ-RR
 --------------------------------------------------------
     1   Atom       -0.000000      0.000000      0.000000
 --------------------------------------------------------
                        XY            XZ            YZ
 --------------------------------------------------------
     1   Atom        0.000000      0.000000      0.000000
 --------------------------------------------------------


 ---------------------------------------------------------------------------------
              Anisotropic Spin Dipole Couplings in Principal Axis System
 ---------------------------------------------------------------------------------

       Atom             a.u.   MegaHertz   Gauss  10(-4) cm-1        Axes

              Baa    -0.0000    -0.000    -0.000    -0.000  1.0000  0.0000  0.0000
     1 P(31)  Bbb     0.0000     0.000     0.000     0.000 -0.0000  1.0000  0.0000
              Bcc     0.0000     0.000     0.000     0.000  0.0000  0.0000  1.0000
 

 ---------------------------------------------------------------------------------

 1\1\GINC-LOGIN\SP\UB3LYP\Aug-CC-pVTZ\P1(4)\C7441090\20-Nov-2023\0\\# B
 3LYP/aug-cc-pVTZ EmpiricalDispersion=GD3 Pop=Full\\Phosphorus\\0,4\P,0
 ,0.,0.,0.\\Version=ES64L-G16RevA.03\State=4-A1G\HF=-341.2862676\S2=3.7
 50592\S2-1=0.\S2A=3.75\RMSD=5.667e-09\Dipole=0.,0.,0.\Quadrupole=0.,0.
 ,0.,0.,0.,0.\PG=OH [O(P1)]\\@


 A BIRD IN THE HAND IS SAFER THAN ONE OVERHEAD.

                       -- NEWTON'S SEVENTH LAW
 Job cpu time:       0 days  0 hours  0 minutes  8.9 seconds.
 Elapsed time:       0 days  0 hours  0 minutes  4.3 seconds.
 File lengths (MBytes):  RWF=      5 Int=      0 D2E=      0 Chk=      1 Scr=      1
 Normal termination of Gaussian 16 at Mon Nov 20 23:53:08 2023.
