Sulphur                                                                 
SP        UB3LYP                                                      Aug-CC-pVTZ         
Number of atoms                            I                1
Info1-9                                    I   N=           9
          12          11           0           0           0         110
           1          18        -502
Full Title                                 C   N=           1
Sulphur     
Route                                      C   N=           5
# B3LYP/aug-cc-pVTZ EmpiricalDispersion=GD3 Pop=Full        
Charge                                     I                0
Multiplicity                               I                3
Number of electrons                        I               16
Number of alpha electrons                  I                9
Number of beta electrons                   I                7
Number of basis functions                  I               50
Number of independent functions            I               50
Number of point charges in /Mol/           I                0
Number of translation vectors              I                0
Atomic numbers                             I   N=           1
          16
Nuclear charges                            R   N=           1
  1.60000000E+01
Current cartesian coordinates              R   N=           3
  0.00000000E+00  0.00000000E+00  0.00000000E+00
Number of symbols in /Mol/                 I                0
Force Field                                I                0
Atom Types                                 C   N=           1
            
Int Atom Types                             I   N=           1
           0
MM charges                                 R   N=           1
  0.00000000E+00
Integer atomic weights                     I   N=           1
          32
Real atomic weights                        R   N=           1
  3.19720718E+01
Atom fragment info                         I   N=           1
           0
Atom residue num                           I   N=           1
           0
Nuclear spins                              I   N=           1
           0
Nuclear ZEff                               R   N=           1
 -1.36000000E+01
Nuclear ZNuc                               R   N=           1
  1.60000000E+01
Nuclear QMom                               R   N=           1
  0.00000000E+00
Nuclear GFac                               R   N=           1
  0.00000000E+00
MicOpt                                     I   N=           1
          -1
Number of residues                         I                0
Number of secondary structures             I                0
SymInf integers                            I   N=          26
           1           8           1           1           1           1
          -1          -1          -1           1          -1          -1
          -1           1          -1          -1          -1          -1
           1           1           1          -1           1           1
           1          -1
RotTr to input orientation                 R   N=          12
  0.00000000E+00  0.00000000E+00 -1.00000000E+00  0.00000000E+00  1.00000000E+00
  0.00000000E+00  1.00000000E+00  0.00000000E+00  0.00000000E+00  0.00000000E+00
  0.00000000E+00  0.00000000E+00
Number of contracted shells                I               16
Number of primitive shells                 I               51
Pure/Cartesian d shells                    I                0
Pure/Cartesian f shells                    I                0
Highest angular momentum                   I                3
Largest degree of contraction              I               11
Shell types                                I   N=          16
           0           0           0           0           0           0
           1           1           1           1           1          -2
          -2          -2          -3          -3
Number of primitives per shell             I   N=          16
          11           9           8           1           1           1
           6           6           1           1           1           1
           1           1           1           1
Shell to atom map                          I   N=          16
           1           1           1           1           1           1
           1           1           1           1           1           1
           1           1           1           1
Primitive exponents                        R   N=          51
  3.74100000E+05  5.60500000E+04  1.27600000E+04  3.61500000E+03  1.18300000E+03
  4.28800000E+02  1.67800000E+02  6.94700000E+01  2.98400000E+01  1.27200000E+01
  5.24400000E+00  3.61500000E+03  1.18300000E+03  4.28800000E+02  1.67800000E+02
  6.94700000E+01  2.98400000E+01  1.27200000E+01  5.24400000E+00  2.21900000E+00
  1.18300000E+03  1.67800000E+02  6.94700000E+01  2.98400000E+01  1.27200000E+01
  5.24400000E+00  2.21900000E+00  3.49000000E-01  7.76700000E-01  1.32200000E-01
  4.97000000E-02  5.74400000E+02  1.35800000E+02  4.31900000E+01  1.58700000E+01
  6.20800000E+00  2.48300000E+00  1.35800000E+02  4.31900000E+01  1.58700000E+01
  6.20800000E+00  2.48300000E+00  3.22900000E-01  8.68800000E-01  1.09800000E-01
  3.51000000E-02  2.69000000E-01  8.19000000E-01  1.01000000E-01  5.57000000E-01
  2.18000000E-01
Contraction coefficients                   R   N=          51
  5.42511323E-05  4.21179031E-04  2.20866009E-03  9.19959875E-03  3.21373519E-02
  9.47451088E-02  2.23832520E-01  3.74815393E-01  3.29692392E-01  8.46665117E-02
 -1.20363136E-03 -6.41786117E-06 -1.90678474E-04 -1.48897313E-03 -1.01537359E-02
 -4.32108613E-02 -1.05199240E-01  3.20468429E-02  5.22521305E-01  5.46558854E-01
  4.30105874E-06  2.11966580E-04  8.52739027E-04  4.41934171E-03 -1.08618138E-03
 -7.36201171E-02 -3.49985171E-01  1.16002239E+00  1.00000000E+00  1.00000000E+00
  1.00000000E+00  2.49501213E-03  1.98555078E-02  9.11795922E-02  2.62230906E-01
  4.46831681E-01  3.65501017E-01 -7.09174868E-06 -1.06583662E-03 -5.91078853E-03
 -2.26881636E-02 -1.07940061E-02  1.00593373E+00  1.00000000E+00  1.00000000E+00
  1.00000000E+00  1.00000000E+00  1.00000000E+00  1.00000000E+00  1.00000000E+00
  1.00000000E+00
Coordinates of each shell                  R   N=          48
  0.00000000E+00  0.00000000E+00  0.00000000E+00  0.00000000E+00  0.00000000E+00
  0.00000000E+00  0.00000000E+00  0.00000000E+00  0.00000000E+00  0.00000000E+00
  0.00000000E+00  0.00000000E+00  0.00000000E+00  0.00000000E+00  0.00000000E+00
  0.00000000E+00  0.00000000E+00  0.00000000E+00  0.00000000E+00  0.00000000E+00
  0.00000000E+00  0.00000000E+00  0.00000000E+00  0.00000000E+00  0.00000000E+00
  0.00000000E+00  0.00000000E+00  0.00000000E+00  0.00000000E+00  0.00000000E+00
  0.00000000E+00  0.00000000E+00  0.00000000E+00  0.00000000E+00  0.00000000E+00
  0.00000000E+00  0.00000000E+00  0.00000000E+00  0.00000000E+00  0.00000000E+00
  0.00000000E+00  0.00000000E+00  0.00000000E+00  0.00000000E+00  0.00000000E+00
  0.00000000E+00  0.00000000E+00  0.00000000E+00
Num ILSW                                   I              100
ILSW                                       I   N=         100
           1           0           0           0           2           0
           0           0           0           0         402          -1
           5           0           0           0           0           0
           0           0           1           0           0           0
           1           0           0           0           0           0
           0           0      100000           0          -1           0
           0           0           0           0           0           0
           0           0           0           1           0           0
           0 -2000000000           1           0           0           0
           0           1         131          52           0           0
           0           0           5           0           0           0
           0           0           0           0           0           1
           0           0           0           0           0           0
           0           0           0           0           0           0
           0           0           0           0           0           0
           0           0           0           0           0           0
           0           0           0           0
Num RLSW                                   I               52
RLSW                                       R   N=          52
  8.00000000E-01  7.20000000E-01  1.00000000E+00  8.10000000E-01  2.00000000E-01
  0.00000000E+00  0.00000000E+00  1.00000000E+00  0.00000000E+00  0.00000000E+00
  0.00000000E+00  0.00000000E+00  1.00000000E+00  0.00000000E+00  0.00000000E+00
  0.00000000E+00  0.00000000E+00  1.00000000E+00  0.00000000E+00  0.00000000E+00
  0.00000000E+00  0.00000000E+00  1.00000000E+00  0.00000000E+00  0.00000000E+00
  0.00000000E+00  0.00000000E+00  1.00000000E+00  0.00000000E+00  0.00000000E+00
  0.00000000E+00  0.00000000E+00  1.00000000E+00  0.00000000E+00  0.00000000E+00
  0.00000000E+00  0.00000000E+00  0.00000000E+00  1.00000000E+00  1.00000000E+00
  0.00000000E+00  1.00000000E+00  0.00000000E+00  0.00000000E+00  0.00000000E+00
  0.00000000E+00  0.00000000E+00  0.00000000E+00  0.00000000E+00  0.00000000E+00
  0.00000000E+00  0.00000000E+00
MxBond                                     I                1
NBond                                      I   N=           1
           0
IBond                                      I   N=           1
           0
RBond                                      R   N=           1
  0.00000000E+00
Virial Ratio                               R      2.002917636749033E+00
SCF Energy                                 R     -3.981393085167437E+02
Total Energy                               R     -3.981393085167437E+02
S**2                                       R      2.004085540314362E+00
S**2 after annihilation                    R      2.000004901090066E+00
RMS Density                                R      7.377088031052172E-09
Job Status                                 I                1
Nuclear derivative order                   I                0
External E-field                           R   N=          35
  0.00000000E+00  0.00000000E+00  0.00000000E+00  0.00000000E+00  0.00000000E+00
  0.00000000E+00  0.00000000E+00  0.00000000E+00  0.00000000E+00  0.00000000E+00
  0.00000000E+00  0.00000000E+00  0.00000000E+00  0.00000000E+00  0.00000000E+00
  0.00000000E+00  0.00000000E+00  0.00000000E+00  0.00000000E+00  0.00000000E+00
  0.00000000E+00  0.00000000E+00  0.00000000E+00  0.00000000E+00  0.00000000E+00
  0.00000000E+00  0.00000000E+00  0.00000000E+00  0.00000000E+00  0.00000000E+00
  0.00000000E+00  0.00000000E+00  0.00000000E+00  0.00000000E+00  0.00000000E+00
IOpCl                                      I                1
IROHF                                      I                0
Alpha Orbital Energies                     R   N=          50
 -8.89526798E+01 -7.99916877E+00 -5.96878161E+00 -5.96878161E+00 -5.94975196E+00
 -7.28021762E-01 -3.37111440E-01 -3.37111440E-01 -2.90033064E-01  2.46442291E-02
  4.81487884E-02  4.81487884E-02  5.15580642E-02  1.41163988E-01  1.41163988E-01
  1.54188940E-01  1.54188940E-01  1.59641387E-01  3.83161889E-01  3.83161889E-01
  4.03618690E-01  5.02389924E-01  5.02389924E-01  5.27228004E-01  5.27228004E-01
  5.37096377E-01  5.61761776E-01  6.64981917E-01  6.64981917E-01  6.77703822E-01
  6.77703822E-01  6.85817106E-01  6.85817106E-01  6.88887532E-01  1.65722829E+00
  1.65722829E+00  1.68621704E+00  1.68621704E+00  1.69669876E+00  1.95185059E+00
  1.95185059E+00  1.98832174E+00  1.98973030E+00  1.98973030E+00  2.01587558E+00
  2.01587558E+00  2.03226442E+00  2.03226442E+00  2.03832684E+00  3.69318456E+00
Beta Orbital Energies                      R   N=          50
 -8.89417337E+01 -7.98819561E+00 -5.94713180E+00 -5.94713180E+00 -5.94332639E+00
 -6.35010666E-01 -2.65239213E-01 -1.79999608E-01 -1.79999608E-01  3.19401222E-02
  5.21261415E-02  5.68554989E-02  5.68554989E-02  1.67807975E-01  1.67807975E-01
  1.71244575E-01  1.73420768E-01  1.73428111E-01  4.11082757E-01  4.18067558E-01
  4.18067558E-01  5.64080796E-01  5.64080796E-01  5.66832956E-01  5.74785559E-01
  5.74791051E-01  5.91789902E-01  6.97028535E-01  6.97028693E-01  6.99586632E-01
  6.99586632E-01  6.99910908E-01  7.00632738E-01  7.00632738E-01  1.72025471E+00
  1.72025471E+00  1.72311328E+00  1.72361326E+00  1.72361522E+00  2.00222528E+00
  2.00448677E+00  2.00448677E+00  2.07123582E+00  2.07123589E+00  2.07257717E+00
  2.07338677E+00  2.07338677E+00  2.07878088E+00  2.07878088E+00  3.72212962E+00
Alpha MO coefficients                      R   N=        2500
  9.99196310E-01  5.43870744E-03  3.00873454E-03 -3.60075187E-03 -1.87328243E-03
  5.97673316E-04  0.00000000E+00  0.00000000E+00  0.00000000E+00  0.00000000E+00
  0.00000000E+00  0.00000000E+00  0.00000000E+00  0.00000000E+00  0.00000000E+00
  0.00000000E+00  0.00000000E+00  0.00000000E+00  0.00000000E+00  0.00000000E+00
  0.00000000E+00  7.33777941E-07  0.00000000E+00  0.00000000E+00  2.65476654E-15
  0.00000000E+00 -8.92358403E-07  0.00000000E+00  0.00000000E+00 -2.62148157E-15
  0.00000000E+00 -2.88550214E-07  0.00000000E+00  0.00000000E+00 -1.10419177E-15
  0.00000000E+00  0.00000000E+00  0.00000000E+00  0.00000000E+00  0.00000000E+00
  0.00000000E+00  0.00000000E+00  0.00000000E+00  0.00000000E+00  0.00000000E+00
  0.00000000E+00  0.00000000E+00  0.00000000E+00  0.00000000E+00  0.00000000E+00
 -2.75850633E-01  9.66497873E-01 -1.95115613E-02  9.64450974E-02  8.55287392E-03
 -2.37819268E-03  0.00000000E+00  0.00000000E+00  0.00000000E+00  0.00000000E+00
  0.00000000E+00  0.00000000E+00  0.00000000E+00  0.00000000E+00  0.00000000E+00
  0.00000000E+00  0.00000000E+00  0.00000000E+00  0.00000000E+00  0.00000000E+00
  0.00000000E+00  5.25022585E-04  0.00000000E+00  0.00000000E+00  1.67784753E-16
  0.00000000E+00 -1.18384625E-03  0.00000000E+00  0.00000000E+00  3.67630394E-17
  0.00000000E+00 -2.12358127E-04  0.00000000E+00  0.00000000E+00 -1.46840435E-16
  0.00000000E+00  0.00000000E+00  0.00000000E+00  0.00000000E+00  0.00000000E+00
  0.00000000E+00  0.00000000E+00  0.00000000E+00  0.00000000E+00  0.00000000E+00
  0.00000000E+00  0.00000000E+00  0.00000000E+00  0.00000000E+00  0.00000000E+00
  0.00000000E+00  0.00000000E+00  0.00000000E+00  0.00000000E+00  0.00000000E+00
  0.00000000E+00  9.67491326E-01  0.00000000E+00  0.00000000E+00 -5.26209801E-03
  0.00000000E+00  0.00000000E+00  6.89882288E-02  0.00000000E+00  0.00000000E+00
  1.69557420E-03  0.00000000E+00  0.00000000E+00 -4.51175090E-04  0.00000000E+00
  0.00000000E+00  0.00000000E+00  0.00000000E+00  0.00000000E+00  0.00000000E+00
  0.00000000E+00  0.00000000E+00  0.00000000E+00  0.00000000E+00  0.00000000E+00
  0.00000000E+00  0.00000000E+00  0.00000000E+00  0.00000000E+00  0.00000000E+00
  0.00000000E+00  0.00000000E+00 -4.82404413E-04  0.00000000E+00  0.00000000E+00
  0.00000000E+00 -2.20992411E-13  0.00000000E+00  0.00000000E+00  2.04620889E-04
  0.00000000E+00  0.00000000E+00  0.00000000E+00  7.97127868E-14  0.00000000E+00
  0.00000000E+00  0.00000000E+00  0.00000000E+00  0.00000000E+00  0.00000000E+00
  0.00000000E+00  0.00000000E+00  9.67491326E-01  0.00000000E+00  0.00000000E+00
 -5.26209801E-03  0.00000000E+00  0.00000000E+00  6.89882288E-02  0.00000000E+00
  0.00000000E+00  1.69557420E-03  0.00000000E+00  0.00000000E+00 -4.51175090E-04
  0.00000000E+00  0.00000000E+00  0.00000000E+00  0.00000000E+00  0.00000000E+00
  0.00000000E+00  0.00000000E+00  0.00000000E+00  0.00000000E+00  0.00000000E+00
  0.00000000E+00  0.00000000E+00  0.00000000E+00  0.00000000E+00  0.00000000E+00
  0.00000000E+00  0.00000000E+00  0.00000000E+00 -4.82404413E-04  0.00000000E+00
  0.00000000E+00  0.00000000E+00  2.19972961E-13  0.00000000E+00  0.00000000E+00
  2.04620889E-04  0.00000000E+00  0.00000000E+00  0.00000000E+00 -7.89981500E-14
  0.00000000E+00  0.00000000E+00  0.00000000E+00  0.00000000E+00  0.00000000E+00
  0.00000000E+00  0.00000000E+00  0.00000000E+00  9.68161148E-01  0.00000000E+00
  0.00000000E+00 -5.00602379E-03  0.00000000E+00  0.00000000E+00  6.75901308E-02
  0.00000000E+00  0.00000000E+00  1.56803010E-03  0.00000000E+00  0.00000000E+00
 -4.11057270E-04  0.00000000E+00  0.00000000E+00  0.00000000E+00  0.00000000E+00
  0.00000000E+00  0.00000000E+00  0.00000000E+00  0.00000000E+00  0.00000000E+00
  0.00000000E+00  0.00000000E+00  0.00000000E+00  0.00000000E+00  0.00000000E+00
  0.00000000E+00 -5.89549894E-04  0.00000000E+00  0.00000000E+00  5.83523879E-16
  0.00000000E+00  0.00000000E+00  0.00000000E+00  2.50514273E-04  0.00000000E+00
  0.00000000E+00  3.20480862E-16  0.00000000E+00  0.00000000E+00  0.00000000E+00
  8.46628662E-02 -3.19779604E-01  6.34225199E-01  9.76389869E-02  3.62920156E-01
  4.66374239E-04  0.00000000E+00  0.00000000E+00  0.00000000E+00  0.00000000E+00
  0.00000000E+00  0.00000000E+00  0.00000000E+00  0.00000000E+00  0.00000000E+00
  0.00000000E+00  0.00000000E+00  0.00000000E+00  0.00000000E+00  0.00000000E+00
  0.00000000E+00 -2.04910994E-02  0.00000000E+00  0.00000000E+00  1.39680474E-15
  0.00000000E+00 -1.84175109E-02  0.00000000E+00  0.00000000E+00 -9.09103728E-16
  0.00000000E+00  2.81952731E-04  0.00000000E+00  0.00000000E+00 -4.93815233E-16
  0.00000000E+00  0.00000000E+00  0.00000000E+00  0.00000000E+00  0.00000000E+00
  0.00000000E+00  0.00000000E+00  0.00000000E+00  0.00000000E+00  0.00000000E+00
  0.00000000E+00  0.00000000E+00  0.00000000E+00  0.00000000E+00  0.00000000E+00
  0.00000000E+00  0.00000000E+00  0.00000000E+00  0.00000000E+00  0.00000000E+00
  0.00000000E+00  0.00000000E+00 -2.62080796E-01  0.00000000E+00  0.00000000E+00
  5.69950305E-01  0.00000000E+00  0.00000000E+00  2.49268464E-01  0.00000000E+00
  0.00000000E+00  3.37788995E-01  0.00000000E+00  0.00000000E+00  1.25725697E-02
  0.00000000E+00  0.00000000E+00  0.00000000E+00  0.00000000E+00  0.00000000E+00
  0.00000000E+00  0.00000000E+00  0.00000000E+00  0.00000000E+00  0.00000000E+00
  0.00000000E+00  0.00000000E+00  0.00000000E+00  0.00000000E+00  0.00000000E+00
  0.00000000E+00  0.00000000E+00  0.00000000E+00 -1.09863104E-02  0.00000000E+00
  0.00000000E+00  0.00000000E+00  1.01120915E-11  0.00000000E+00  0.00000000E+00
 -6.58976029E-03  0.00000000E+00  0.00000000E+00  0.00000000E+00  6.87233600E-12
  0.00000000E+00  0.00000000E+00  0.00000000E+00  0.00000000E+00  0.00000000E+00
  0.00000000E+00 -2.62080796E-01  0.00000000E+00  0.00000000E+00  5.69950305E-01
  0.00000000E+00  0.00000000E+00  2.49268464E-01  0.00000000E+00  0.00000000E+00
  3.37788995E-01  0.00000000E+00  0.00000000E+00  1.25725697E-02  0.00000000E+00
  0.00000000E+00  0.00000000E+00  0.00000000E+00  0.00000000E+00  0.00000000E+00
  0.00000000E+00  0.00000000E+00  0.00000000E+00  0.00000000E+00  0.00000000E+00
  0.00000000E+00  0.00000000E+00  0.00000000E+00  0.00000000E+00  0.00000000E+00
  0.00000000E+00  0.00000000E+00 -1.09863104E-02  0.00000000E+00  0.00000000E+00
  0.00000000E+00 -1.01116778E-11  0.00000000E+00  0.00000000E+00 -6.58976029E-03
  0.00000000E+00  0.00000000E+00  0.00000000E+00 -6.87254745E-12  0.00000000E+00
  0.00000000E+00  0.00000000E+00  0.00000000E+00  0.00000000E+00  0.00000000E+00
  0.00000000E+00  0.00000000E+00  0.00000000E+00 -2.56981422E-01  0.00000000E+00
  0.00000000E+00  5.40465187E-01  0.00000000E+00  0.00000000E+00  2.47291653E-01
  0.00000000E+00  0.00000000E+00  3.65621099E-01  0.00000000E+00  0.00000000E+00
  2.79106054E-02  0.00000000E+00  0.00000000E+00  0.00000000E+00  0.00000000E+00
  0.00000000E+00  0.00000000E+00  0.00000000E+00  0.00000000E+00  0.00000000E+00
  0.00000000E+00  0.00000000E+00  0.00000000E+00  0.00000000E+00  0.00000000E+00
  0.00000000E+00 -1.33212898E-02  0.00000000E+00  0.00000000E+00 -6.14173308E-16
  0.00000000E+00  0.00000000E+00  0.00000000E+00 -9.27984843E-03  0.00000000E+00
  0.00000000E+00  2.16538119E-16  0.00000000E+00  0.00000000E+00  0.00000000E+00
 -2.48967032E-02  1.41876597E-01 -1.30435359E-01 -6.99056857E-02 -1.06748508E+00
  1.70331773E+00  0.00000000E+00  0.00000000E+00  0.00000000E+00  0.00000000E+00
  0.00000000E+00  0.00000000E+00  0.00000000E+00  0.00000000E+00  0.00000000E+00
  0.00000000E+00  0.00000000E+00  0.00000000E+00  0.00000000E+00  0.00000000E+00
  0.00000000E+00  2.46627720E-03  0.00000000E+00  0.00000000E+00 -1.79811878E-15
  0.00000000E+00  6.50075389E-03  0.00000000E+00  0.00000000E+00  2.84951280E-15
  0.00000000E+00 -2.36596428E-02  0.00000000E+00  0.00000000E+00  5.25612163E-15
  0.00000000E+00  0.00000000E+00  0.00000000E+00  0.00000000E+00  0.00000000E+00
  0.00000000E+00  0.00000000E+00  0.00000000E+00  0.00000000E+00  0.00000000E+00
  0.00000000E+00  0.00000000E+00  0.00000000E+00  0.00000000E+00  0.00000000E+00
  0.00000000E+00  0.00000000E+00  0.00000000E+00  0.00000000E+00  0.00000000E+00
  0.00000000E+00  8.04936386E-02  0.00000000E+00  0.00000000E+00 -1.30929839E-01
  0.00000000E+00  0.00000000E+00 -9.96277308E-02  0.00000000E+00  0.00000000E+00
 -3.79310270E-01  0.00000000E+00  0.00000000E+00  1.20404608E+00  0.00000000E+00
  0.00000000E+00  0.00000000E+00  0.00000000E+00  0.00000000E+00  0.00000000E+00
  0.00000000E+00  0.00000000E+00  0.00000000E+00  0.00000000E+00  0.00000000E+00
  0.00000000E+00  0.00000000E+00  0.00000000E+00  0.00000000E+00  0.00000000E+00
  0.00000000E+00  0.00000000E+00  3.59824949E-03  0.00000000E+00  0.00000000E+00
  0.00000000E+00  1.87716955E-12  0.00000000E+00  0.00000000E+00 -1.64965912E-03
  0.00000000E+00  0.00000000E+00  0.00000000E+00  2.94016658E-12  0.00000000E+00
  0.00000000E+00  0.00000000E+00  0.00000000E+00  0.00000000E+00  0.00000000E+00
  0.00000000E+00  0.00000000E+00  8.04936386E-02  0.00000000E+00  0.00000000E+00
 -1.30929839E-01  0.00000000E+00  0.00000000E+00 -9.96277308E-02  0.00000000E+00
  0.00000000E+00 -3.79310270E-01  0.00000000E+00  0.00000000E+00  1.20404608E+00
  0.00000000E+00  0.00000000E+00  0.00000000E+00  0.00000000E+00  0.00000000E+00
  0.00000000E+00  0.00000000E+00  0.00000000E+00  0.00000000E+00  0.00000000E+00
  0.00000000E+00  0.00000000E+00  0.00000000E+00  0.00000000E+00  0.00000000E+00
  0.00000000E+00  0.00000000E+00  0.00000000E+00  3.59824949E-03  0.00000000E+00
  0.00000000E+00  0.00000000E+00 -1.87783826E-12  0.00000000E+00  0.00000000E+00
 -1.64965912E-03  0.00000000E+00  0.00000000E+00  0.00000000E+00 -2.93942786E-12
  0.00000000E+00  0.00000000E+00  0.00000000E+00  0.00000000E+00  0.00000000E+00
  0.00000000E+00  0.00000000E+00  0.00000000E+00  8.36723640E-02  0.00000000E+00
  0.00000000E+00 -1.21535854E-01  0.00000000E+00  0.00000000E+00 -1.03316264E-01
  0.00000000E+00  0.00000000E+00 -4.28763533E-01  0.00000000E+00  0.00000000E+00
  1.22153910E+00  0.00000000E+00  0.00000000E+00  0.00000000E+00  0.00000000E+00
  0.00000000E+00  0.00000000E+00  0.00000000E+00  0.00000000E+00  0.00000000E+00
  0.00000000E+00  0.00000000E+00  0.00000000E+00  0.00000000E+00  0.00000000E+00
  0.00000000E+00  4.80272043E-03  0.00000000E+00  0.00000000E+00  2.50489267E-16
  0.00000000E+00  0.00000000E+00  0.00000000E+00 -1.95004176E-03  0.00000000E+00
  0.00000000E+00 -2.06712273E-16  0.00000000E+00  0.00000000E+00  0.00000000E+00
  0.00000000E+00  0.00000000E+00  0.00000000E+00  0.00000000E+00  0.00000000E+00
  0.00000000E+00  0.00000000E+00  0.00000000E+00  0.00000000E+00  0.00000000E+00
  0.00000000E+00  0.00000000E+00  0.00000000E+00  0.00000000E+00  0.00000000E+00
  0.00000000E+00  0.00000000E+00  0.00000000E+00  0.00000000E+00  0.00000000E+00
  0.00000000E+00  0.00000000E+00  0.00000000E+00  0.00000000E+00  0.00000000E+00
  1.01188555E-01  0.00000000E+00  0.00000000E+00  0.00000000E+00  0.00000000E+00
  1.60252766E-01  0.00000000E+00  0.00000000E+00  0.00000000E+00  0.00000000E+00
  8.78426298E-01  0.00000000E+00  0.00000000E+00  0.00000000E+00  0.00000000E+00
  0.00000000E+00  0.00000000E+00  0.00000000E+00  0.00000000E+00  0.00000000E+00
  0.00000000E+00  0.00000000E+00  0.00000000E+00  0.00000000E+00  0.00000000E+00
  7.54568420E-17  4.26531595E-17  1.03839338E-15 -4.92806213E-16  4.99677814E-15
 -9.20945676E-15  0.00000000E+00  0.00000000E+00  0.00000000E+00  0.00000000E+00
  0.00000000E+00  0.00000000E+00  0.00000000E+00  0.00000000E+00  0.00000000E+00
  0.00000000E+00  0.00000000E+00  0.00000000E+00  0.00000000E+00  0.00000000E+00
  0.00000000E+00 -2.81366683E-15  0.00000000E+00  0.00000000E+00  1.01188554E-01
  0.00000000E+00 -5.98678834E-15  0.00000000E+00  0.00000000E+00  1.60252766E-01
  0.00000000E+00 -3.68599826E-14  0.00000000E+00  0.00000000E+00  8.78426298E-01
  0.00000000E+00  0.00000000E+00  0.00000000E+00  0.00000000E+00  0.00000000E+00
  0.00000000E+00  0.00000000E+00  0.00000000E+00  0.00000000E+00  0.00000000E+00
  0.00000000E+00  0.00000000E+00  0.00000000E+00  0.00000000E+00  0.00000000E+00
  0.00000000E+00  0.00000000E+00  0.00000000E+00  0.00000000E+00  0.00000000E+00
  0.00000000E+00  0.00000000E+00  0.00000000E+00  0.00000000E+00  0.00000000E+00
  0.00000000E+00  0.00000000E+00  0.00000000E+00  0.00000000E+00  0.00000000E+00
  0.00000000E+00  0.00000000E+00  0.00000000E+00  0.00000000E+00  0.00000000E+00
  0.00000000E+00  0.00000000E+00  0.00000000E+00  6.09990101E-02  0.00000000E+00
  0.00000000E+00  0.00000000E+00  0.00000000E+00  1.51422793E-01  0.00000000E+00
  0.00000000E+00  0.00000000E+00  0.00000000E+00  9.13487853E-01  0.00000000E+00
  0.00000000E+00  0.00000000E+00  0.00000000E+00  0.00000000E+00  0.00000000E+00
  0.00000000E+00  0.00000000E+00  0.00000000E+00  0.00000000E+00  0.00000000E+00
  0.00000000E+00  0.00000000E+00  0.00000000E+00  0.00000000E+00  0.00000000E+00
  0.00000000E+00  0.00000000E+00  0.00000000E+00  0.00000000E+00  0.00000000E+00
  0.00000000E+00  0.00000000E+00  0.00000000E+00  0.00000000E+00  0.00000000E+00
  0.00000000E+00  0.00000000E+00  0.00000000E+00  0.00000000E+00  0.00000000E+00
  0.00000000E+00  0.00000000E+00  0.00000000E+00  0.00000000E+00  0.00000000E+00
  0.00000000E+00  0.00000000E+00  6.09990101E-02  0.00000000E+00  0.00000000E+00
  0.00000000E+00  0.00000000E+00  1.51422793E-01  0.00000000E+00  0.00000000E+00
  0.00000000E+00  0.00000000E+00  9.13487853E-01  0.00000000E+00  0.00000000E+00
  0.00000000E+00  0.00000000E+00  0.00000000E+00  0.00000000E+00  0.00000000E+00
  0.00000000E+00  0.00000000E+00  0.00000000E+00  0.00000000E+00  0.00000000E+00
  0.00000000E+00  0.00000000E+00  0.00000000E+00  0.00000000E+00  0.00000000E+00
  2.75547048E-03 -3.33809186E-03  3.82406654E-02  7.19207805E-03 -6.24182148E-02
  5.51412596E-02  0.00000000E+00  0.00000000E+00  0.00000000E+00  0.00000000E+00
  0.00000000E+00  0.00000000E+00  0.00000000E+00  0.00000000E+00  0.00000000E+00
  0.00000000E+00  0.00000000E+00  0.00000000E+00  0.00000000E+00  0.00000000E+00
  0.00000000E+00  4.85067352E-02  0.00000000E+00  0.00000000E+00  1.77270724E-15
  0.00000000E+00  1.48011335E-01  0.00000000E+00  0.00000000E+00  8.15611498E-15
  0.00000000E+00  9.23818564E-01  0.00000000E+00  0.00000000E+00  3.83559920E-14
  0.00000000E+00  0.00000000E+00  0.00000000E+00  0.00000000E+00  0.00000000E+00
  0.00000000E+00  0.00000000E+00  0.00000000E+00  0.00000000E+00  0.00000000E+00
  0.00000000E+00  0.00000000E+00  0.00000000E+00  0.00000000E+00  0.00000000E+00
  0.00000000E+00  0.00000000E+00  0.00000000E+00  0.00000000E+00  0.00000000E+00
  0.00000000E+00  0.00000000E+00  1.56434906E-01  0.00000000E+00  0.00000000E+00
 -1.18833400E+00  0.00000000E+00  0.00000000E+00 -1.05954794E-01  0.00000000E+00
  0.00000000E+00  1.93929626E+00  0.00000000E+00  0.00000000E+00 -8.80007737E-01
  0.00000000E+00  0.00000000E+00  0.00000000E+00  0.00000000E+00  0.00000000E+00
  0.00000000E+00  0.00000000E+00  0.00000000E+00  0.00000000E+00  0.00000000E+00
  0.00000000E+00  0.00000000E+00  0.00000000E+00  0.00000000E+00  0.00000000E+00
  0.00000000E+00  0.00000000E+00  0.00000000E+00  1.01731652E-02  0.00000000E+00
  0.00000000E+00  0.00000000E+00 -8.90168796E-12  0.00000000E+00  0.00000000E+00
 -1.96759540E-02  0.00000000E+00  0.00000000E+00  0.00000000E+00  2.01691823E-11
  0.00000000E+00  0.00000000E+00  0.00000000E+00  0.00000000E+00  0.00000000E+00
  0.00000000E+00  1.56434906E-01  0.00000000E+00  0.00000000E+00 -1.18833400E+00
  0.00000000E+00  0.00000000E+00 -1.05954794E-01  0.00000000E+00  0.00000000E+00
  1.93929626E+00  0.00000000E+00  0.00000000E+00 -8.80007737E-01  0.00000000E+00
  0.00000000E+00  0.00000000E+00  0.00000000E+00  0.00000000E+00  0.00000000E+00
  0.00000000E+00  0.00000000E+00  0.00000000E+00  0.00000000E+00  0.00000000E+00
  0.00000000E+00  0.00000000E+00  0.00000000E+00  0.00000000E+00  0.00000000E+00
  0.00000000E+00  0.00000000E+00  1.01731652E-02  0.00000000E+00  0.00000000E+00
  0.00000000E+00  8.90196837E-12  0.00000000E+00  0.00000000E+00 -1.96759540E-02
  0.00000000E+00  0.00000000E+00  0.00000000E+00 -2.01677997E-11  0.00000000E+00
  0.00000000E+00  0.00000000E+00  0.00000000E+00  0.00000000E+00  0.00000000E+00
  0.00000000E+00  0.00000000E+00  0.00000000E+00  1.59115832E-01  0.00000000E+00
  0.00000000E+00 -1.21360328E+00  0.00000000E+00  0.00000000E+00 -1.02125139E-01
  0.00000000E+00  0.00000000E+00  1.93016697E+00  0.00000000E+00  0.00000000E+00
 -8.56881073E-01  0.00000000E+00  0.00000000E+00  0.00000000E+00  0.00000000E+00
  0.00000000E+00  0.00000000E+00  0.00000000E+00  0.00000000E+00  0.00000000E+00
  0.00000000E+00  0.00000000E+00  0.00000000E+00  0.00000000E+00  0.00000000E+00
  0.00000000E+00  1.35301677E-02  0.00000000E+00  0.00000000E+00 -4.03842816E-16
  0.00000000E+00  0.00000000E+00  0.00000000E+00 -2.63122077E-02  0.00000000E+00
  0.00000000E+00  3.46578984E-16  0.00000000E+00  0.00000000E+00  0.00000000E+00
  0.00000000E+00  0.00000000E+00  0.00000000E+00  0.00000000E+00  0.00000000E+00
  0.00000000E+00  0.00000000E+00  0.00000000E+00  0.00000000E+00  0.00000000E+00