 Entering Gaussian System, Link 0=g16
 Input=S.com
 Output=S.log
 Initial command:
 /usr/site/hpc/x86_64/glibc-2.17/broadwell/gaussian/g16_a.03/pgi-16.5/g16/l1.exe "/home/c744/c7441090/data/Gau-3860003.inp" -scrdir="/home/c744/c7441090/data/"
 Entering Link 1 = /usr/site/hpc/x86_64/glibc-2.17/broadwell/gaussian/g16_a.03/pgi-16.5/g16/l1.exe PID=   3860004.
  
 Copyright (c) 1988,1990,1992,1993,1995,1998,2003,2009,2016,
            Gaussian, Inc.  All Rights Reserved.
  
 This is part of the Gaussian(R) 16 program.  It is based on
 the Gaussian(R) 09 system (copyright 2009, Gaussian, Inc.),
 the Gaussian(R) 03 system (copyright 2003, Gaussian, Inc.),
 the Gaussian(R) 98 system (copyright 1998, Gaussian, Inc.),
 the Gaussian(R) 94 system (copyright 1995, Gaussian, Inc.),
 the Gaussian 92(TM) system (copyright 1992, Gaussian, Inc.),
 the Gaussian 90(TM) system (copyright 1990, Gaussian, Inc.),
 the Gaussian 88(TM) system (copyright 1988, Gaussian, Inc.),
 the Gaussian 86(TM) system (copyright 1986, Carnegie Mellon
 University), and the Gaussian 82(TM) system (copyright 1983,
 Carnegie Mellon University). Gaussian is a federally registered
 trademark of Gaussian, Inc.
  
 This software contains proprietary and confidential information,
 including trade secrets, belonging to Gaussian, Inc.
  
 This software is provided under written license and may be
 used, copied, transmitted, or stored only in accord with that
 written license.
  
 The following legend is applicable only to US Government
 contracts under FAR:
  
                    RESTRICTED RIGHTS LEGEND
  
 Use, reproduction and disclosure by the US Government is
 subject to restrictions as set forth in subparagraphs (a)
 and (c) of the Commercial Computer Software - Restricted
 Rights clause in FAR 52.227-19.
  
 Gaussian, Inc.
 340 Quinnipiac St., Bldg. 40, Wallingford CT 06492
  
  
 ---------------------------------------------------------------
 Warning -- This program may not be used in any manner that
 competes with the business of Gaussian, Inc. or will provide
 assistance to any competitor of Gaussian, Inc.  The licensee
 of this program is prohibited from giving any competitor of
 Gaussian, Inc. access to this program.  By using this program,
 the user acknowledges that Gaussian, Inc. is engaged in the
 business of creating and licensing software in the field of
 computational chemistry and represents and warrants to the
 licensee that it is not a competitor of Gaussian, Inc. and that
 it will not use this program in any manner prohibited above.
 ---------------------------------------------------------------
  

 Cite this work as:
 Gaussian 16, Revision A.03,
 M. J. Frisch, G. W. Trucks, H. B. Schlegel, G. E. Scuseria, 
 M. A. Robb, J. R. Cheeseman, G. Scalmani, V. Barone, 
 G. A. Petersson, H. Nakatsuji, X. Li, M. Caricato, A. V. Marenich, 
 J. Bloino, B. G. Janesko, R. Gomperts, B. Mennucci, H. P. Hratchian, 
 J. V. Ortiz, A. F. Izmaylov, J. L. Sonnenberg, D. Williams-Young, 
 F. Ding, F. Lipparini, F. Egidi, J. Goings, B. Peng, A. Petrone, 
 T. Henderson, D. Ranasinghe, V. G. Zakrzewski, J. Gao, N. Rega, 
 G. Zheng, W. Liang, M. Hada, M. Ehara, K. Toyota, R. Fukuda, 
 J. Hasegawa, M. Ishida, T. Nakajima, Y. Honda, O. Kitao, H. Nakai, 
 T. Vreven, K. Throssell, J. A. Montgomery, Jr., J. E. Peralta, 
 F. Ogliaro, M. J. Bearpark, J. J. Heyd, E. N. Brothers, K. N. Kudin, 
 V. N. Staroverov, T. A. Keith, R. Kobayashi, J. Normand, 
 K. Raghavachari, A. P. Rendell, J. C. Burant, S. S. Iyengar, 
 J. Tomasi, M. Cossi, J. M. Millam, M. Klene, C. Adamo, R. Cammi, 
 J. W. Ochterski, R. L. Martin, K. Morokuma, O. Farkas, 
 J. B. Foresman, and D. J. Fox, Gaussian, Inc., Wallingford CT, 2016.
 
 ******************************************
 Gaussian 16:  ES64L-G16RevA.03 25-Dec-2016
                20-Nov-2023 
 ******************************************
 %NProcShared=4
 Will use up to    4 processors via shared memory.
 %Mem=1GB
 %Chk=S.chk
 ----------------------------------------------------
 # B3LYP/aug-cc-pVTZ EmpiricalDispersion=GD3 Pop=Full
 ----------------------------------------------------
 1/38=1,172=1/1;
 2/12=2,17=6,18=5,40=1/2;
 3/5=16,6=1,7=10,11=2,25=1,30=1,74=-5,124=31/1,2,3;
 4//1;
 5/5=2,38=5/2;
 6/7=3,28=1/1;
 99/5=1,9=1/99;
 -------
 Sulphur
 -------
 Symbolic Z-matrix:
 Charge =  0 Multiplicity = 3
 S                     0.        0.        0. 
 
                          Input orientation:                          
 ---------------------------------------------------------------------
 Center     Atomic      Atomic             Coordinates (Angstroms)
 Number     Number       Type             X           Y           Z
 ---------------------------------------------------------------------
      1         16           0        0.000000    0.000000    0.000000
 ---------------------------------------------------------------------
 Stoichiometry    S(3)
 Framework group  OH[O(S)]
 Deg. of freedom     0
 Full point group                 OH      NOp  48
 Largest Abelian subgroup         D2H     NOp   8
 Largest concise Abelian subgroup C1      NOp   1
                         Standard orientation:                         
 ---------------------------------------------------------------------
 Center     Atomic      Atomic             Coordinates (Angstroms)
 Number     Number       Type             X           Y           Z
 ---------------------------------------------------------------------
      1         16           0        0.000000    0.000000    0.000000
 ---------------------------------------------------------------------
 Standard basis: Aug-CC-pVTZ (5D, 7F)
 There are    15 symmetry adapted cartesian basis functions of AG  symmetry.
 There are     3 symmetry adapted cartesian basis functions of B1G symmetry.
 There are     3 symmetry adapted cartesian basis functions of B2G symmetry.
 There are     3 symmetry adapted cartesian basis functions of B3G symmetry.
 There are     2 symmetry adapted cartesian basis functions of AU  symmetry.
 There are    11 symmetry adapted cartesian basis functions of B1U symmetry.
 There are    11 symmetry adapted cartesian basis functions of B2U symmetry.
 There are    11 symmetry adapted cartesian basis functions of B3U symmetry.
 There are    12 symmetry adapted basis functions of AG  symmetry.
 There are     3 symmetry adapted basis functions of B1G symmetry.
 There are     3 symmetry adapted basis functions of B2G symmetry.
 There are     3 symmetry adapted basis functions of B3G symmetry.
 There are     2 symmetry adapted basis functions of AU  symmetry.
 There are     9 symmetry adapted basis functions of B1U symmetry.
 There are     9 symmetry adapted basis functions of B2U symmetry.
 There are     9 symmetry adapted basis functions of B3U symmetry.
    50 basis functions,   114 primitive gaussians,    59 cartesian basis functions
     9 alpha electrons        7 beta electrons
       nuclear repulsion energy         0.0000000000 Hartrees.
 NAtoms=    1 NActive=    1 NUniq=    1 SFac= 1.00D+00 NAtFMM=   60 NAOKFM=F Big=F
 Integral buffers will be    131072 words long.
 Raffenetti 2 integral format.
 Two-electron integral symmetry is turned on.
 Nuclear repulsion after empirical dispersion term =        0.0000000000 Hartrees.
 One-electron integrals computed using PRISM.
 NBasis=    50 RedAO= T EigKep=  1.59D-02  NBF=    12     3     3     3     2     9     9     9
 NBsUse=    50 1.00D-06 EigRej= -1.00D+00 NBFU=    12     3     3     3     2     9     9     9
 ExpMin= 3.51D-02 ExpMax= 3.74D+05 ExpMxC= 1.18D+03 IAcc=3 IRadAn=         5 AccDes= 0.00D+00
 Harris functional with IExCor=  402 and IRadAn=       5 diagonalized for initial guess.
 HarFok:  IExCor=  402 AccDes= 0.00D+00 IRadAn=         5 IDoV= 1 UseB2=F ITyADJ=14
 ICtDFT=  3500011 ScaDFX=  1.000000  1.000000  1.000000  1.000000
 FoFCou: FMM=F IPFlag=           0 FMFlag=      100000 FMFlg1=           0
         NFxFlg=           0 DoJE=T BraDBF=F KetDBF=T FulRan=T
         wScrn=  0.000000 ICntrl=       500 IOpCl=  0 I1Cent=   200000004 NGrid=           0
         NMat0=    1 NMatS0=      1 NMatT0=    0 NMatD0=    1 NMtDS0=    0 NMtDT0=    0
 Petite list used in FoFCou.
 Initial guess orbital symmetries:
 Alpha Orbitals:
       Occupied  (A1G) (A1G) (T1U) (T1U) (T1U) (A1G) (T1U) (T1U)
                 (T1U)
       Virtual   (A1G) (T1U) (T1U) (T1U) (T2G) (T2G) (T2G) (EG)
                 (EG) (T1U) (T1U) (T1U) (T2G) (T2G) (T2G) (EG)
                 (EG) (A1G) (T2U) (T2U) (T2U) (A2U) (T1U) (T1U)
                 (T1U) (T2G) (T2G) (T2G) (EG) (EG) (T1U) (T1U)
                 (T1U) (T2U) (T2U) (T2U) (A2U) (T1U) (T1U) (T1U)
                 (A1G)
 Beta  Orbitals:
       Occupied  (A1G) (A1G) (T1U) (T1U) (T1U) (A1G) (T1U)
       Virtual   (T1U) (T1U) (A1G) (T1U) (T1U) (T1U) (T2G) (T2G)
                 (T2G) (EG) (EG) (T1U) (T1U) (T1U) (T2G) (T2G)
                 (T2G) (EG) (EG) (A1G) (T2U) (T2U) (T2U) (A2U)
                 (T1U) (T1U) (T1U) (T2G) (T2G) (T2G) (EG) (EG)
                 (T1U) (T1U) (T1U) (T2U) (T2U) (T2U) (A2U) (T1U)
                 (T1U) (T1U) (A1G)
 Initial guess <Sx>= 0.0000 <Sy>= 0.0000 <Sz>= 1.0000 <S**2>= 2.0000 S= 1.0000
 Keep R1 and R2 ints in memory in symmetry-blocked form, NReq=4341620.
 Requested convergence on RMS density matrix=1.00D-08 within 128 cycles.
 Requested convergence on MAX density matrix=1.00D-06.
 Requested convergence on             energy=1.00D-06.
 No special actions if energy rises.
 Density matrix breaks symmetry, PCut= 1.00D-04
 Density has only Abelian symmetry.
 Density matrix breaks symmetry, PCut= 1.00D-04
 Density has only Abelian symmetry.
 Density matrix breaks symmetry, PCut= 1.00D-04
 Density has only Abelian symmetry.
 Density matrix breaks symmetry, PCut= 1.00D-04
 Density has only Abelian symmetry.
 Density matrix breaks symmetry, PCut= 1.00D-04
 Density has only Abelian symmetry.
 Density matrix breaks symmetry, PCut= 1.00D-04
 Density has only Abelian symmetry.
 Density matrix breaks symmetry, PCut= 1.00D-04
 Density has only Abelian symmetry.
 Density matrix breaks symmetry, PCut= 1.00D-04
 Density has only Abelian symmetry.
 Density matrix breaks symmetry, PCut= 1.00D-04
 Density has only Abelian symmetry.
 SCF Done:  E(UB3LYP) =  -398.139308517     A.U. after    8 cycles
            NFock=  8  Conv=0.74D-08     -V/T= 2.0029
 <Sx>= 0.0000 <Sy>= 0.0000 <Sz>= 1.0000 <S**2>= 2.0041 S= 1.0014
 <L.S>= 0.000000000000E+00
 Annihilation of the first spin contaminant:
 S**2 before annihilation     2.0041,   after     2.0000
 SCF density gives NOpUse=  8 NOpAll= 48.

 **********************************************************************

            Population analysis using the SCF density.

 **********************************************************************

 Orbital symmetries:
 Alpha Orbitals:
       Occupied  (A1G) (A1G) (T1U) (T1U) (T1U) (?A) (?B) (?B) (?B)
       Virtual   (?A) (?B) (?B) (?B) (?C) (?A) (?C) (?C) (?A) (?B)
                 (?B) (?B) (?C) (?A) (?C) (?C) (?A) (?A) (?B) (?B)
                 (?B) (A2U) (?B) (?B) (?B) (T2G) (?A) (T2G) (T2G)
                 (?A) (?B) (?B) (?B) (?B) (?B) (?B) (A2U) (?B)
                 (?B) (?B) (A1G)
 Beta  Orbitals:
       Occupied  (A1G) (A1G) (T1U) (T1U) (T1U) (?A) (?B)
       Virtual   (?B) (?B) (A1G) (?B) (?B) (?B) (?A) (?A) (?A)
                 (?A) (?A) (?B) (?B) (?B) (?A) (?A) (?A) (?A) (?A)
                 (?A) (?B) (A2U) (?B) (?B) (?B) (?B) (?B) (T2G)
                 (T2G) (EG) (T2G) (EG) (?C) (?C) (?C) (?C) (A2U)
                 (?C) (?C) (?C) (?C) (?C) (A1G)
 Unable to determine electronic state:  an orbital has unidentified symmetry.
 Alpha  occ. eigenvalues --  -88.95268  -7.99917  -5.96878  -5.96878  -5.94975
 Alpha  occ. eigenvalues --   -0.72802  -0.33711  -0.33711  -0.29003
 Alpha virt. eigenvalues --    0.02464   0.04815   0.04815   0.05156   0.14116
 Alpha virt. eigenvalues --    0.14116   0.15419   0.15419   0.15964   0.38316
 Alpha virt. eigenvalues --    0.38316   0.40362   0.50239   0.50239   0.52723
 Alpha virt. eigenvalues --    0.52723   0.53710   0.56176   0.66498   0.66498
 Alpha virt. eigenvalues --    0.67770   0.67770   0.68582   0.68582   0.68889
 Alpha virt. eigenvalues --    1.65723   1.65723   1.68622   1.68622   1.69670
 Alpha virt. eigenvalues --    1.95185   1.95185   1.98832   1.98973   1.98973
 Alpha virt. eigenvalues --    2.01588   2.01588   2.03226   2.03226   2.03833
 Alpha virt. eigenvalues --    3.69318
  Beta  occ. eigenvalues --  -88.94173  -7.98820  -5.94713  -5.94713  -5.94333
  Beta  occ. eigenvalues --   -0.63501  -0.26524
  Beta virt. eigenvalues --   -0.18000  -0.18000   0.03194   0.05213   0.05686
  Beta virt. eigenvalues --    0.05686   0.16781   0.16781   0.17124   0.17342
  Beta virt. eigenvalues --    0.17343   0.41108   0.41807   0.41807   0.56408
  Beta virt. eigenvalues --    0.56408   0.56683   0.57479   0.57479   0.59179
  Beta virt. eigenvalues --    0.69703   0.69703   0.69959   0.69959   0.69991
  Beta virt. eigenvalues --    0.70063   0.70063   1.72025   1.72025   1.72311
  Beta virt. eigenvalues --    1.72361   1.72362   2.00223   2.00449   2.00449
  Beta virt. eigenvalues --    2.07124   2.07124   2.07258   2.07339   2.07339
  Beta virt. eigenvalues --    2.07878   2.07878   3.72213
     Alpha Molecular Orbital Coefficients:
                           1         2         3         4         5
                       (A1G)--O  (A1G)--O  (T1U)--O  (T1U)--O  (T1U)--O
     Eigenvalues --   -88.95268  -7.99917  -5.96878  -5.96878  -5.94975
   1 1   S  1S          0.99920  -0.27585   0.00000   0.00000   0.00000
   2        2S          0.00544   0.96650   0.00000   0.00000   0.00000
   3        3S          0.00301  -0.01951   0.00000   0.00000   0.00000
   4        4S         -0.00360   0.09645   0.00000   0.00000   0.00000
   5        5S         -0.00187   0.00855   0.00000   0.00000   0.00000
   6        6S          0.00060  -0.00238   0.00000   0.00000   0.00000
   7        7PX         0.00000   0.00000   0.96749   0.00000   0.00000
   8        7PY         0.00000   0.00000   0.00000   0.96749   0.00000
   9        7PZ         0.00000   0.00000   0.00000   0.00000   0.96816
  10        8PX         0.00000   0.00000  -0.00526   0.00000   0.00000
  11        8PY         0.00000   0.00000   0.00000  -0.00526   0.00000
  12        8PZ         0.00000   0.00000   0.00000   0.00000  -0.00501
  13        9PX         0.00000   0.00000   0.06899   0.00000   0.00000
  14        9PY         0.00000   0.00000   0.00000   0.06899   0.00000
  15        9PZ         0.00000   0.00000   0.00000   0.00000   0.06759
  16       10PX         0.00000   0.00000   0.00170   0.00000   0.00000
  17       10PY         0.00000   0.00000   0.00000   0.00170   0.00000
  18       10PZ         0.00000   0.00000   0.00000   0.00000   0.00157
  19       11PX         0.00000   0.00000  -0.00045   0.00000   0.00000
  20       11PY         0.00000   0.00000   0.00000  -0.00045   0.00000
  21       11PZ         0.00000   0.00000   0.00000   0.00000  -0.00041
  22       12D 0        0.00000   0.00053   0.00000   0.00000   0.00000
  23       12D+1        0.00000   0.00000   0.00000   0.00000   0.00000
  24       12D-1        0.00000   0.00000   0.00000   0.00000   0.00000
  25       12D+2        0.00000   0.00000   0.00000   0.00000   0.00000
  26       12D-2        0.00000   0.00000   0.00000   0.00000   0.00000
  27       13D 0       -0.00000  -0.00118   0.00000   0.00000   0.00000
  28       13D+1        0.00000   0.00000   0.00000   0.00000   0.00000
  29       13D-1        0.00000   0.00000   0.00000   0.00000   0.00000
  30       13D+2       -0.00000   0.00000   0.00000   0.00000   0.00000
  31       13D-2        0.00000   0.00000   0.00000   0.00000   0.00000
  32       14D 0       -0.00000  -0.00021   0.00000   0.00000   0.00000
  33       14D+1        0.00000   0.00000   0.00000   0.00000   0.00000
  34       14D-1        0.00000   0.00000   0.00000   0.00000   0.00000
  35       14D+2       -0.00000  -0.00000   0.00000   0.00000   0.00000
  36       14D-2        0.00000   0.00000   0.00000   0.00000   0.00000
  37       15F 0        0.00000   0.00000   0.00000   0.00000  -0.00059
  38       15F+1        0.00000   0.00000  -0.00048   0.00000   0.00000
  39       15F-1        0.00000   0.00000   0.00000  -0.00048   0.00000
  40       15F+2        0.00000   0.00000   0.00000   0.00000   0.00000
  41       15F-2        0.00000   0.00000   0.00000   0.00000   0.00000
  42       15F+3        0.00000   0.00000  -0.00000   0.00000   0.00000
  43       15F-3        0.00000   0.00000   0.00000   0.00000   0.00000
  44       16F 0        0.00000   0.00000   0.00000   0.00000   0.00025
  45       16F+1        0.00000   0.00000   0.00020   0.00000   0.00000
  46       16F-1        0.00000   0.00000   0.00000   0.00020   0.00000
  47       16F+2        0.00000   0.00000   0.00000   0.00000   0.00000
  48       16F-2        0.00000   0.00000   0.00000   0.00000   0.00000
  49       16F+3        0.00000   0.00000   0.00000   0.00000   0.00000
  50       16F-3        0.00000   0.00000   0.00000  -0.00000   0.00000
                           6         7         8         9        10
                           O         O         O         O         V
     Eigenvalues --    -0.72802  -0.33711  -0.33711  -0.29003   0.02464
   1 1   S  1S          0.08466   0.00000   0.00000   0.00000  -0.02490
   2        2S         -0.31978   0.00000   0.00000   0.00000   0.14188
   3        3S          0.63423   0.00000   0.00000   0.00000  -0.13044
   4        4S          0.09764   0.00000   0.00000   0.00000  -0.06991
   5        5S          0.36292   0.00000   0.00000   0.00000  -1.06749
   6        6S          0.00047   0.00000   0.00000   0.00000   1.70332
   7        7PX         0.00000   0.00000  -0.26208   0.00000   0.00000
   8        7PY         0.00000  -0.26208   0.00000   0.00000   0.00000
   9        7PZ         0.00000   0.00000   0.00000  -0.25698   0.00000
  10        8PX         0.00000   0.00000   0.56995   0.00000   0.00000
  11        8PY         0.00000   0.56995   0.00000   0.00000   0.00000
  12        8PZ         0.00000   0.00000   0.00000   0.54047   0.00000
  13        9PX         0.00000   0.00000   0.24927   0.00000   0.00000
  14        9PY         0.00000   0.24927   0.00000   0.00000   0.00000
  15        9PZ         0.00000   0.00000   0.00000   0.24729   0.00000
  16       10PX         0.00000   0.00000   0.33779   0.00000   0.00000
  17       10PY         0.00000   0.33779   0.00000   0.00000   0.00000
  18       10PZ         0.00000   0.00000   0.00000   0.36562   0.00000
  19       11PX         0.00000   0.00000   0.01257   0.00000   0.00000
  20       11PY         0.00000   0.01257   0.00000   0.00000   0.00000
  21       11PZ         0.00000   0.00000   0.00000   0.02791   0.00000
  22       12D 0       -0.02049   0.00000   0.00000   0.00000   0.00247
  23       12D+1        0.00000   0.00000   0.00000   0.00000   0.00000
  24       12D-1        0.00000   0.00000   0.00000   0.00000   0.00000
  25       12D+2        0.00000   0.00000   0.00000   0.00000  -0.00000
  26       12D-2        0.00000   0.00000   0.00000   0.00000   0.00000
  27       13D 0       -0.01842   0.00000   0.00000   0.00000   0.00650
  28       13D+1        0.00000   0.00000   0.00000   0.00000   0.00000
  29       13D-1        0.00000   0.00000   0.00000   0.00000   0.00000
  30       13D+2       -0.00000   0.00000   0.00000   0.00000   0.00000
  31       13D-2        0.00000   0.00000   0.00000   0.00000   0.00000
  32       14D 0        0.00028   0.00000   0.00000   0.00000  -0.02366
  33       14D+1        0.00000   0.00000   0.00000   0.00000   0.00000
  34       14D-1        0.00000   0.00000   0.00000   0.00000   0.00000
  35       14D+2       -0.00000   0.00000   0.00000   0.00000   0.00000
  36       14D-2        0.00000   0.00000   0.00000   0.00000   0.00000
  37       15F 0        0.00000   0.00000   0.00000  -0.01332   0.00000
  38       15F+1        0.00000   0.00000  -0.01099   0.00000   0.00000
  39       15F-1        0.00000  -0.01099   0.00000   0.00000   0.00000
  40       15F+2        0.00000   0.00000   0.00000  -0.00000   0.00000
  41       15F-2        0.00000   0.00000   0.00000   0.00000   0.00000
  42       15F+3        0.00000   0.00000  -0.00000   0.00000   0.00000
  43       15F-3        0.00000   0.00000   0.00000   0.00000   0.00000
  44       16F 0        0.00000   0.00000   0.00000  -0.00928   0.00000
  45       16F+1        0.00000   0.00000  -0.00659   0.00000   0.00000
  46       16F-1        0.00000  -0.00659   0.00000   0.00000   0.00000
  47       16F+2        0.00000   0.00000   0.00000   0.00000   0.00000
  48       16F-2        0.00000   0.00000   0.00000   0.00000   0.00000
  49       16F+3        0.00000   0.00000  -0.00000   0.00000   0.00000
  50       16F-3        0.00000   0.00000   0.00000   0.00000   0.00000
                          11        12        13        14        15
                           V         V         V         V         V
     Eigenvalues --     0.04815   0.04815   0.05156   0.14116   0.14116
   1 1   S  1S          0.00000   0.00000   0.00000   0.00000   0.00000
   2        2S          0.00000   0.00000   0.00000   0.00000   0.00000
   3        3S          0.00000   0.00000   0.00000   0.00000   0.00000
   4        4S          0.00000   0.00000   0.00000   0.00000  -0.00000
   5        5S          0.00000   0.00000   0.00000   0.00000   0.00000
   6        6S          0.00000   0.00000   0.00000   0.00000  -0.00000
   7        7PX         0.08049   0.00000   0.00000   0.00000   0.00000
   8        7PY         0.00000   0.08049   0.00000   0.00000   0.00000
   9        7PZ         0.00000   0.00000   0.08367   0.00000   0.00000
  10        8PX        -0.13093   0.00000   0.00000   0.00000   0.00000
  11        8PY         0.00000  -0.13093   0.00000   0.00000   0.00000
  12        8PZ         0.00000   0.00000  -0.12154   0.00000   0.00000
  13        9PX        -0.09963   0.00000   0.00000   0.00000   0.00000
  14        9PY         0.00000  -0.09963   0.00000   0.00000   0.00000
  15        9PZ         0.00000   0.00000  -0.10332   0.00000   0.00000
  16       10PX        -0.37931   0.00000   0.00000   0.00000   0.00000
  17       10PY         0.00000  -0.37931   0.00000   0.00000   0.00000
  18       10PZ         0.00000   0.00000  -0.42876   0.00000   0.00000
  19       11PX         1.20405   0.00000   0.00000   0.00000   0.00000
  20       11PY         0.00000   1.20405   0.00000   0.00000   0.00000
  21       11PZ         0.00000   0.00000   1.22154   0.00000   0.00000
  22       12D 0        0.00000   0.00000   0.00000   0.00000  -0.00000
  23       12D+1        0.00000   0.00000   0.00000   0.00000   0.00000
  24       12D-1        0.00000   0.00000   0.00000   0.00000   0.00000
  25       12D+2        0.00000   0.00000   0.00000   0.00000   0.10119
  26       12D-2        0.00000   0.00000   0.00000   0.10119   0.00000
  27       13D 0        0.00000   0.00000   0.00000   0.00000  -0.00000
  28       13D+1        0.00000   0.00000   0.00000   0.00000   0.00000
  29       13D-1        0.00000   0.00000   0.00000   0.00000   0.00000
  30       13D+2        0.00000   0.00000   0.00000   0.00000   0.16025
  31       13D-2        0.00000   0.00000   0.00000   0.16025   0.00000
  32       14D 0        0.00000   0.00000   0.00000   0.00000  -0.00000
  33       14D+1        0.00000   0.00000   0.00000   0.00000   0.00000
  34       14D-1        0.00000   0.00000   0.00000   0.00000   0.00000
  35       14D+2        0.00000   0.00000   0.00000   0.00000   0.87843
  36       14D-2        0.00000   0.00000   0.00000   0.87843   0.00000
  37       15F 0        0.00000   0.00000   0.00480   0.00000   0.00000
  38       15F+1        0.00360   0.00000   0.00000   0.00000   0.00000
  39       15F-1        0.00000   0.00360   0.00000   0.00000   0.00000
  40       15F+2        0.00000   0.00000   0.00000   0.00000   0.00000
  41       15F-2        0.00000   0.00000   0.00000   0.00000   0.00000
  42       15F+3        0.00000   0.00000   0.00000   0.00000   0.00000
  43       15F-3        0.00000  -0.00000   0.00000   0.00000   0.00000
  44       16F 0        0.00000   0.00000  -0.00195   0.00000   0.00000
  45       16F+1       -0.00165   0.00000   0.00000   0.00000   0.00000
  46       16F-1        0.00000  -0.00165   0.00000   0.00000   0.00000
  47       16F+2        0.00000   0.00000  -0.00000   0.00000   0.00000
  48       16F-2        0.00000   0.00000   0.00000   0.00000   0.00000
  49       16F+3        0.00000   0.00000   0.00000   0.00000   0.00000
  50       16F-3        0.00000  -0.00000   0.00000   0.00000   0.00000
                          16        17        18        19        20
                           V         V         V         V         V
     Eigenvalues --     0.15419   0.15419   0.15964   0.38316   0.38316
   1 1   S  1S          0.00000   0.00000   0.00276   0.00000   0.00000
   2        2S          0.00000   0.00000  -0.00334   0.00000   0.00000
   3        3S          0.00000   0.00000   0.03824   0.00000   0.00000
   4        4S          0.00000   0.00000   0.00719   0.00000   0.00000
   5        5S          0.00000   0.00000  -0.06242   0.00000   0.00000
   6        6S          0.00000   0.00000   0.05514   0.00000   0.00000
   7        7PX         0.00000   0.00000   0.00000   0.00000   0.15643
   8        7PY         0.00000   0.00000   0.00000   0.15643   0.00000
   9        7PZ         0.00000   0.00000   0.00000   0.00000   0.00000
  10        8PX         0.00000   0.00000   0.00000   0.00000  -1.18833
  11        8PY         0.00000   0.00000   0.00000  -1.18833   0.00000
  12        8PZ         0.00000   0.00000   0.00000   0.00000   0.00000
  13        9PX         0.00000   0.00000   0.00000   0.00000  -0.10595
  14        9PY         0.00000   0.00000   0.00000  -0.10595   0.00000
  15        9PZ         0.00000   0.00000   0.00000   0.00000   0.00000
  16       10PX         0.00000   0.00000   0.00000   0.00000   1.93930
  17       10PY         0.00000   0.00000   0.00000   1.93930   0.00000
  18       10PZ         0.00000   0.00000   0.00000   0.00000   0.00000
  19       11PX         0.00000   0.00000   0.00000   0.00000  -0.88001
  20       11PY         0.00000   0.00000   0.00000  -0.88001   0.00000
  21       11PZ         0.00000   0.00000   0.00000   0.00000   0.00000
  22       12D 0        0.00000   0.00000   0.04851   0.00000   0.00000
  23       12D+1        0.00000   0.06100   0.00000   0.00000   0.00000
  24       12D-1        0.06100   0.00000   0.00000   0.00000   0.00000
  25       12D+2        0.00000   0.00000   0.00000   0.00000   0.00000
  26       12D-2        0.00000   0.00000   0.00000   0.00000   0.00000
  27       13D 0        0.00000   0.00000   0.14801   0.00000   0.00000
  28       13D+1        0.00000   0.15142   0.00000   0.00000   0.00000
  29       13D-1        0.15142   0.00000   0.00000   0.00000   0.00000
  30       13D+2        0.00000   0.00000   0.00000   0.00000   0.00000
  31       13D-2        0.00000   0.00000   0.00000   0.00000   0.00000
  32       14D 0        0.00000   0.00000   0.92382   0.00000   0.00000
  33       14D+1        0.00000   0.91349   0.00000   0.00000   0.00000
  34       14D-1        0.91349   0.00000   0.00000   0.00000   0.00000
  35       14D+2        0.00000   0.00000   0.00000   0.00000   0.00000
  36       14D-2        0.00000   0.00000   0.00000   0.00000   0.00000
  37       15F 0        0.00000   0.00000   0.00000   0.00000   0.00000
  38       15F+1        0.00000   0.00000   0.00000   0.00000   0.01017
  39       15F-1        0.00000   0.00000   0.00000   0.01017   0.00000
  40       15F+2        0.00000   0.00000   0.00000   0.00000   0.00000
  41       15F-2        0.00000   0.00000   0.00000   0.00000   0.00000
  42       15F+3        0.00000   0.00000   0.00000   0.00000   0.00000
  43       15F-3        0.00000   0.00000   0.00000  -0.00000   0.00000
  44       16F 0        0.00000   0.00000   0.00000   0.00000   0.00000
  45       16F+1        0.00000   0.00000   0.00000   0.00000  -0.01968
  46       16F-1        0.00000   0.00000   0.00000  -0.01968   0.00000
  47       16F+2        0.00000   0.00000   0.00000   0.00000   0.00000
  48       16F-2        0.00000   0.00000   0.00000   0.00000   0.00000
  49       16F+3        0.00000   0.00000   0.00000   0.00000  -0.00000
  50       16F-3        0.00000   0.00000   0.00000   0.00000   0.00000
                          21        22        23        24        25
                           V         V         V         V         V
     Eigenvalues --     0.40362   0.50239   0.50239   0.52723   0.52723
   1 1   S  1S          0.00000   0.00000   0.00000   0.00000   0.00000
   2        2S          0.00000   0.00000   0.00000   0.00000   0.00000
   3        3S          0.00000   0.00000   0.00000   0.00000   0.00000
   4        4S          0.00000   0.00000  -0.00000   0.00000   0.00000
   5        5S          0.00000   0.00000  -0.00000   0.00000   0.00000
   6        6S          0.00000   0.00000   0.00000   0.00000   0.00000
   7        7PX         0.00000   0.00000   0.00000   0.00000   0.00000
   8        7PY         0.00000   0.00000   0.00000   0.00000   0.00000
   9        7PZ         0.15912   0.00000   0.00000   0.00000   0.00000
  10        8PX         0.00000   0.00000   0.00000   0.00000   0.00000
  11        8PY         0.00000   0.00000   0.00000   0.00000   0.00000
  12        8PZ        -1.21360   0.00000   0.00000   0.00000   0.00000
  13        9PX         0.00000   0.00000   0.00000   0.00000   0.00000
  14        9PY         0.00000   0.00000   0.00000   0.00000   0.00000
  15        9PZ        -0.10213   0.00000   0.00000   0.00000   0.00000
  16       10PX         0.00000   0.00000   0.00000   0.00000   0.00000
  17       10PY         0.00000   0.00000   0.00000   0.00000   0.00000
  18       10PZ         1.93017   0.00000   0.00000   0.00000   0.00000
  19       11PX         0.00000   0.00000   0.00000   0.00000   0.00000
  20       11PY         0.00000   0.00000   0.00000   0.00000   0.00000
  21       11PZ        -0.85688   0.00000   0.00000   0.00000   0.00000
  22       12D 0        0.00000   0.00000   0.00000   0.00000   0.00000
  23       12D+1        0.00000   0.00000   0.00000   0.00000   1.10293
  24       12D-1        0.00000   0.00000   0.00000   1.10293   0.00000
  25       12D+2        0.00000   0.00000   1.08962   0.00000   0.00000
  26       12D-2        0.00000   1.08962   0.00000   0.00000   0.00000
  27       13D 0        0.00000   0.00000   0.00000   0.00000   0.00000
  28       13D+1        0.00000   0.00000   0.00000   0.00000   0.23817
  29       13D-1        0.00000   0.00000   0.00000   0.23817   0.00000
  30       13D+2        0.00000   0.00000   0.24230   0.00000   0.00000
  31       13D-2        0.00000   0.24230   0.00000   0.00000   0.00000
  32       14D 0        0.00000   0.00000  -0.00000   0.00000   0.00000
  33       14D+1        0.00000   0.00000   0.00000   0.00000  -0.94190
  34       14D-1        0.00000   0.00000   0.00000  -0.94190   0.00000
  35       14D+2        0.00000   0.00000  -0.97041   0.00000   0.00000
  36       14D-2        0.00000  -0.97041   0.00000   0.00000   0.00000
  37       15F 0        0.01353   0.00000   0.00000   0.00000   0.00000
  38       15F+1        0.00000   0.00000   0.00000   0.00000   0.00000
  39       15F-1        0.00000   0.00000   0.00000   0.00000   0.00000
  40       15F+2       -0.00000   0.00000   0.00000   0.00000   0.00000
  41       15F-2        0.00000   0.00000   0.00000   0.00000   0.00000
  42       15F+3        0.00000   0.00000   0.00000   0.00000   0.00000
  43       15F-3        0.00000   0.00000   0.00000   0.00000   0.00000
  44       16F 0       -0.02631   0.00000   0.00000   0.00000   0.00000
  45       16F+1        0.00000   0.00000   0.00000   0.00000   0.00000
  46       16F-1        0.00000   0.00000   0.00000   0.00000   0.00000
  47       16F+2        0.00000   0.00000   0.00000   0.00000   0.00000
  48       16F-2        0.00000   0.00000   0.00000   0.00000   0.00000
  49       16F+3        0.00000   0.00000   0.00000   0.00000   0.00000
  50       16F-3        0.00000   0.00000   0.00000   0.00000   0.00000
                          26        27        28        29        30
                           V         V         V         V         V
     Eigenvalues --     0.53710   0.56176   0.66498   0.66498   0.67770
   1 1   S  1S          0.00053  -0.10266   0.00000   0.00000   0.00000
   2        2S         -0.02156  -0.18896   0.00000   0.00000   0.00000
   3        3S         -0.03112  -2.09582   0.00000   0.00000   0.00000
   4        4S          0.01181  -0.24832   0.00000   0.00000   0.00000
   5        5S          0.08934   3.61873   0.00000   0.00000   0.00000
   6        6S         -0.04628  -1.61393   0.00000   0.00000   0.00000
   7        7PX         0.00000   0.00000   0.00000  -0.00000   0.00000
   8        7PY         0.00000   0.00000   0.00000   0.00000   0.00000
   9        7PZ         0.00000   0.00000   0.00000   0.00000  -0.00000
  10        8PX         0.00000   0.00000   0.00000  -0.00000   0.00000
  11        8PY         0.00000   0.00000   0.00000   0.00000   0.00000
  12        8PZ         0.00000   0.00000   0.00000   0.00000  -0.00000
  13        9PX         0.00000   0.00000   0.00000   0.00000   0.00000
  14        9PY         0.00000   0.00000  -0.00000   0.00000   0.00000
  15        9PZ         0.00000   0.00000   0.00000   0.00000   0.00000
  16       10PX         0.00000   0.00000   0.00000   0.00000   0.00000
  17       10PY         0.00000   0.00000  -0.00000   0.00000   0.00000
  18       10PZ         0.00000   0.00000   0.00000   0.00000   0.00000
  19       11PX         0.00000   0.00000   0.00000  -0.00000   0.00000
  20       11PY         0.00000   0.00000   0.00000   0.00000   0.00000
  21       11PZ         0.00000   0.00000   0.00000   0.00000  -0.00000
  22       12D 0        1.10629  -0.04448   0.00000   0.00000   0.00000
  23       12D+1        0.00000   0.00000   0.00000   0.00000   0.00000
  24       12D-1        0.00000   0.00000   0.00000   0.00000   0.00000
  25       12D+2       -0.00000   0.00000   0.00000   0.00000   0.00000
  26       12D-2        0.00000   0.00000   0.00000   0.00000   0.00000
  27       13D 0        0.23662   0.02395   0.00000   0.00000   0.00000
  28       13D+1        0.00000   0.00000   0.00000   0.00000   0.00000
  29       13D-1        0.00000   0.00000   0.00000   0.00000   0.00000
  30       13D+2       -0.00000   0.00000   0.00000   0.00000   0.00000
  31       13D-2        0.00000   0.00000   0.00000   0.00000   0.00000
  32       14D 0       -0.93210   0.03996   0.00000   0.00000   0.00000
  33       14D+1        0.00000   0.00000   0.00000   0.00000   0.00000
  34       14D-1        0.00000   0.00000   0.00000   0.00000   0.00000
  35       14D+2        0.00000  -0.00000   0.00000   0.00000   0.00000
  36       14D-2        0.00000   0.00000   0.00000   0.00000   0.00000
  37       15F 0        0.00000   0.00000   0.00000   0.00000  -0.00000
  38       15F+1        0.00000   0.00000   0.00000  -0.00000   0.00000
  39       15F-1        0.00000   0.00000   0.00000   0.00000   0.00000
  40       15F+2        0.00000   0.00000   0.00000   0.00000  -0.09669
  41       15F-2        0.00000   0.00000   0.00000   0.00000   0.00000
  42       15F+3        0.00000   0.00000   0.00000  -0.09031   0.00000
  43       15F-3        0.00000   0.00000  -0.09031   0.00000   0.00000
  44       16F 0        0.00000   0.00000   0.00000   0.00000   0.00000
  45       16F+1        0.00000   0.00000   0.00000   0.00000   0.00000
  46       16F-1        0.00000   0.00000  -0.00000   0.00000   0.00000
  47       16F+2        0.00000   0.00000   0.00000   0.00000   1.05708
  48       16F-2        0.00000   0.00000   0.00000   0.00000   0.00000
  49       16F+3        0.00000   0.00000   0.00000   1.05349   0.00000
  50       16F-3        0.00000   0.00000   1.05349   0.00000   0.00000
                          31        32        33        34        35
                       (A2U)--V      V         V         V     (T2G)--V
     Eigenvalues --     0.67770   0.68582   0.68582   0.68889   1.65723
   1 1   S  1S          0.00000   0.00000   0.00000   0.00000   0.00000
   2        2S          0.00000   0.00000   0.00000   0.00000   0.00000
   3        3S          0.00000   0.00000   0.00000   0.00000   0.00000
   4        4S          0.00000   0.00000   0.00000   0.00000   0.00000
   5        5S          0.00000   0.00000   0.00000   0.00000   0.00000
   6        6S          0.00000   0.00000   0.00000   0.00000   0.00000
   7        7PX         0.00000  -0.00423   0.00000   0.00000   0.00000
   8        7PY         0.00000   0.00000  -0.00423   0.00000   0.00000
   9        7PZ         0.00000   0.00000   0.00000  -0.00494   0.00000
  10        8PX         0.00000  -0.01984   0.00000   0.00000   0.00000
  11        8PY         0.00000   0.00000  -0.01984   0.00000   0.00000
  12        8PZ         0.00000   0.00000   0.00000  -0.02592   0.00000
  13        9PX         0.00000   0.01111   0.00000   0.00000   0.00000
  14        9PY         0.00000   0.00000   0.01111   0.00000   0.00000
  15        9PZ         0.00000   0.00000   0.00000   0.01328   0.00000
  16       10PX         0.00000   0.03700   0.00000   0.00000   0.00000
  17       10PY         0.00000   0.00000   0.03700   0.00000   0.00000
  18       10PZ         0.00000   0.00000   0.00000   0.04892   0.00000
  19       11PX         0.00000  -0.01426   0.00000   0.00000   0.00000
  20       11PY         0.00000   0.00000  -0.01426   0.00000   0.00000
  21       11PZ         0.00000   0.00000   0.00000  -0.01843   0.00000
  22       12D 0        0.00000   0.00000   0.00000   0.00000   0.00000
  23       12D+1        0.00000   0.00000   0.00000   0.00000   0.00000
  24       12D-1        0.00000   0.00000   0.00000   0.00000   0.00000
  25       12D+2        0.00000   0.00000   0.00000   0.00000   0.00000
  26       12D-2        0.00000   0.00000   0.00000   0.00000   1.36357
  27       13D 0        0.00000   0.00000   0.00000   0.00000   0.00000
  28       13D+1        0.00000   0.00000   0.00000   0.00000   0.00000
  29       13D-1        0.00000   0.00000   0.00000   0.00000   0.00000
  30       13D+2        0.00000   0.00000   0.00000   0.00000   0.00000
  31       13D-2        0.00000   0.00000   0.00000   0.00000  -1.29450
  32       14D 0        0.00000   0.00000   0.00000   0.00000   0.00000
  33       14D+1        0.00000   0.00000   0.00000   0.00000   0.00000
  34       14D-1        0.00000   0.00000   0.00000   0.00000   0.00000
  35       14D+2        0.00000   0.00000   0.00000   0.00000   0.00000
  36       14D-2        0.00000   0.00000   0.00000   0.00000  -0.57593
  37       15F 0        0.00000   0.00000   0.00000  -0.10155   0.00000
  38       15F+1        0.00000  -0.10033   0.00000   0.00000   0.00000
  39       15F-1        0.00000   0.00000  -0.10033   0.00000   0.00000
  40       15F+2        0.00000   0.00000   0.00000   0.00000   0.00000
  41       15F-2       -0.09669   0.00000   0.00000   0.00000   0.00000
  42       15F+3        0.00000   0.00000   0.00000   0.00000   0.00000
  43       15F-3        0.00000   0.00000  -0.00000   0.00000   0.00000
  44       16F 0        0.00000   0.00000   0.00000   1.05946   0.00000
  45       16F+1        0.00000   1.05892   0.00000   0.00000   0.00000
  46       16F-1        0.00000   0.00000   1.05892   0.00000   0.00000
  47       16F+2        0.00000   0.00000   0.00000  -0.00000   0.00000
  48       16F-2        1.05708   0.00000   0.00000   0.00000   0.00000
  49       16F+3        0.00000  -0.00000   0.00000   0.00000   0.00000
  50       16F-3        0.00000   0.00000   0.00000   0.00000   0.00000
                          36        37        38        39        40
                           V     (T2G)--V  (T2G)--V      V         V
     Eigenvalues --     1.65723   1.68622   1.68622   1.69670   1.95185
   1 1   S  1S         -0.00000   0.00000   0.00000  -0.00261   0.00000
   2        2S         -0.00000   0.00000   0.00000  -0.00873   0.00000
   3        3S         -0.00000   0.00000   0.00000  -0.05784   0.00000
   4        4S          0.00000   0.00000   0.00000   0.00386   0.00000
   5        5S          0.00000   0.00000   0.00000   0.07099   0.00000
   6        6S         -0.00000   0.00000   0.00000  -0.02516   0.00000
   7        7PX         0.00000   0.00000   0.00000   0.00000   0.64883
   8        7PY         0.00000   0.00000   0.00000   0.00000   0.00000
   9        7PZ         0.00000   0.00000   0.00000   0.00000   0.00000
  10        8PX         0.00000   0.00000   0.00000   0.00000   2.18894
  11        8PY         0.00000   0.00000   0.00000   0.00000   0.00000
  12        8PZ         0.00000   0.00000   0.00000   0.00000   0.00000
  13        9PX         0.00000   0.00000   0.00000   0.00000  -1.95207
  14        9PY         0.00000   0.00000   0.00000   0.00000   0.00000
  15        9PZ         0.00000   0.00000   0.00000   0.00000   0.00000
  16       10PX         0.00000   0.00000   0.00000   0.00000  -1.14632
  17       10PY         0.00000   0.00000   0.00000   0.00000   0.00000
  18       10PZ         0.00000   0.00000   0.00000   0.00000   0.00000
  19       11PX         0.00000   0.00000   0.00000   0.00000   0.35362
  20       11PY         0.00000   0.00000   0.00000   0.00000   0.00000
  21       11PZ         0.00000   0.00000   0.00000   0.00000   0.00000
  22       12D 0        0.00000   0.00000   0.00000   1.35209   0.00000
  23       12D+1        0.00000   1.35524   0.00000   0.00000   0.00000
  24       12D-1        0.00000   0.00000   1.35524   0.00000   0.00000
  25       12D+2        1.36357   0.00000   0.00000  -0.00000   0.00000
  26       12D-2        0.00000   0.00000   0.00000   0.00000   0.00000
  27       13D 0       -0.00000   0.00000   0.00000  -1.29663   0.00000
  28       13D+1        0.00000  -1.29632   0.00000   0.00000   0.00000
  29       13D-1        0.00000   0.00000  -1.29632   0.00000   0.00000
  30       13D+2       -1.29450   0.00000   0.00000   0.00000   0.00000
  31       13D-2        0.00000   0.00000   0.00000   0.00000   0.00000
  32       14D 0       -0.00000   0.00000   0.00000  -0.56623   0.00000
  33       14D+1        0.00000  -0.56868   0.00000   0.00000   0.00000
  34       14D-1        0.00000   0.00000  -0.56868   0.00000   0.00000
  35       14D+2       -0.57593   0.00000   0.00000   0.00000   0.00000
  36       14D-2        0.00000   0.00000   0.00000   0.00000   0.00000
  37       15F 0        0.00000   0.00000   0.00000   0.00000   0.00000
  38       15F+1        0.00000   0.00000   0.00000   0.00000  -0.06672
  39       15F-1        0.00000   0.00000   0.00000   0.00000   0.00000
  40       15F+2        0.00000   0.00000   0.00000   0.00000   0.00000
  41       15F-2        0.00000   0.00000   0.00000   0.00000   0.00000
  42       15F+3        0.00000   0.00000   0.00000   0.00000  -0.00000
  43       15F-3        0.00000   0.00000   0.00000   0.00000   0.00000
  44       16F 0        0.00000   0.00000   0.00000   0.00000   0.00000
  45       16F+1        0.00000   0.00000   0.00000   0.00000   0.04206
  46       16F-1        0.00000   0.00000   0.00000   0.00000   0.00000
  47       16F+2        0.00000   0.00000   0.00000   0.00000   0.00000
  48       16F-2        0.00000   0.00000   0.00000   0.00000   0.00000
  49       16F+3        0.00000   0.00000   0.00000   0.00000   0.00000
  50       16F-3        0.00000   0.00000   0.00000   0.00000   0.00000
                          41        42        43        44        45
                           V         V         V         V         V
     Eigenvalues --     1.95185   1.98832   1.98973   1.98973   2.01588
   1 1   S  1S          0.00000   0.00000   0.00000   0.00000   0.00000
   2        2S          0.00000   0.00000   0.00000   0.00000   0.00000
   3        3S          0.00000   0.00000   0.00000   0.00000   0.00000
   4        4S          0.00000   0.00000   0.00000   0.00000   0.00000
   5        5S          0.00000   0.00000   0.00000   0.00000   0.00000
   6        6S          0.00000   0.00000   0.00000   0.00000   0.00000
   7        7PX         0.00000   0.00000   0.00000   0.00000   0.00000
   8        7PY         0.64883   0.00000  -0.00000   0.00000   0.00000
   9        7PZ         0.00000   0.64622   0.00000   0.00000  -0.00000
  10        8PX         0.00000   0.00000   0.00000   0.00000   0.00000
  11        8PY         2.18894   0.00000  -0.00000   0.00000   0.00000
  12        8PZ         0.00000   2.17214   0.00000   0.00000  -0.00000
  13        9PX         0.00000   0.00000   0.00000  -0.00000   0.00000
  14        9PY        -1.95207   0.00000   0.00000   0.00000   0.00000
  15        9PZ         0.00000  -1.94400   0.00000   0.00000   0.00000
  16       10PX         0.00000   0.00000   0.00000  -0.00000   0.00000
  17       10PY        -1.14632   0.00000   0.00000   0.00000   0.00000
  18       10PZ         0.00000  -1.12945   0.00000   0.00000   0.00000
  19       11PX         0.00000   0.00000   0.00000   0.00000   0.00000
  20       11PY         0.35362   0.00000  -0.00000   0.00000   0.00000
  21       11PZ         0.00000   0.34755   0.00000   0.00000  -0.00000
  22       12D 0        0.00000   0.00000   0.00000   0.00000   0.00000
  23       12D+1        0.00000   0.00000   0.00000   0.00000   0.00000
  24       12D-1        0.00000   0.00000   0.00000   0.00000   0.00000
  25       12D+2        0.00000   0.00000   0.00000   0.00000   0.00000
  26       12D-2        0.00000   0.00000   0.00000   0.00000   0.00000
  27       13D 0        0.00000   0.00000   0.00000   0.00000   0.00000
  28       13D+1        0.00000   0.00000   0.00000   0.00000   0.00000
  29       13D-1        0.00000   0.00000   0.00000   0.00000   0.00000
  30       13D+2        0.00000   0.00000   0.00000   0.00000   0.00000
  31       13D-2        0.00000   0.00000   0.00000   0.00000   0.00000
  32       14D 0        0.00000   0.00000   0.00000   0.00000   0.00000
  33       14D+1        0.00000   0.00000   0.00000   0.00000   0.00000
  34       14D-1        0.00000   0.00000   0.00000   0.00000   0.00000
  35       14D+2        0.00000   0.00000   0.00000   0.00000   0.00000
  36       14D-2        0.00000   0.00000   0.00000   0.00000   0.00000
  37       15F 0        0.00000  -0.13702   0.00000   0.00000  -0.00000
  38       15F+1        0.00000   0.00000   0.00000   0.00000   0.00000
  39       15F-1       -0.06672   0.00000  -0.00000   0.00000   0.00000
  40       15F+2        0.00000   0.00000   0.00000   0.00000   1.27102
  41       15F-2        0.00000   0.00000   0.00000   0.00000   0.00000
  42       15F+3        0.00000   0.00000   0.00000   1.27149   0.00000
  43       15F-3        0.00000   0.00000   1.27149   0.00000   0.00000
  44       16F 0        0.00000   0.08199   0.00000   0.00000   0.00000
  45       16F+1        0.00000   0.00000   0.00000  -0.00000   0.00000
  46       16F-1        0.04206   0.00000   0.00000   0.00000   0.00000
  47       16F+2        0.00000  -0.00000   0.00000   0.00000  -0.71233
  48       16F-2        0.00000   0.00000   0.00000   0.00000   0.00000
  49       16F+3        0.00000   0.00000   0.00000  -0.71763   0.00000
  50       16F-3       -0.00000   0.00000  -0.71763   0.00000   0.00000
                          46        47        48        49        50
                       (A2U)--V      V         V         V     (A1G)--V
     Eigenvalues --     2.01588   2.03226   2.03226   2.03833   3.69318
   1 1   S  1S          0.00000   0.00000   0.00000   0.00000   0.02575
   2        2S          0.00000   0.00000   0.00000   0.00000   2.82359
   3        3S          0.00000   0.00000   0.00000   0.00000   4.36017
   4        4S          0.00000   0.00000   0.00000   0.00000  -3.89091
   5        5S          0.00000   0.00000   0.00000   0.00000  -2.93062
   6        6S          0.00000   0.00000   0.00000   0.00000   0.92652
   7        7PX         0.00000   0.03040   0.00000   0.00000   0.00000
   8        7PY         0.00000   0.00000   0.03040   0.00000   0.00000
   9        7PZ         0.00000   0.00000   0.00000   0.06543   0.00000
  10        8PX         0.00000   0.12836   0.00000   0.00000   0.00000
  11        8PY         0.00000   0.00000   0.12836   0.00000   0.00000
  12        8PZ         0.00000   0.00000   0.00000   0.25272   0.00000
  13        9PX         0.00000  -0.09845   0.00000   0.00000   0.00000
  14        9PY         0.00000   0.00000  -0.09845   0.00000   0.00000
  15        9PZ         0.00000   0.00000   0.00000  -0.20570   0.00000
  16       10PX         0.00000  -0.06890   0.00000   0.00000   0.00000
  17       10PY         0.00000   0.00000  -0.06890   0.00000   0.00000
  18       10PZ         0.00000   0.00000   0.00000  -0.13378   0.00000
  19       11PX         0.00000   0.02122   0.00000   0.00000   0.00000
  20       11PY         0.00000   0.00000   0.02122   0.00000   0.00000
  21       11PZ         0.00000   0.00000   0.00000   0.04105   0.00000
  22       12D 0        0.00000   0.00000   0.00000   0.00000   0.00708
  23       12D+1        0.00000   0.00000   0.00000   0.00000   0.00000
  24       12D-1        0.00000   0.00000   0.00000   0.00000   0.00000
  25       12D+2        0.00000   0.00000   0.00000   0.00000   0.00000
  26       12D-2        0.00000   0.00000   0.00000   0.00000   0.00000
  27       13D 0        0.00000   0.00000   0.00000   0.00000  -0.00243
  28       13D+1        0.00000   0.00000   0.00000   0.00000   0.00000
  29       13D-1        0.00000   0.00000   0.00000   0.00000   0.00000
  30       13D+2        0.00000   0.00000   0.00000   0.00000  -0.00000
  31       13D-2        0.00000   0.00000   0.00000   0.00000   0.00000
  32       14D 0        0.00000   0.00000   0.00000   0.00000  -0.00381
  33       14D+1        0.00000   0.00000   0.00000   0.00000   0.00000
  34       14D-1        0.00000   0.00000   0.00000   0.00000   0.00000
  35       14D+2        0.00000   0.00000   0.00000   0.00000  -0.00000
  36       14D-2        0.00000   0.00000   0.00000   0.00000   0.00000
  37       15F 0        0.00000   0.00000   0.00000   1.26308   0.00000
  38       15F+1        0.00000   1.26889   0.00000   0.00000   0.00000
  39       15F-1        0.00000   0.00000   1.26889   0.00000   0.00000
  40       15F+2        0.00000   0.00000   0.00000   0.00000   0.00000
  41       15F-2        1.27102   0.00000   0.00000   0.00000   0.00000
  42       15F+3        0.00000  -0.00000   0.00000   0.00000   0.00000
  43       15F-3        0.00000   0.00000   0.00000   0.00000   0.00000
  44       16F 0        0.00000   0.00000   0.00000  -0.70347   0.00000
  45       16F+1        0.00000  -0.70804   0.00000   0.00000   0.00000
  46       16F-1        0.00000   0.00000  -0.70804   0.00000   0.00000
  47       16F+2        0.00000   0.00000   0.00000  -0.00000   0.00000
  48       16F-2       -0.71233   0.00000   0.00000   0.00000   0.00000
  49       16F+3        0.00000   0.00000   0.00000   0.00000   0.00000
  50       16F-3        0.00000   0.00000  -0.00000   0.00000   0.00000
     Beta Molecular Orbital Coefficients:
                           1         2         3         4         5
                       (A1G)--O  (A1G)--O  (T1U)--O  (T1U)--O  (T1U)--O
     Eigenvalues --   -88.94173  -7.98820  -5.94713  -5.94713  -5.94333
   1 1   S  1S          0.99921  -0.27592   0.00000   0.00000   0.00000
   2        2S          0.00529   0.96575   0.00000   0.00000   0.00000
   3        3S          0.00292  -0.02222   0.00000   0.00000   0.00000
   4        4S         -0.00348   0.09769   0.00000   0.00000   0.00000
   5        5S         -0.00182   0.01002   0.00000   0.00000   0.00000
   6        6S          0.00058  -0.00288   0.00000   0.00000   0.00000
   7        7PX         0.00000   0.00000   0.96735   0.00000   0.00000
   8        7PY         0.00000   0.00000   0.00000   0.96735   0.00000
   9        7PZ         0.00000   0.00000   0.00000   0.00000   0.96814
  10        8PX         0.00000   0.00000  -0.00690   0.00000   0.00000
  11        8PY         0.00000   0.00000   0.00000  -0.00690   0.00000
  12        8PZ         0.00000   0.00000   0.00000   0.00000  -0.00557
  13        9PX         0.00000   0.00000   0.06979   0.00000   0.00000
  14        9PY         0.00000   0.00000   0.00000   0.06979   0.00000
  15        9PZ         0.00000   0.00000   0.00000   0.00000   0.06781
  16       10PX         0.00000   0.00000   0.00245   0.00000   0.00000
  17       10PY         0.00000   0.00000   0.00000   0.00245   0.00000
  18       10PZ         0.00000   0.00000   0.00000   0.00000   0.00182
  19       11PX         0.00000   0.00000  -0.00070   0.00000   0.00000
  20       11PY         0.00000   0.00000   0.00000  -0.00070   0.00000
  21       11PZ         0.00000   0.00000   0.00000   0.00000  -0.00049
  22       12D 0        0.00000   0.00036   0.00000   0.00000   0.00000
  23       12D+1        0.00000   0.00000   0.00000   0.00000   0.00000
  24       12D-1        0.00000   0.00000   0.00000   0.00000   0.00000
  25       12D+2        0.00000  -0.00000   0.00000   0.00000   0.00000
  26       12D-2        0.00000   0.00000   0.00000   0.00000   0.00000
  27       13D 0       -0.00000  -0.00033   0.00000   0.00000   0.00000
  28       13D+1        0.00000   0.00000   0.00000   0.00000   0.00000
  29       13D-1        0.00000   0.00000   0.00000   0.00000   0.00000
  30       13D+2       -0.00000   0.00000   0.00000   0.00000   0.00000
  31       13D-2        0.00000   0.00000   0.00000   0.00000   0.00000
  32       14D 0       -0.00000  -0.00012   0.00000   0.00000   0.00000
  33       14D+1        0.00000   0.00000   0.00000   0.00000   0.00000
  34       14D-1        0.00000   0.00000   0.00000   0.00000   0.00000
  35       14D+2       -0.00000   0.00000   0.00000   0.00000   0.00000
  36       14D-2        0.00000   0.00000   0.00000   0.00000   0.00000
  37       15F 0        0.00000   0.00000   0.00000   0.00000  -0.00002
  38       15F+1        0.00000   0.00000   0.00002   0.00000   0.00000
  39       15F-1        0.00000   0.00000   0.00000   0.00002   0.00000
  40       15F+2        0.00000   0.00000   0.00000   0.00000   0.00000
  41       15F-2        0.00000   0.00000   0.00000   0.00000   0.00000
  42       15F+3        0.00000   0.00000   0.00000   0.00000   0.00000
  43       15F-3        0.00000   0.00000   0.00000  -0.00000   0.00000
  44       16F 0        0.00000   0.00000   0.00000   0.00000   0.00004
  45       16F+1        0.00000   0.00000   0.00002   0.00000   0.00000
  46       16F-1        0.00000   0.00000   0.00000   0.00002   0.00000
  47       16F+2        0.00000   0.00000   0.00000   0.00000   0.00000
  48       16F-2        0.00000   0.00000   0.00000   0.00000   0.00000
  49       16F+3        0.00000   0.00000  -0.00000   0.00000   0.00000
  50       16F-3        0.00000   0.00000   0.00000   0.00000   0.00000
                           6         7         8         9        10
                           O         O         V         V     (A1G)--V
     Eigenvalues --    -0.63501  -0.26524  -0.18000  -0.18000   0.03194
   1 1   S  1S          0.08317   0.00000   0.00000   0.00000  -0.02389
   2        2S         -0.33056   0.00000   0.00000   0.00000   0.15237
   3        3S          0.59819   0.00000   0.00000   0.00000  -0.09189
   4        4S          0.11208   0.00000   0.00000   0.00000  -0.06829
   5        5S          0.38516   0.00000   0.00000   0.00000  -1.15344
   6        6S          0.01135   0.00000   0.00000   0.00000   1.73881
   7        7PX         0.00000   0.00000  -0.24312   0.00000   0.00000
   8        7PY         0.00000   0.00000   0.00000  -0.24312   0.00000
   9        7PZ         0.00000  -0.25338   0.00000   0.00000   0.00000
  10        8PX         0.00000   0.00000   0.48234   0.00000   0.00000
  11        8PY         0.00000   0.00000   0.00000   0.48234   0.00000
  12        8PZ         0.00000   0.51786   0.00000   0.00000   0.00000
  13        9PX         0.00000   0.00000   0.23241   0.00000   0.00000
  14        9PY         0.00000   0.00000   0.00000   0.23241   0.00000
  15        9PZ         0.00000   0.24571   0.00000   0.00000   0.00000
  16       10PX         0.00000   0.00000   0.41630   0.00000   0.00000
  17       10PY         0.00000   0.00000   0.00000   0.41630   0.00000
  18       10PZ         0.00000   0.38642   0.00000   0.00000   0.00000
  19       11PX         0.00000   0.00000   0.07360   0.00000   0.00000
  20       11PY         0.00000   0.00000   0.00000   0.07360   0.00000
  21       11PZ         0.00000   0.03971   0.00000   0.00000   0.00000
  22       12D 0        0.00973   0.00000   0.00000   0.00000  -0.00221
  23       12D+1        0.00000   0.00000   0.00000   0.00000   0.00000
  24       12D-1        0.00000   0.00000   0.00000   0.00000   0.00000
  25       12D+2       -0.00000   0.00000   0.00000   0.00000  -0.00000
  26       12D-2        0.00000   0.00000   0.00000   0.00000   0.00000
  27       13D 0        0.00830   0.00000   0.00000   0.00000  -0.00084
  28       13D+1        0.00000   0.00000   0.00000   0.00000   0.00000
  29       13D-1        0.00000   0.00000   0.00000   0.00000   0.00000
  30       13D+2        0.00000   0.00000   0.00000   0.00000   0.00000
  31       13D-2        0.00000   0.00000   0.00000   0.00000   0.00000
  32       14D 0        0.00212   0.00000   0.00000   0.00000   0.00468
  33       14D+1        0.00000   0.00000   0.00000   0.00000   0.00000
  34       14D-1        0.00000   0.00000   0.00000   0.00000   0.00000
  35       14D+2        0.00000   0.00000   0.00000   0.00000  -0.00000
  36       14D-2        0.00000   0.00000   0.00000   0.00000   0.00000
  37       15F 0        0.00000   0.00204   0.00000   0.00000   0.00000
  38       15F+1        0.00000   0.00000   0.00308   0.00000   0.00000
  39       15F-1        0.00000   0.00000   0.00000   0.00308   0.00000
  40       15F+2        0.00000  -0.00000   0.00000   0.00000   0.00000
  41       15F-2        0.00000   0.00000   0.00000   0.00000   0.00000
  42       15F+3        0.00000   0.00000   0.00000   0.00000   0.00000
  43       15F-3        0.00000   0.00000   0.00000  -0.00000   0.00000
  44       16F 0        0.00000  -0.00106   0.00000   0.00000   0.00000
  45       16F+1        0.00000   0.00000   0.00160   0.00000   0.00000
  46       16F-1        0.00000   0.00000   0.00000   0.00160   0.00000
  47       16F+2        0.00000   0.00000   0.00000   0.00000   0.00000
  48       16F-2        0.00000   0.00000   0.00000   0.00000   0.00000
  49       16F+3        0.00000   0.00000  -0.00000   0.00000   0.00000
  50       16F-3        0.00000   0.00000   0.00000   0.00000   0.00000
                          11        12        13        14        15
                           V         V         V         V         V
     Eigenvalues --     0.05213   0.05686   0.05686   0.16781   0.16781
   1 1   S  1S          0.00000   0.00000   0.00000   0.00000   0.00000
   2        2S          0.00000   0.00000   0.00000   0.00000   0.00000
   3        3S          0.00000   0.00000   0.00000   0.00000   0.00000
   4        4S          0.00000   0.00000   0.00000   0.00000   0.00000
   5        5S          0.00000   0.00000   0.00000   0.00000   0.00000
   6        6S          0.00000   0.00000   0.00000   0.00000   0.00000
   7        7PX         0.00000   0.09642   0.00000   0.00000   0.00000
   8        7PY         0.00000   0.00000   0.09642   0.00000   0.00000
   9        7PZ         0.08722   0.00000   0.00000   0.00000   0.00000
  10        8PX         0.00000  -0.13568   0.00000   0.00000   0.00000
  11        8PY         0.00000   0.00000  -0.13568   0.00000   0.00000
  12        8PZ        -0.12292   0.00000   0.00000   0.00000   0.00000
  13        9PX         0.00000  -0.11449   0.00000   0.00000   0.00000
  14        9PY         0.00000   0.00000  -0.11449   0.00000   0.00000
  15        9PZ        -0.10675   0.00000   0.00000   0.00000   0.00000
  16       10PX         0.00000  -0.48925   0.00000   0.00000   0.00000
  17       10PY         0.00000   0.00000  -0.48925   0.00000   0.00000
  18       10PZ        -0.45198   0.00000   0.00000   0.00000   0.00000
  19       11PX         0.00000   1.23358   0.00000   0.00000   0.00000
  20       11PY         0.00000   0.00000   1.23358   0.00000   0.00000
  21       11PZ         1.22782   0.00000   0.00000   0.00000   0.00000
  22       12D 0        0.00000   0.00000   0.00000   0.00000   0.00000
  23       12D+1        0.00000   0.00000   0.00000   0.00000   0.00216
  24       12D-1        0.00000   0.00000   0.00000   0.00216   0.00000
  25       12D+2        0.00000   0.00000   0.00000   0.00000   0.00000
  26       12D-2        0.00000   0.00000   0.00000   0.00000   0.00000
  27       13D 0        0.00000   0.00000   0.00000   0.00000   0.00000
  28       13D+1        0.00000   0.00000   0.00000   0.00000   0.13617
  29       13D-1        0.00000   0.00000   0.00000   0.13617   0.00000
  30       13D+2        0.00000   0.00000   0.00000   0.00000   0.00000
  31       13D-2        0.00000   0.00000   0.00000   0.00000   0.00000
  32       14D 0        0.00000   0.00000   0.00000   0.00000   0.00000
  33       14D+1        0.00000   0.00000   0.00000   0.00000   0.96314
  34       14D-1        0.00000   0.00000   0.00000   0.96314   0.00000
  35       14D+2        0.00000   0.00000   0.00000   0.00000   0.00000
  36       14D-2        0.00000   0.00000   0.00000   0.00000   0.00000
  37       15F 0        0.00007   0.00000   0.00000   0.00000   0.00000
  38       15F+1        0.00000  -0.00122   0.00000   0.00000   0.00000
  39       15F-1        0.00000   0.00000  -0.00122   0.00000   0.00000
  40       15F+2        0.00000   0.00000   0.00000   0.00000   0.00000
  41       15F-2        0.00000   0.00000   0.00000   0.00000   0.00000
  42       15F+3        0.00000   0.00000   0.00000   0.00000   0.00000
  43       15F-3        0.00000   0.00000  -0.00000   0.00000   0.00000
  44       16F 0       -0.00155   0.00000   0.00000   0.00000   0.00000
  45       16F+1        0.00000   0.00038   0.00000   0.00000   0.00000
  46       16F-1        0.00000   0.00000   0.00038   0.00000   0.00000
  47       16F+2        0.00000   0.00000   0.00000   0.00000   0.00000
  48       16F-2        0.00000   0.00000   0.00000   0.00000   0.00000
  49       16F+3        0.00000  -0.00000   0.00000   0.00000   0.00000
  50       16F-3        0.00000   0.00000   0.00000   0.00000   0.00000
                          16        17        18        19        20
                           V         V         V         V         V
     Eigenvalues --     0.17124   0.17342   0.17343   0.41108   0.41807
   1 1   S  1S         -0.00078   0.00000  -0.00000   0.00000   0.00000
   2        2S          0.00593   0.00000   0.00000   0.00000   0.00000
   3        3S         -0.00102   0.00000   0.00000   0.00000   0.00000
   4        4S         -0.00395   0.00000  -0.00000   0.00000   0.00000
   5        5S         -0.00780   0.00000  -0.00000   0.00000   0.00000
   6        6S         -0.00241   0.00000   0.00000   0.00000   0.00000
   7        7PX         0.00000   0.00000   0.00000   0.00000   0.00000
   8        7PY         0.00000   0.00000   0.00000   0.00000   0.16822
   9        7PZ         0.00000   0.00000   0.00000   0.16163   0.00000
  10        8PX         0.00000   0.00000   0.00000   0.00000   0.00000
  11        8PY         0.00000   0.00000   0.00000   0.00000  -1.25039
  12        8PZ         0.00000   0.00000   0.00000  -1.22871   0.00000
  13        9PX         0.00000   0.00000   0.00000   0.00000   0.00000
  14        9PY         0.00000   0.00000   0.00000   0.00000  -0.10364
  15        9PZ         0.00000   0.00000   0.00000  -0.10108   0.00000
  16       10PX         0.00000   0.00000   0.00000   0.00000   0.00000
  17       10PY         0.00000   0.00000   0.00000   0.00000   1.91141
  18       10PZ         0.00000   0.00000   0.00000   1.92455   0.00000
  19       11PX         0.00000   0.00000   0.00000   0.00000   0.00000
  20       11PY         0.00000   0.00000   0.00000   0.00000  -0.83810
  21       11PZ         0.00000   0.00000   0.00000  -0.84832   0.00000
  22       12D 0        0.00551   0.00000  -0.00000   0.00000   0.00000
  23       12D+1        0.00000   0.00000   0.00000   0.00000   0.00000
  24       12D-1        0.00000   0.00000   0.00000   0.00000   0.00000
  25       12D+2        0.00000   0.00000  -0.00884   0.00000   0.00000
  26       12D-2        0.00000  -0.00887   0.00000   0.00000   0.00000
  27       13D 0        0.13728   0.00000   0.00000   0.00000   0.00000
  28       13D+1        0.00000   0.00000   0.00000   0.00000   0.00000
  29       13D-1        0.00000   0.00000   0.00000   0.00000   0.00000
  30       13D+2       -0.00000   0.00000   0.13153   0.00000   0.00000
  31       13D-2        0.00000   0.13153   0.00000   0.00000   0.00000
  32       14D 0        0.96023   0.00000   0.00000   0.00000   0.00000
  33       14D+1        0.00000   0.00000   0.00000   0.00000   0.00000
  34       14D-1        0.00000   0.00000   0.00000   0.00000   0.00000
  35       14D+2       -0.00000   0.00000   0.97265   0.00000   0.00000
  36       14D-2        0.00000   0.97266   0.00000   0.00000   0.00000
  37       15F 0        0.00000   0.00000   0.00000   0.00118   0.00000
  38       15F+1        0.00000   0.00000   0.00000   0.00000   0.00000
  39       15F-1        0.00000   0.00000   0.00000   0.00000  -0.00195
  40       15F+2        0.00000   0.00000   0.00000  -0.00000   0.00000
  41       15F-2        0.00000   0.00000   0.00000   0.00000   0.00000
  42       15F+3        0.00000   0.00000   0.00000   0.00000   0.00000
  43       15F-3        0.00000   0.00000   0.00000   0.00000  -0.00000
  44       16F 0        0.00000   0.00000   0.00000  -0.01106   0.00000
  45       16F+1        0.00000   0.00000   0.00000   0.00000   0.00000
  46       16F-1        0.00000   0.00000   0.00000   0.00000  -0.00104
  47       16F+2        0.00000   0.00000   0.00000   0.00000   0.00000
  48       16F-2        0.00000   0.00000   0.00000   0.00000   0.00000
  49       16F+3        0.00000   0.00000   0.00000   0.00000   0.00000
  50       16F-3        0.00000   0.00000   0.00000   0.00000   0.00000
                          21        22        23        24        25
                           V         V         V         V         V
     Eigenvalues --     0.41807   0.56408   0.56408   0.56683   0.57479
   1 1   S  1S          0.00000   0.00000   0.00000   0.00195   0.00000
   2        2S          0.00000   0.00000   0.00000   0.01296   0.00000
   3        3S          0.00000   0.00000   0.00000   0.05811   0.00000
   4        4S          0.00000   0.00000   0.00000   0.00119   0.00000
   5        5S          0.00000   0.00000   0.00000  -0.11453   0.00000
   6        6S          0.00000   0.00000   0.00000   0.05083   0.00000
   7        7PX         0.16822   0.00000   0.00000   0.00000   0.00000
   8        7PY         0.00000   0.00000   0.00000   0.00000   0.00000
   9        7PZ         0.00000   0.00000   0.00000   0.00000   0.00000
  10        8PX        -1.25039   0.00000   0.00000   0.00000   0.00000
  11        8PY         0.00000   0.00000   0.00000   0.00000   0.00000
  12        8PZ         0.00000   0.00000   0.00000   0.00000   0.00000
  13        9PX        -0.10364   0.00000   0.00000   0.00000   0.00000
  14        9PY         0.00000   0.00000   0.00000   0.00000   0.00000
  15        9PZ         0.00000   0.00000   0.00000   0.00000   0.00000
  16       10PX         1.91141   0.00000   0.00000   0.00000   0.00000
  17       10PY         0.00000   0.00000   0.00000   0.00000   0.00000
  18       10PZ         0.00000   0.00000   0.00000   0.00000   0.00000
  19       11PX        -0.83810   0.00000   0.00000   0.00000   0.00000
  20       11PY         0.00000   0.00000   0.00000   0.00000   0.00000
  21       11PZ         0.00000   0.00000   0.00000   0.00000   0.00000
  22       12D 0        0.00000   0.00000   0.00000   1.12067   0.00000
  23       12D+1        0.00000   0.00000   1.12280   0.00000   0.00000
  24       12D-1        0.00000   1.12280   0.00000   0.00000   0.00000
  25       12D+2        0.00000   0.00000   0.00000   0.00000   0.00000
  26       12D-2        0.00000   0.00000   0.00000   0.00000   1.12721
  27       13D 0        0.00000   0.00000   0.00000   0.22956   0.00000
  28       13D+1        0.00000   0.00000   0.22863   0.00000   0.00000
  29       13D-1        0.00000   0.22863   0.00000   0.00000   0.00000
  30       13D+2        0.00000   0.00000   0.00000   0.00000   0.00000
  31       13D-2        0.00000   0.00000   0.00000   0.00000   0.22587
  32       14D 0        0.00000   0.00000   0.00000  -0.90004   0.00000
  33       14D+1        0.00000   0.00000  -0.89777   0.00000   0.00000
  34       14D-1        0.00000  -0.89777   0.00000   0.00000   0.00000
  35       14D+2        0.00000   0.00000   0.00000  -0.00000   0.00000
  36       14D-2        0.00000   0.00000   0.00000   0.00000  -0.88838
  37       15F 0        0.00000   0.00000   0.00000   0.00000   0.00000
  38       15F+1       -0.00195   0.00000   0.00000   0.00000   0.00000
  39       15F-1        0.00000   0.00000   0.00000   0.00000   0.00000
  40       15F+2        0.00000   0.00000   0.00000   0.00000   0.00000
  41       15F-2        0.00000   0.00000   0.00000   0.00000   0.00000
  42       15F+3        0.00000   0.00000   0.00000   0.00000   0.00000
  43       15F-3        0.00000   0.00000   0.00000   0.00000   0.00000
  44       16F 0        0.00000   0.00000   0.00000   0.00000   0.00000
  45       16F+1       -0.00104   0.00000   0.00000   0.00000   0.00000
  46       16F-1        0.00000   0.00000   0.00000   0.00000   0.00000
  47       16F+2        0.00000   0.00000   0.00000   0.00000   0.00000
  48       16F-2        0.00000   0.00000   0.00000   0.00000   0.00000
  49       16F+3       -0.00000   0.00000   0.00000   0.00000   0.00000
  50       16F-3        0.00000   0.00000   0.00000   0.00000   0.00000
                          26        27        28        29        30
                           V         V         V     (A2U)--V      V
     Eigenvalues --     0.57479   0.59179   0.69703   0.69703   0.69959
   1 1   S  1S         -0.00000  -0.10380   0.00000   0.00000   0.00000
   2        2S         -0.00000  -0.19020   0.00000   0.00000   0.00000
   3        3S         -0.00000  -2.11320   0.00000   0.00000   0.00000
   4        4S         -0.00000  -0.24149   0.00000   0.00000   0.00000
   5        5S          0.00000   3.59897   0.00000   0.00000   0.00000
   6        6S         -0.00000  -1.57925   0.00000   0.00000   0.00000
   7        7PX         0.00000   0.00000   0.00000   0.00000   0.00000
   8        7PY         0.00000   0.00000   0.00000   0.00000  -0.00000
   9        7PZ         0.00000   0.00000  -0.00000   0.00000   0.00000
  10        8PX         0.00000   0.00000   0.00000   0.00000   0.00000
  11        8PY         0.00000   0.00000   0.00000   0.00000   0.00000
  12        8PZ         0.00000   0.00000   0.00000   0.00000   0.00000
  13        9PX         0.00000   0.00000   0.00000   0.00000   0.00000
  14        9PY         0.00000   0.00000   0.00000   0.00000   0.00000
  15        9PZ         0.00000   0.00000   0.00000   0.00000   0.00000
  16       10PX         0.00000   0.00000   0.00000   0.00000   0.00000
  17       10PY         0.00000   0.00000   0.00000   0.00000  -0.00000
  18       10PZ         0.00000   0.00000  -0.00000   0.00000   0.00000
  19       11PX         0.00000   0.00000   0.00000   0.00000   0.00000
  20       11PY         0.00000   0.00000   0.00000   0.00000  -0.00000
  21       11PZ         0.00000   0.00000   0.00000   0.00000   0.00000
  22       12D 0       -0.00000   0.03390   0.00000   0.00000   0.00000
  23       12D+1        0.00000   0.00000   0.00000   0.00000   0.00000
  24       12D-1        0.00000   0.00000   0.00000   0.00000   0.00000
  25       12D+2        1.12721  -0.00000   0.00000   0.00000   0.00000
  26       12D-2        0.00000   0.00000   0.00000   0.00000   0.00000
  27       13D 0       -0.00000   0.00522   0.00000   0.00000   0.00000
  28       13D+1        0.00000   0.00000   0.00000   0.00000   0.00000
  29       13D-1        0.00000   0.00000   0.00000   0.00000   0.00000
  30       13D+2        0.22587  -0.00000   0.00000   0.00000   0.00000
  31       13D-2        0.00000   0.00000   0.00000   0.00000   0.00000
  32       14D 0        0.00000  -0.02551   0.00000   0.00000   0.00000
  33       14D+1        0.00000   0.00000   0.00000   0.00000   0.00000
  34       14D-1        0.00000   0.00000   0.00000   0.00000   0.00000
  35       14D+2       -0.88839   0.00000   0.00000   0.00000   0.00000
  36       14D-2        0.00000   0.00000   0.00000   0.00000   0.00000
  37       15F 0        0.00000   0.00000   0.00000   0.00000   0.00000
  38       15F+1        0.00000   0.00000   0.00000   0.00000   0.00000
  39       15F-1        0.00000   0.00000   0.00000   0.00000   0.00004
  40       15F+2        0.00000   0.00000  -0.11280   0.00000   0.00000
  41       15F-2        0.00000   0.00000   0.00000  -0.11280   0.00000
  42       15F+3        0.00000   0.00000   0.00000   0.00000   0.00000
  43       15F-3        0.00000   0.00000   0.00000   0.00000  -0.11479
  44       16F 0        0.00000   0.00000  -0.00000   0.00000   0.00000
  45       16F+1        0.00000   0.00000   0.00000   0.00000   0.00000
  46       16F-1        0.00000   0.00000   0.00000   0.00000  -0.00034
  47       16F+2        0.00000   0.00000   1.06603   0.00000   0.00000
  48       16F-2        0.00000   0.00000   0.00000   1.06603   0.00000
  49       16F+3        0.00000   0.00000   0.00000   0.00000   0.00000
  50       16F-3        0.00000   0.00000   0.00000   0.00000   1.06712
                          31        32        33        34        35
                           V         V         V         V     (T2G)--V
     Eigenvalues --     0.69959   0.69991   0.70063   0.70063   1.72025
   1 1   S  1S          0.00000   0.00000   0.00000   0.00000   0.00000
   2        2S          0.00000   0.00000   0.00000   0.00000   0.00000
   3        3S          0.00000   0.00000   0.00000   0.00000   0.00000
   4        4S          0.00000   0.00000   0.00000   0.00000   0.00000
   5        5S          0.00000   0.00000   0.00000   0.00000   0.00000
   6        6S          0.00000   0.00000   0.00000   0.00000   0.00000
   7        7PX         0.00000   0.00000   0.00146   0.00000   0.00000
   8        7PY         0.00000   0.00000   0.00000   0.00146   0.00000
   9        7PZ         0.00000   0.00179   0.00000   0.00000   0.00000
  10        8PX        -0.00000   0.00000  -0.00320   0.00000   0.00000
  11        8PY         0.00000   0.00000   0.00000  -0.00320   0.00000
  12        8PZ         0.00000  -0.01298   0.00000   0.00000   0.00000
  13        9PX        -0.00000   0.00000  -0.00196   0.00000   0.00000
  14        9PY         0.00000   0.00000   0.00000  -0.00196   0.00000
  15        9PZ         0.00000  -0.00121   0.00000   0.00000   0.00000
  16       10PX         0.00000   0.00000   0.00196   0.00000   0.00000
  17       10PY         0.00000   0.00000   0.00000   0.00196   0.00000
  18       10PZ         0.00000   0.01927   0.00000   0.00000   0.00000
  19       11PX         0.00000   0.00000  -0.00148   0.00000   0.00000
  20       11PY         0.00000   0.00000   0.00000  -0.00148   0.00000
  21       11PZ         0.00000  -0.00696   0.00000   0.00000   0.00000
  22       12D 0        0.00000   0.00000   0.00000   0.00000   0.00000
  23       12D+1        0.00000   0.00000   0.00000   0.00000   1.34021
  24       12D-1        0.00000   0.00000   0.00000   0.00000   0.00000
  25       12D+2        0.00000   0.00000   0.00000   0.00000   0.00000
  26       12D-2        0.00000   0.00000   0.00000   0.00000   0.00000
  27       13D 0        0.00000   0.00000   0.00000   0.00000   0.00000
  28       13D+1        0.00000   0.00000   0.00000   0.00000  -1.29973
  29       13D-1        0.00000   0.00000   0.00000   0.00000   0.00000
  30       13D+2        0.00000   0.00000   0.00000   0.00000   0.00000
  31       13D-2        0.00000   0.00000   0.00000   0.00000   0.00000
  32       14D 0        0.00000   0.00000   0.00000   0.00000   0.00000
  33       14D+1        0.00000   0.00000   0.00000   0.00000  -0.55803
  34       14D-1        0.00000   0.00000   0.00000   0.00000   0.00000
  35       14D+2        0.00000   0.00000   0.00000   0.00000   0.00000
  36       14D-2        0.00000   0.00000   0.00000   0.00000   0.00000
  37       15F 0        0.00000  -0.11194   0.00000   0.00000   0.00000
  38       15F+1       -0.00004   0.00000  -0.11197   0.00000   0.00000
  39       15F-1        0.00000   0.00000   0.00000  -0.11197   0.00000
  40       15F+2        0.00000  -0.00000   0.00000   0.00000   0.00000
  41       15F-2        0.00000   0.00000   0.00000   0.00000   0.00000
  42       15F+3       -0.11479   0.00000   0.00004   0.00000   0.00000
  43       15F-3        0.00000   0.00000   0.00000  -0.00004   0.00000
  44       16F 0        0.00000   1.06550   0.00000   0.00000   0.00000
  45       16F+1        0.00034   0.00000   1.06556   0.00000   0.00000
  46       16F-1        0.00000   0.00000   0.00000   1.06556   0.00000
  47       16F+2        0.00000   0.00000   0.00000   0.00000   0.00000
  48       16F-2        0.00000   0.00000   0.00000   0.00000   0.00000
  49       16F+3        1.06712   0.00000  -0.00034   0.00000   0.00000
  50       16F-3        0.00000   0.00000   0.00000   0.00034   0.00000
                          36        37        38        39        40
                       (T2G)--V   (EG)--V  (T2G)--V   (EG)--V      V
     Eigenvalues --     1.72025   1.72311   1.72361   1.72362   2.00223
   1 1   S  1S          0.00000   0.00041   0.00000   0.00000   0.00000
   2        2S          0.00000  -0.00631   0.00000  -0.00000   0.00000
   3        3S          0.00000  -0.00372   0.00000  -0.00000   0.00000
   4        4S          0.00000   0.00784   0.00000   0.00000   0.00000
   5        5S          0.00000   0.00281   0.00000   0.00000   0.00000
   6        6S          0.00000  -0.00063   0.00000  -0.00000   0.00000
   7        7PX         0.00000   0.00000   0.00000   0.00000   0.00000
   8        7PY         0.00000   0.00000   0.00000   0.00000   0.00000
   9        7PZ         0.00000   0.00000   0.00000   0.00000   0.64975
  10        8PX         0.00000   0.00000   0.00000   0.00000   0.00000
  11        8PY         0.00000   0.00000   0.00000   0.00000   0.00000
  12        8PZ         0.00000   0.00000   0.00000   0.00000   2.18340
  13        9PX         0.00000   0.00000   0.00000   0.00000   0.00000
  14        9PY         0.00000   0.00000   0.00000   0.00000   0.00000
  15        9PZ         0.00000   0.00000   0.00000   0.00000  -1.95453
  16       10PX         0.00000   0.00000   0.00000   0.00000   0.00000
  17       10PY         0.00000   0.00000   0.00000   0.00000   0.00000
  18       10PZ         0.00000   0.00000   0.00000   0.00000  -1.13161
  19       11PX         0.00000   0.00000   0.00000   0.00000   0.00000
  20       11PY         0.00000   0.00000   0.00000   0.00000   0.00000
  21       11PZ         0.00000   0.00000   0.00000   0.00000   0.34804
  22       12D 0        0.00000   1.34152   0.00000   0.00000   0.00000
[...]
  44       16F 0       -0.00000   0.00000   0.00000   0.00000   0.00000
  45       16F+1       -0.00000   0.00000   0.00000   0.00000   0.00000
  46       16F-1       -0.00000   0.00000   0.00000   0.00000   0.00000
  47       16F+2       -0.00000   0.00000   0.00000   0.00000   0.00000
  48       16F-2        0.00000   0.00000   0.00000   0.00000   0.00000
  49       16F+3        0.00000   0.00000   0.00000   0.00000   0.00000
  50       16F-3        0.00000   0.00000   0.00000   0.00000   0.00000
                          26        27        28        29        30
  26       12D-2        0.00000
  27       13D 0        0.00000   0.00041
  28       13D+1        0.00000  -0.00000   0.00000
  29       13D-1        0.00000  -0.00000   0.00000   0.00000
  30       13D+2       -0.00000  -0.00000   0.00000   0.00000   0.00000
  31       13D-2        0.00000   0.00000   0.00000   0.00000   0.00000
  32       14D 0       -0.00000   0.00000  -0.00000  -0.00000   0.00000
  33       14D+1        0.00000  -0.00000   0.00000   0.00000  -0.00000
  34       14D-1        0.00000  -0.00000   0.00000   0.00000   0.00000
  35       14D+2        0.00000   0.00000  -0.00000   0.00000  -0.00000
  36       14D-2        0.00000   0.00000   0.00000   0.00000  -0.00000
  37       15F 0        0.00000   0.00000   0.00000   0.00000   0.00000
  38       15F+1        0.00000   0.00000   0.00000   0.00000   0.00000
  39       15F-1        0.00000   0.00000   0.00000   0.00000   0.00000
  40       15F+2        0.00000   0.00000   0.00000   0.00000   0.00000
  41       15F-2        0.00000   0.00000   0.00000   0.00000   0.00000
  42       15F+3        0.00000   0.00000   0.00000   0.00000   0.00000
  43       15F-3        0.00000   0.00000   0.00000   0.00000   0.00000
  44       16F 0        0.00000   0.00000   0.00000   0.00000   0.00000
  45       16F+1        0.00000   0.00000   0.00000   0.00000   0.00000
  46       16F-1        0.00000   0.00000   0.00000   0.00000   0.00000
  47       16F+2        0.00000   0.00000   0.00000   0.00000   0.00000
  48       16F-2        0.00000   0.00000   0.00000   0.00000   0.00000
  49       16F+3        0.00000   0.00000   0.00000   0.00000   0.00000
  50       16F-3        0.00000   0.00000   0.00000   0.00000   0.00000
                          31        32        33        34        35
  31       13D-2       -0.00000
  32       14D 0        0.00000   0.00000
  33       14D+1        0.00000  -0.00000   0.00000
  34       14D-1        0.00000   0.00000   0.00000   0.00000
  35       14D+2       -0.00000  -0.00000  -0.00000   0.00000   0.00000
  36       14D-2        0.00000   0.00000   0.00000   0.00000  -0.00000
  37       15F 0        0.00000   0.00000   0.00000   0.00000   0.00000
  38       15F+1        0.00000   0.00000   0.00000   0.00000   0.00000
  39       15F-1        0.00000   0.00000   0.00000   0.00000   0.00000
  40       15F+2        0.00000   0.00000   0.00000   0.00000   0.00000
  41       15F-2        0.00000   0.00000   0.00000   0.00000   0.00000
  42       15F+3        0.00000   0.00000   0.00000   0.00000   0.00000
  43       15F-3        0.00000   0.00000   0.00000   0.00000   0.00000
  44       16F 0        0.00000   0.00000   0.00000   0.00000   0.00000
  45       16F+1        0.00000   0.00000   0.00000   0.00000   0.00000
  46       16F-1        0.00000   0.00000   0.00000   0.00000   0.00000
  47       16F+2        0.00000   0.00000   0.00000   0.00000   0.00000
  48       16F-2        0.00000   0.00000   0.00000   0.00000   0.00000
  49       16F+3        0.00000   0.00000   0.00000   0.00000   0.00000
  50       16F-3        0.00000   0.00000   0.00000   0.00000   0.00000
                          36        37        38        39        40
  36       14D-2        0.00000
  37       15F 0        0.00000   0.00018
  38       15F+1        0.00000  -0.00000   0.00012
  39       15F-1        0.00000   0.00000  -0.00000   0.00012
  40       15F+2        0.00000  -0.00000   0.00000  -0.00000  -0.00000
  41       15F-2        0.00000  -0.00000  -0.00000   0.00000   0.00000
  42       15F+3        0.00000  -0.00000   0.00000   0.00000  -0.00000
  43       15F-3        0.00000   0.00000   0.00000   0.00000  -0.00000
  44       16F 0        0.00000   0.00008  -0.00000   0.00000  -0.00000
  45       16F+1        0.00000   0.00000   0.00004  -0.00000  -0.00000
  46       16F-1        0.00000   0.00000   0.00000   0.00004  -0.00000
  47       16F+2        0.00000   0.00000   0.00000  -0.00000  -0.00000
  48       16F-2        0.00000   0.00000  -0.00000   0.00000  -0.00000
  49       16F+3        0.00000  -0.00000   0.00000   0.00000  -0.00000
  50       16F-3        0.00000   0.00000   0.00000   0.00000   0.00000
                          41        42        43        44        45
  41       15F-2        0.00000
  42       15F+3        0.00000   0.00000
  43       15F-3       -0.00000  -0.00000   0.00000
  44       16F 0       -0.00000   0.00000   0.00000   0.00009
  45       16F+1       -0.00000   0.00000   0.00000  -0.00000   0.00004
  46       16F-1       -0.00000   0.00000   0.00000   0.00000   0.00000
  47       16F+2       -0.00000  -0.00000  -0.00000   0.00000  -0.00000
  48       16F-2        0.00000   0.00000   0.00000  -0.00000  -0.00000
  49       16F+3        0.00000  -0.00000   0.00000  -0.00000   0.00000
  50       16F-3        0.00000  -0.00000  -0.00000   0.00000   0.00000
                          46        47        48        49        50
  46       16F-1        0.00004
  47       16F+2        0.00000  -0.00000
  48       16F-2       -0.00000   0.00000   0.00000
  49       16F+3        0.00000  -0.00000   0.00000   0.00000
  50       16F-3        0.00000  -0.00000  -0.00000  -0.00000   0.00000
     Gross orbital populations:
                         Total     Alpha     Beta      Spin
   1 1   S  1S          1.99997   0.99998   0.99998  -0.00000
   2        2S          1.88629   0.94347   0.94282   0.00065
   3        3S          1.17818   0.60739   0.57079   0.03660
   4        4S          0.25725   0.12440   0.13285  -0.00845
   5        5S          0.66969   0.32359   0.34610  -0.02250
   6        6S          0.00713  -0.00003   0.00716  -0.00719
   7        7PX         1.94281   0.97707   0.96574   0.01133
   8        7PY         1.94281   0.97707   0.96574   0.01133
   9        7PZ         1.95401   0.97719   0.97682   0.00037
  10        8PX         0.54249   0.54381  -0.00133   0.54514
  11        8PY         0.54249   0.54381  -0.00133   0.54514
  12        8PZ         1.00033   0.51231   0.48802   0.02430
  13        9PX         0.23380   0.19838   0.03542   0.16296
  14        9PY         0.23380   0.19838   0.03542   0.16296
  15        9PZ         0.38409   0.19358   0.19050   0.00308
  16       10PX         0.27542   0.27524   0.00018   0.27506
  17       10PY         0.27542   0.27524   0.00018   0.27506
  18       10PZ         0.63039   0.30412   0.32627  -0.02214
  19       11PX         0.00523   0.00524  -0.00001   0.00526
  20       11PY         0.00523   0.00524  -0.00001   0.00526
  21       11PZ         0.03077   0.01238   0.01839  -0.00602
  22       12D 0        0.00080   0.00064   0.00016   0.00048
  23       12D+1        0.00000   0.00000   0.00000   0.00000
  24       12D-1        0.00000   0.00000   0.00000   0.00000
  25       12D+2        0.00000   0.00000   0.00000  -0.00000
  26       12D-2        0.00000   0.00000  -0.00000   0.00000
  27       13D 0        0.00068   0.00056   0.00012   0.00044
  28       13D+1        0.00000   0.00000   0.00000   0.00000
  29       13D-1        0.00000   0.00000   0.00000   0.00000
  30       13D+2        0.00000   0.00000  -0.00000   0.00000
  31       13D-2       -0.00000  -0.00000  -0.00000  -0.00000
  32       14D 0        0.00002  -0.00000   0.00002  -0.00003
  33       14D+1        0.00000  -0.00000   0.00000  -0.00000
  34       14D-1        0.00000  -0.00000   0.00000  -0.00000
  35       14D+2        0.00000  -0.00000   0.00000  -0.00000
  36       14D-2        0.00000   0.00000   0.00000  -0.00000
  37       15F 0        0.00026   0.00025   0.00000   0.00025
  38       15F+1        0.00017   0.00017   0.00000   0.00017
  39       15F-1        0.00017   0.00017   0.00000   0.00017
  40       15F+2       -0.00000  -0.00000   0.00000  -0.00000
  41       15F-2        0.00000   0.00000   0.00000   0.00000
  42       15F+3        0.00000   0.00000  -0.00000   0.00000
  43       15F-3       -0.00000   0.00000  -0.00000   0.00000
  44       16F 0        0.00016   0.00016  -0.00000   0.00016
  45       16F+1        0.00009   0.00009   0.00000   0.00009
  46       16F-1        0.00009   0.00009   0.00000   0.00009
  47       16F+2       -0.00000  -0.00000   0.00000  -0.00000
  48       16F-2        0.00000   0.00000   0.00000   0.00000
  49       16F+3        0.00000  -0.00000   0.00000  -0.00000
  50       16F-3        0.00000  -0.00000   0.00000  -0.00000
          Condensed to atoms (all electrons):
               1
     1  S   16.000000
          Atomic-Atomic Spin Densities.
               1
     1  S    2.000000
 Mulliken charges and spin densities:
               1          2
     1  S    0.000000   2.000000
 Sum of Mulliken charges =   0.00000   2.00000
 Mulliken charges and spin densities with hydrogens summed into heavy atoms:
               1          2
     1  S    0.000000   2.000000
 Electronic spatial extent (au):  <R**2>=             29.2747
 Charge=             -0.0000 electrons
 Dipole moment (field-independent basis, Debye):
    X=              0.0000    Y=              0.0000    Z=              0.0000  Tot=              0.0000
 Quadrupole moment (field-independent basis, Debye-Ang):
   XX=            -12.1953   YY=            -12.1953   ZZ=            -14.9849
   XY=             -0.0000   XZ=             -0.0000   YZ=              0.0000
 Traceless Quadrupole moment (field-independent basis, Debye-Ang):
   XX=              0.9299   YY=              0.9299   ZZ=             -1.8597
   XY=             -0.0000   XZ=             -0.0000   YZ=              0.0000
 Octapole moment (field-independent basis, Debye-Ang**2):
  XXX=              0.0000  YYY=              0.0000  ZZZ=              0.0000  XYY=              0.0000
  XXY=              0.0000  XXZ=              0.0000  XZZ=              0.0000  YZZ=              0.0000
  YYZ=              0.0000  XYZ=              0.0000
 Hexadecapole moment (field-independent basis, Debye-Ang**3):
 XXXX=            -15.6784 YYYY=            -15.6784 ZZZZ=            -23.8565 XXXY=              0.0000
 XXXZ=             -0.0000 YYYX=             -0.0000 YYYZ=              0.0000 ZZZX=             -0.0000
 ZZZY=              0.0000 XXYY=             -5.2261 XXZZ=             -6.5945 YYZZ=             -6.5945
 XXYZ=              0.0000 YYXZ=             -0.0000 ZZXY=             -0.0000
 N-N= 0.000000000000D+00 E-N=-9.463864488652D+02  KE= 3.969810619816D+02
 Symmetry AG   KE= 2.844559794390D+02
 Symmetry B1G  KE=-7.061477896321D-53
 Symmetry B2G  KE= 1.376432003093D-35
 Symmetry B3G  KE= 1.376432003093D-35
 Symmetry AU   KE= 4.426172112074D-36
 Symmetry B1U  KE= 3.868845273950D+01
 Symmetry B2U  KE= 3.691831490159D+01
 Symmetry B3U  KE= 3.691831490159D+01
 Symmetry AG   SP= 8.290094441590D-16
 Symmetry B1G  SP= 2.203366302690D-53
 Symmetry B2G  SP= 5.072572949811D-36
 Symmetry B3G  SP= 5.072572949811D-36
 Symmetry AU   SP= 2.381477303712D-36
 Symmetry B1U  SP= 1.808602676063D-15
 Symmetry B2U  SP= 1.000000000000D+00
 Symmetry B3U  SP= 1.000000000000D+00
 Orbital energies and kinetic energies (alpha):
                                 1                 2
   1         (A1G)--O        -88.952680        121.133727
   2         (A1G)--O         -7.999169         18.424256
   3         (T1U)--O         -5.968782         17.485498
   4         (T1U)--O         -5.968782         17.485498
   5         (T1U)--O         -5.949752         17.504690
   6         O                -0.728022          2.683641
   7         O                -0.337111          1.948833
   8         O                -0.337111          1.948833
   9         O                -0.290033          1.868679
  10         V                 0.024644          0.420771
  11         V                 0.048149          0.263198
  12         V                 0.048149          0.263198
  13         V                 0.051558          0.275810
  14         V                 0.141164          0.478706
  15         V                 0.141164          0.478706
  16         V                 0.154189          0.451727
  17         V                 0.154189          0.451727
  18         V                 0.159641          0.444985
  19         V                 0.383162          1.399551
  20         V                 0.383162          1.399551
  21         V                 0.403619          1.441842
  22         V                 0.502390          1.282670
  23         V                 0.502390          1.282670
  24         V                 0.527228          1.298271
  25         V                 0.527228          1.298271
  26         V                 0.537096          1.302654
  27         V                 0.561762          2.427521
  28         V                 0.664982          0.942808
  29         V                 0.664982          0.942808
  30         V                 0.677704          0.940865
  31         (A2U)--V          0.677704          0.940865
  32         V                 0.685817          0.939807
  33         V                 0.685817          0.939807
  34         V                 0.688888          0.939362
  35         (T2G)--V          1.657228          3.328051
  36         V                 1.657228          3.328051
  37         (T2G)--V          1.686217          3.339427
  38         (T2G)--V          1.686217          3.339427
  39         V                 1.696699          3.342974
  40         V                 1.951851          7.543345
  41         V                 1.951851          7.543345
  42         V                 1.988322          7.515311
  43         V                 1.989730          2.961636
  44         V                 1.989730          2.961636
  45         V                 2.015876          2.963579
  46         (A2U)--V          2.015876          2.963579
  47         V                 2.032264          2.973108
  48         V                 2.032264          2.973108
  49         V                 2.038327          3.007646
  50         (A1G)--V          3.693185         12.171327
 Orbital energies and kinetic energies (beta):
                                 1                 2
   1         (A1G)--O        -88.941734        121.139947
   2         (A1G)--O         -7.988196         18.427376
   3         (T1U)--O         -5.947132         17.483983
   4         (T1U)--O         -5.947132         17.483983
   5         (T1U)--O         -5.943326         17.504942
   6         O                -0.635011          2.647033
   7         O                -0.265239          1.810142
   8         V                -0.180000          1.670321
   9         V                -0.180000          1.670321
  10         (A1G)--V          0.031940          0.417727
  11         V                 0.052126          0.291930
  12         V                 0.056855          0.337983
  13         V                 0.056855          0.337983
  14         V                 0.167808          0.414901
  15         V                 0.167808          0.414901
  16         V                 0.171245          0.417310
  17         V                 0.173421          0.407337
  18         V                 0.173428          0.407345
  19         V                 0.411083          1.474400
  20         V                 0.418068          1.547529
  21         V                 0.418068          1.547529
  22         V                 0.564081          1.314140
  23         V                 0.564081          1.314140
  24         V                 0.566833          1.313307
  25         V                 0.574786          1.316052
  26         V                 0.574791          1.316048
  27         V                 0.591790          2.473683
  28         V                 0.697029          0.936414
  29         (A2U)--V          0.697029          0.936414
  30         V                 0.699587          0.935910
  31         V                 0.699587          0.935910
  32         V                 0.699911          0.936702
  33         V                 0.700633          0.936669
  34         V                 0.700633          0.936669
  35         (T2G)--V          1.720255          3.360385
  36         (T2G)--V          1.720255          3.360385
  37         (EG)--V           1.723113          3.358617
  38         (T2G)--V          1.723613          3.366037
  39         (EG)--V           1.723615          3.366034
  40         V                 2.002225          7.565242
  41         V                 2.004487          7.608705
  42         V                 2.004487          7.608705
  43         V                 2.071236          2.968029
  44         (A2U)--V          2.071236          2.968029
  45         V                 2.072577          2.969982
  46         V                 2.073387          2.968150
  47         V                 2.073387          2.968150
  48         V                 2.078781          2.968534
  49         V                 2.078781          2.968534
  50         (A1G)--V          3.722130         12.156856
 Total kinetic energy from orbitals= 3.969810619816D+02
                          Isotropic Fermi Contact Couplings
        Atom                 a.u.       MegaHertz       Gauss      10(-4) cm-1
     1  S(33)              0.12233      21.00869       7.49642       7.00774
 --------------------------------------------------------
       Center         ----  Spin Dipole Couplings  ----
                      3XX-RR        3YY-RR        3ZZ-RR
 --------------------------------------------------------
     1   Atom        2.091531      2.091531     -4.183062
 --------------------------------------------------------
                        XY            XZ            YZ
 --------------------------------------------------------
     1   Atom        0.000000      0.000000      0.000000
 --------------------------------------------------------


 ---------------------------------------------------------------------------------
              Anisotropic Spin Dipole Couplings in Principal Axis System
 ---------------------------------------------------------------------------------

       Atom             a.u.   MegaHertz   Gauss  10(-4) cm-1        Axes

              Baa    -4.1831  -171.502   -61.196   -57.207  0.0000  0.0000  1.0000
     1 S(33)  Bbb     2.0915    85.751    30.598    28.603  1.0000  0.0000  0.0000
              Bcc     2.0915    85.751    30.598    28.603 -0.0000  1.0000  0.0000
 

 ---------------------------------------------------------------------------------

 1\1\GINC-LOGIN\SP\UB3LYP\Aug-CC-pVTZ\S1(3)\C7441090\20-Nov-2023\0\\# B
 3LYP/aug-cc-pVTZ EmpiricalDispersion=GD3 Pop=Full\\Sulphur\\0,3\S,0,0.
 ,0.,0.\\Version=ES64L-G16RevA.03\HF=-398.1393085\S2=2.004086\S2-1=0.\S
 2A=2.000005\RMSD=7.377e-09\Dipole=0.,0.,0.\Quadrupole=-1.3826489,0.691
 3244,0.6913244,0.,0.,0.\PG=OH [O(S1)]\\@


 WE HAVE LEARNED THAT NOTHING IS SIMPLE AND
 RATIONAL EXCEPT WHAT WE OURSELVES HAVE INVENTED;
 THAT GOD THINKS IN TERMS NEITHER OF EUCLID OR RIEMANN; THAT SCIENCE HAS "EXPLAINED" NOTHING;
 THAT THE MORE WE KNOW THE MORE FANTASTIC THE WORLD BECOMES
 AND THE PROFOUNDER THE SURROUNDING DARKNESS.
   --  ALDOUS HUXLEY
 Job cpu time:       0 days  0 hours  0 minutes 23.2 seconds.
 Elapsed time:       0 days  0 hours  0 minutes 12.1 seconds.
 File lengths (MBytes):  RWF=      5 Int=      0 D2E=      0 Chk=      1 Scr=      1
 Normal termination of Gaussian 16 at Mon Nov 20 23:53:22 2023.
