Sillicon                                                                
SP        UB3LYP                                                      Aug-CC-pVTZ         
Number of atoms                            I                1
Info1-9                                    I   N=           9
          12          11           0           0           0         110
           1          18        -502
Full Title                                 C   N=           1
Sillicon    
Route                                      C   N=           5
# B3LYP/aug-cc-pVTZ EmpiricalDispersion=GD3 Pop=Full        
Charge                                     I                0
Multiplicity                               I                3
Number of electrons                        I               14
Number of alpha electrons                  I                8
Number of beta electrons                   I                6
Number of basis functions                  I               50
Number of independent functions            I               50
Number of point charges in /Mol/           I                0
Number of translation vectors              I                0
Atomic numbers                             I   N=           1
          14
Nuclear charges                            R   N=           1
  1.40000000E+01
Current cartesian coordinates              R   N=           3
  0.00000000E+00  0.00000000E+00  0.00000000E+00
Number of symbols in /Mol/                 I                0
Force Field                                I                0
Atom Types                                 C   N=           1
            
Int Atom Types                             I   N=           1
           0
MM charges                                 R   N=           1
  0.00000000E+00
Integer atomic weights                     I   N=           1
          28
Real atomic weights                        R   N=           1
  2.79769284E+01
Atom fragment info                         I   N=           1
           0
Atom residue num                           I   N=           1
           0
Nuclear spins                              I   N=           1
           0
Nuclear ZEff                               R   N=           1
 -1.22500000E+01
Nuclear ZNuc                               R   N=           1
  1.40000000E+01
Nuclear QMom                               R   N=           1
  0.00000000E+00
Nuclear GFac                               R   N=           1
  0.00000000E+00
MicOpt                                     I   N=           1
          -1
Number of residues                         I                0
Number of secondary structures             I                0
SymInf integers                            I   N=          26
           1           8           1           1           1           1
          -1          -1          -1           1          -1          -1
          -1           1          -1          -1          -1          -1
           1           1           1          -1           1           1
           1          -1
RotTr to input orientation                 R   N=          12
  0.00000000E+00  0.00000000E+00 -1.00000000E+00  0.00000000E+00  1.00000000E+00
  0.00000000E+00  1.00000000E+00  0.00000000E+00  0.00000000E+00  0.00000000E+00
  0.00000000E+00  0.00000000E+00
Number of contracted shells                I               16
Number of primitive shells                 I               52
Pure/Cartesian d shells                    I                0
Pure/Cartesian f shells                    I                0
Highest angular momentum                   I                3
Largest degree of contraction              I               11
Shell types                                I   N=          16
           0           0           0           0           0           0
           1           1           1           1           1          -2
          -2          -2          -3          -3
Number of primitives per shell             I   N=          16
          11           9           9           1           1           1
           6           6           1           1           1           1
           1           1           1           1
Shell to atom map                          I   N=          16
           1           1           1           1           1           1
           1           1           1           1           1           1
           1           1           1           1
Primitive exponents                        R   N=          52
  2.54900000E+05  3.81900000E+04  8.69000000E+03  2.46200000E+03  8.04800000E+02
  2.91300000E+02  1.13600000E+02  4.67500000E+01  1.98200000E+01  7.70800000E+00
  1.40200000E+00  2.46200000E+03  8.04800000E+02  2.91300000E+02  1.13600000E+02
  4.67500000E+01  1.98200000E+01  7.70800000E+00  3.34000000E+00  1.40200000E+00
  2.46200000E+03  8.04800000E+02  1.13600000E+02  4.67500000E+01  1.98200000E+01
  7.70800000E+00  3.34000000E+00  1.40200000E+00  2.07000000E-01  4.38700000E-01
  7.94400000E-02  3.30000000E-02  4.81500000E+02  1.13900000E+02  3.62300000E+01
  1.33400000E+01  5.25200000E+00  2.12000000E+00  1.13900000E+02  3.62300000E+01
  1.33400000E+01  5.25200000E+00  2.12000000E+00  2.52800000E-01  8.56100000E-01
  7.88900000E-02  2.37000000E-02  1.59000000E-01  4.81000000E-01  5.56000000E-02
  3.36000000E-01  1.25000000E-01
Contraction coefficients                   R   N=          52
  6.23808854E-05  4.84546669E-04  2.53989321E-03  1.05645655E-02  3.68007870E-02
  1.07242660E-01  2.47338299E-01  3.89753407E-01  3.00671639E-01  5.65009063E-02
  6.22699151E-03 -1.75205873E-05 -2.18119795E-04 -1.90366229E-03 -1.15494592E-02
 -4.97638284E-02 -9.93807215E-02  9.43117578E-02  5.43538571E-01  4.75977011E-01
 -1.68614118E-06  4.74659897E-06  2.34073548E-04  9.11318130E-04  4.03412152E-03
 -5.45760787E-03 -7.22127359E-02 -3.18258718E-01  1.14221350E+00  1.00000000E+00
  1.00000000E+00  1.00000000E+00  2.08554947E-03  1.66761984E-02  7.75389353E-02
  2.31398738E-01  4.23936773E-01  4.27794746E-01 -2.18494427E-04 -4.05138767E-04
 -7.28593974E-03 -5.75761504E-03 -5.33706056E-02  1.01513965E+00  1.00000000E+00
  1.00000000E+00  1.00000000E+00  1.00000000E+00  1.00000000E+00  1.00000000E+00
  1.00000000E+00  1.00000000E+00
Coordinates of each shell                  R   N=          48
  0.00000000E+00  0.00000000E+00  0.00000000E+00  0.00000000E+00  0.00000000E+00
  0.00000000E+00  0.00000000E+00  0.00000000E+00  0.00000000E+00  0.00000000E+00
  0.00000000E+00  0.00000000E+00  0.00000000E+00  0.00000000E+00  0.00000000E+00
  0.00000000E+00  0.00000000E+00  0.00000000E+00  0.00000000E+00  0.00000000E+00
  0.00000000E+00  0.00000000E+00  0.00000000E+00  0.00000000E+00  0.00000000E+00
  0.00000000E+00  0.00000000E+00  0.00000000E+00  0.00000000E+00  0.00000000E+00
  0.00000000E+00  0.00000000E+00  0.00000000E+00  0.00000000E+00  0.00000000E+00
  0.00000000E+00  0.00000000E+00  0.00000000E+00  0.00000000E+00  0.00000000E+00
  0.00000000E+00  0.00000000E+00  0.00000000E+00  0.00000000E+00  0.00000000E+00
  0.00000000E+00  0.00000000E+00  0.00000000E+00
Num ILSW                                   I              100
ILSW                                       I   N=         100
           1           0           0           0           2           0
           0           0           0           0         402          -1
           5           0           0           0           0           0
           0           0           1           0           0           0
           1           0           0           0           0           0
           0           0      100000           0          -1           0
           0           0           0           0           0           0
           0           0           0           1           0           0
           0 -2000000000           1           0           0           0
           0           1         131          52           0           0
           0           0           5           0           0           0
           0           0           0           0           0           1
           0           0           0           0           0           0
           0           0           0           0           0           0
           0           0           0           0           0           0
           0           0           0           0           0           0
           0           0           0           0
Num RLSW                                   I               52
RLSW                                       R   N=          52
  8.00000000E-01  7.20000000E-01  1.00000000E+00  8.10000000E-01  2.00000000E-01
  0.00000000E+00  0.00000000E+00  1.00000000E+00  0.00000000E+00  0.00000000E+00
  0.00000000E+00  0.00000000E+00  1.00000000E+00  0.00000000E+00  0.00000000E+00
  0.00000000E+00  0.00000000E+00  1.00000000E+00  0.00000000E+00  0.00000000E+00
  0.00000000E+00  0.00000000E+00  1.00000000E+00  0.00000000E+00  0.00000000E+00
  0.00000000E+00  0.00000000E+00  1.00000000E+00  0.00000000E+00  0.00000000E+00
  0.00000000E+00  0.00000000E+00  1.00000000E+00  0.00000000E+00  0.00000000E+00
  0.00000000E+00  0.00000000E+00  0.00000000E+00  1.00000000E+00  1.00000000E+00
  0.00000000E+00  1.00000000E+00  0.00000000E+00  0.00000000E+00  0.00000000E+00
  0.00000000E+00  0.00000000E+00  0.00000000E+00  0.00000000E+00  0.00000000E+00
  0.00000000E+00  0.00000000E+00
MxBond                                     I                1
NBond                                      I   N=           1
           0
IBond                                      I   N=           1
           0
RBond                                      R   N=           1
  0.00000000E+00
Virial Ratio                               R      2.003228916982940E+00
SCF Energy                                 R     -2.893967727965289E+02
Total Energy                               R     -2.893967727965289E+02
S**2                                       R      2.003959601633925E+00
S**2 after annihilation                    R      2.000000022865489E+00
RMS Density                                R      1.334722184693388E-09
Job Status                                 I                1
Nuclear derivative order                   I                0
External E-field                           R   N=          35
  0.00000000E+00  0.00000000E+00  0.00000000E+00  0.00000000E+00  0.00000000E+00
  0.00000000E+00  0.00000000E+00  0.00000000E+00  0.00000000E+00  0.00000000E+00
  0.00000000E+00  0.00000000E+00  0.00000000E+00  0.00000000E+00  0.00000000E+00
  0.00000000E+00  0.00000000E+00  0.00000000E+00  0.00000000E+00  0.00000000E+00
  0.00000000E+00  0.00000000E+00  0.00000000E+00  0.00000000E+00  0.00000000E+00
  0.00000000E+00  0.00000000E+00  0.00000000E+00  0.00000000E+00  0.00000000E+00
  0.00000000E+00  0.00000000E+00  0.00000000E+00  0.00000000E+00  0.00000000E+00
IOpCl                                      I                1
IROHF                                      I                0
Alpha Orbital Energies                     R   N=          50
 -6.61819848E+01 -5.31691059E+00 -3.67875212E+00 -3.67516170E+00 -3.67516170E+00
 -4.56428099E-01 -1.94444202E-01 -1.94444202E-01 -1.29534205E-01  1.11258038E-02
  3.36115301E-02  3.36115301E-02  3.67228288E-02  7.97248144E-02  7.97248424E-02
  8.09090583E-02  8.09090583E-02  8.56204518E-02  3.09322953E-01  3.09322974E-01
  3.12315635E-01  3.12315635E-01  3.14742843E-01  3.14742843E-01  3.19026877E-01
  3.20905604E-01  3.39239921E-01  3.79814724E-01  3.79814764E-01  3.81088801E-01
  3.81088801E-01  3.81821889E-01  3.81821889E-01  3.83887618E-01  1.04643487E+00
  1.04643487E+00  1.04694673E+00  1.04694674E+00  1.05049913E+00  1.21453422E+00
  1.21453423E+00  1.21588776E+00  1.21588776E+00  1.21790371E+00  1.21790371E+00
  1.22156905E+00  2.12257849E+00  2.12555501E+00  2.12555501E+00  2.23595521E+00
Beta Orbital Energies                      R   N=          50
 -6.61756539E+01 -5.31015148E+00 -3.67530638E+00 -3.66171927E+00 -3.66171927E+00
 -3.92507162E-01 -1.14041335E-01 -8.34502272E-02 -8.34502272E-02  1.76678258E-02
  3.81842872E-02  4.40722068E-02  4.40722068E-02  9.08871420E-02  9.17484779E-02
  9.17484779E-02  9.96524838E-02  9.96524838E-02  3.26548400E-01  3.37368513E-01
  3.42922772E-01  3.42922772E-01  3.47695367E-01  3.47695367E-01  3.60035997E-01
  3.62662787E-01  3.62662787E-01  3.90887135E-01  3.92167714E-01  3.92167714E-01
  3.96524298E-01  3.96524298E-01  4.06039533E-01  4.06039533E-01  1.06496032E+00
  1.07193644E+00  1.07193644E+00  1.09489463E+00  1.09489463E+00  1.24444718E+00
  1.24849924E+00  1.24849924E+00  1.25994037E+00  1.25994037E+00  1.27979353E+00
  1.27979353E+00  2.12831623E+00  2.15478584E+00  2.15478584E+00  2.25540323E+00
Alpha MO coefficients                      R   N=        2500
  1.00197372E+00 -4.78577227E-03  4.09744990E-03 -4.42193131E-03 -2.66502137E-03
  9.22678412E-04  0.00000000E+00  0.00000000E+00  0.00000000E+00  0.00000000E+00
  0.00000000E+00  0.00000000E+00  0.00000000E+00  0.00000000E+00  0.00000000E+00
  0.00000000E+00  0.00000000E+00  0.00000000E+00  0.00000000E+00  0.00000000E+00
  0.00000000E+00  1.34533724E-07  0.00000000E+00  0.00000000E+00  2.33019244E-07
  0.00000000E+00 -1.70369532E-06  0.00000000E+00  0.00000000E+00 -2.95088685E-06
  0.00000000E+00 -1.50988108E-07  0.00000000E+00  0.00000000E+00 -2.61519075E-07
  0.00000000E+00  0.00000000E+00  0.00000000E+00  0.00000000E+00  0.00000000E+00
  0.00000000E+00  0.00000000E+00  0.00000000E+00  0.00000000E+00  0.00000000E+00
  0.00000000E+00  0.00000000E+00  0.00000000E+00  0.00000000E+00  0.00000000E+00
 -2.66294566E-01  9.85308879E-01 -2.56601277E-02  7.78416963E-02  1.18301278E-02
 -3.64234274E-03  0.00000000E+00  0.00000000E+00  0.00000000E+00  0.00000000E+00
  0.00000000E+00  0.00000000E+00  0.00000000E+00  0.00000000E+00  0.00000000E+00
  0.00000000E+00  0.00000000E+00  0.00000000E+00  0.00000000E+00  0.00000000E+00
  0.00000000E+00  1.81064833E-04  0.00000000E+00  0.00000000E+00  3.13613490E-04
  0.00000000E+00 -1.93968907E-04  0.00000000E+00  0.00000000E+00 -3.35964002E-04
  0.00000000E+00 -6.00043151E-05  0.00000000E+00  0.00000000E+00 -1.03930522E-04
  0.00000000E+00  0.00000000E+00  0.00000000E+00  0.00000000E+00  0.00000000E+00
  0.00000000E+00  0.00000000E+00  0.00000000E+00  0.00000000E+00  0.00000000E+00
  0.00000000E+00  0.00000000E+00  0.00000000E+00  0.00000000E+00  0.00000000E+00
  0.00000000E+00  0.00000000E+00  0.00000000E+00  0.00000000E+00  0.00000000E+00
  0.00000000E+00  0.00000000E+00  9.17871649E-01  0.00000000E+00  0.00000000E+00
  1.09180129E-02  0.00000000E+00  0.00000000E+00  1.35335313E-01  0.00000000E+00
  0.00000000E+00 -3.52192663E-03  0.00000000E+00  0.00000000E+00  1.15743233E-03
  0.00000000E+00  0.00000000E+00  0.00000000E+00  0.00000000E+00  0.00000000E+00
  0.00000000E+00  0.00000000E+00  0.00000000E+00  0.00000000E+00  0.00000000E+00
  0.00000000E+00  0.00000000E+00  0.00000000E+00  0.00000000E+00  0.00000000E+00
  0.00000000E+00  0.00000000E+00  0.00000000E+00  2.10190347E-05  0.00000000E+00
  0.00000000E+00  0.00000000E+00  2.71354571E-05  0.00000000E+00  0.00000000E+00
  1.78467705E-05  0.00000000E+00  0.00000000E+00  0.00000000E+00  2.30400817E-05
  0.00000000E+00  0.00000000E+00  0.00000000E+00  0.00000000E+00  0.00000000E+00
  0.00000000E+00  0.00000000E+00  0.00000000E+00  9.19264632E-01  0.00000000E+00
  0.00000000E+00  1.19385842E-02  0.00000000E+00  0.00000000E+00  1.32896895E-01
  0.00000000E+00  0.00000000E+00 -4.02504980E-03  0.00000000E+00  0.00000000E+00
  1.32892096E-03  0.00000000E+00  0.00000000E+00  0.00000000E+00  0.00000000E+00
  0.00000000E+00  0.00000000E+00  0.00000000E+00  0.00000000E+00  0.00000000E+00
  0.00000000E+00  0.00000000E+00  0.00000000E+00  0.00000000E+00  0.00000000E+00
  0.00000000E+00 -2.01670821E-05  0.00000000E+00  0.00000000E+00 -2.60355911E-05
  0.00000000E+00  0.00000000E+00  0.00000000E+00  2.74186557E-05  0.00000000E+00
  0.00000000E+00  3.53973308E-05  0.00000000E+00  0.00000000E+00  0.00000000E+00
  0.00000000E+00  0.00000000E+00  0.00000000E+00  0.00000000E+00  0.00000000E+00
  0.00000000E+00  9.19264632E-01  0.00000000E+00  0.00000000E+00  1.19385842E-02
  0.00000000E+00  0.00000000E+00  1.32896895E-01  0.00000000E+00  0.00000000E+00
 -4.02504980E-03  0.00000000E+00  0.00000000E+00  1.32892096E-03  0.00000000E+00
  0.00000000E+00  0.00000000E+00  0.00000000E+00  0.00000000E+00  0.00000000E+00
  0.00000000E+00  0.00000000E+00  0.00000000E+00  0.00000000E+00  0.00000000E+00
  0.00000000E+00  0.00000000E+00  0.00000000E+00  0.00000000E+00  0.00000000E+00
  0.00000000E+00  0.00000000E+00 -8.23317684E-06  0.00000000E+00  0.00000000E+00
  0.00000000E+00 -3.18869567E-05  0.00000000E+00  0.00000000E+00  1.11936181E-05
  0.00000000E+00  0.00000000E+00  0.00000000E+00  4.33527002E-05  0.00000000E+00
  7.30215386E-02 -2.92332350E-01  6.08924478E-01  1.19395121E-01  3.68784895E-01
 -5.40444205E-03  0.00000000E+00  0.00000000E+00  0.00000000E+00  0.00000000E+00
  0.00000000E+00  0.00000000E+00  0.00000000E+00  0.00000000E+00  0.00000000E+00
  0.00000000E+00  0.00000000E+00  0.00000000E+00  0.00000000E+00  0.00000000E+00
  0.00000000E+00  5.88043859E-03  0.00000000E+00  0.00000000E+00  1.01852184E-02
  0.00000000E+00  4.12277478E-03  0.00000000E+00  0.00000000E+00  7.14085539E-03
  0.00000000E+00  1.03287673E-03  0.00000000E+00  0.00000000E+00  1.78899497E-03
  0.00000000E+00  0.00000000E+00  0.00000000E+00  0.00000000E+00  0.00000000E+00
  0.00000000E+00  0.00000000E+00  0.00000000E+00  0.00000000E+00  0.00000000E+00
  0.00000000E+00  0.00000000E+00  0.00000000E+00  0.00000000E+00  0.00000000E+00
  0.00000000E+00  0.00000000E+00  0.00000000E+00  0.00000000E+00  0.00000000E+00
  0.00000000E+00  0.00000000E+00  0.00000000E+00 -2.08471331E-01  0.00000000E+00
  0.00000000E+00  5.45032180E-01  0.00000000E+00  0.00000000E+00  7.95535347E-02
  0.00000000E+00  0.00000000E+00  4.91357785E-01  0.00000000E+00  0.00000000E+00
  4.00120017E-02  0.00000000E+00  0.00000000E+00  0.00000000E+00  0.00000000E+00
  0.00000000E+00  0.00000000E+00  0.00000000E+00  0.00000000E+00  0.00000000E+00
  0.00000000E+00  0.00000000E+00  0.00000000E+00  0.00000000E+00  0.00000000E+00
  0.00000000E+00  8.38214914E-04  0.00000000E+00  0.00000000E+00  1.08212897E-03
  0.00000000E+00  0.00000000E+00  0.00000000E+00 -1.75188721E-04  0.00000000E+00
  0.00000000E+00 -2.26161624E-04  0.00000000E+00  0.00000000E+00  0.00000000E+00
  0.00000000E+00  0.00000000E+00  0.00000000E+00  0.00000000E+00  0.00000000E+00
  0.00000000E+00 -2.08471331E-01  0.00000000E+00  0.00000000E+00  5.45032180E-01
  0.00000000E+00  0.00000000E+00  7.95535347E-02  0.00000000E+00  0.00000000E+00
  4.91357785E-01  0.00000000E+00  0.00000000E+00  4.00120017E-02  0.00000000E+00
  0.00000000E+00  0.00000000E+00  0.00000000E+00  0.00000000E+00  0.00000000E+00
  0.00000000E+00  0.00000000E+00  0.00000000E+00  0.00000000E+00  0.00000000E+00
  0.00000000E+00  0.00000000E+00  0.00000000E+00  0.00000000E+00  0.00000000E+00
  0.00000000E+00  0.00000000E+00  3.42198356E-04  0.00000000E+00  0.00000000E+00
  0.00000000E+00  1.32533303E-03  0.00000000E+00  0.00000000E+00 -7.15157186E-05
  0.00000000E+00  0.00000000E+00  0.00000000E+00 -2.76993989E-04  0.00000000E+00
  0.00000000E+00  0.00000000E+00  0.00000000E+00  0.00000000E+00  0.00000000E+00
  0.00000000E+00  0.00000000E+00 -1.99784508E-01  0.00000000E+00  0.00000000E+00
  5.01415007E-01  0.00000000E+00  0.00000000E+00  7.54361716E-02  0.00000000E+00
  0.00000000E+00  5.14187797E-01  0.00000000E+00  0.00000000E+00  8.03293811E-02
  0.00000000E+00  0.00000000E+00  0.00000000E+00  0.00000000E+00  0.00000000E+00
  0.00000000E+00  0.00000000E+00  0.00000000E+00  0.00000000E+00  0.00000000E+00
  0.00000000E+00  0.00000000E+00  0.00000000E+00  0.00000000E+00  0.00000000E+00
  0.00000000E+00  0.00000000E+00  0.00000000E+00  2.95890662E-03  0.00000000E+00
  0.00000000E+00  0.00000000E+00  3.81993201E-03  0.00000000E+00  0.00000000E+00
  2.98988526E-03  0.00000000E+00  0.00000000E+00  0.00000000E+00  3.85992528E-03
 -2.38223137E-02  1.34270620E-01 -1.43008839E-01 -7.97236297E-02 -1.18635322E+00
  1.82861406E+00  0.00000000E+00  0.00000000E+00  0.00000000E+00  0.00000000E+00
  0.00000000E+00  0.00000000E+00  0.00000000E+00  0.00000000E+00  0.00000000E+00
  0.00000000E+00  0.00000000E+00  0.00000000E+00  0.00000000E+00  0.00000000E+00
  0.00000000E+00 -3.27207312E-04  0.00000000E+00  0.00000000E+00 -5.66739690E-04
  0.00000000E+00  1.02983178E-04  0.00000000E+00  0.00000000E+00  1.78372096E-04
  0.00000000E+00  6.25039233E-03  0.00000000E+00  0.00000000E+00  1.08259971E-02
  0.00000000E+00  0.00000000E+00  0.00000000E+00  0.00000000E+00  0.00000000E+00
  0.00000000E+00  0.00000000E+00  0.00000000E+00  0.00000000E+00  0.00000000E+00
  0.00000000E+00  0.00000000E+00  0.00000000E+00  0.00000000E+00  0.00000000E+00
  0.00000000E+00  0.00000000E+00  0.00000000E+00  0.00000000E+00  0.00000000E+00
  0.00000000E+00  7.76318514E-02  0.00000000E+00  0.00000000E+00 -1.83270104E-01
  0.00000000E+00  0.00000000E+00 -4.02057861E-02  0.00000000E+00  0.00000000E+00
 -4.54504835E-01  0.00000000E+00  0.00000000E+00  1.20728834E+00  0.00000000E+00
  0.00000000E+00  0.00000000E+00  0.00000000E+00  0.00000000E+00  0.00000000E+00
  0.00000000E+00  0.00000000E+00  0.00000000E+00  0.00000000E+00  0.00000000E+00
  0.00000000E+00  0.00000000E+00  0.00000000E+00  0.00000000E+00  0.00000000E+00
  0.00000000E+00  0.00000000E+00  1.42081149E-05  0.00000000E+00  0.00000000E+00
  0.00000000E+00  5.50468036E-05  0.00000000E+00  0.00000000E+00 -3.07961768E-04
  0.00000000E+00  0.00000000E+00  0.00000000E+00 -1.19280194E-03  0.00000000E+00
  0.00000000E+00  0.00000000E+00  0.00000000E+00  0.00000000E+00  0.00000000E+00
  0.00000000E+00  0.00000000E+00  0.00000000E+00  7.76318514E-02  0.00000000E+00
  0.00000000E+00 -1.83270104E-01  0.00000000E+00  0.00000000E+00 -4.02057861E-02
  0.00000000E+00  0.00000000E+00 -4.54504835E-01  0.00000000E+00  0.00000000E+00
  1.20728834E+00  0.00000000E+00  0.00000000E+00  0.00000000E+00  0.00000000E+00
  0.00000000E+00  0.00000000E+00  0.00000000E+00  0.00000000E+00  0.00000000E+00
  0.00000000E+00  0.00000000E+00  0.00000000E+00  0.00000000E+00  0.00000000E+00
  0.00000000E+00  3.48176614E-05  0.00000000E+00  0.00000000E+00  4.49416463E-05
  0.00000000E+00  0.00000000E+00  0.00000000E+00 -7.54405434E-04  0.00000000E+00
  0.00000000E+00 -9.73904183E-04  0.00000000E+00  0.00000000E+00  0.00000000E+00
  0.00000000E+00  0.00000000E+00  0.00000000E+00  0.00000000E+00  0.00000000E+00
  0.00000000E+00  0.00000000E+00  8.56129298E-02  0.00000000E+00  0.00000000E+00
 -1.93923568E-01  0.00000000E+00  0.00000000E+00 -4.30229552E-02  0.00000000E+00
  0.00000000E+00 -5.00532196E-01  0.00000000E+00  0.00000000E+00  1.21326836E+00
  0.00000000E+00  0.00000000E+00  0.00000000E+00  0.00000000E+00  0.00000000E+00
  0.00000000E+00  0.00000000E+00  0.00000000E+00  0.00000000E+00  0.00000000E+00
  0.00000000E+00  0.00000000E+00  0.00000000E+00  0.00000000E+00  0.00000000E+00
  0.00000000E+00  0.00000000E+00  0.00000000E+00 -1.50764025E-03  0.00000000E+00
  0.00000000E+00  0.00000000E+00 -1.94635520E-03  0.00000000E+00  0.00000000E+00
  1.03174117E-03  0.00000000E+00  0.00000000E+00  0.00000000E+00  1.33197212E-03
  0.00000000E+00  0.00000000E+00  0.00000000E+00  0.00000000E+00  0.00000000E+00
  0.00000000E+00  0.00000000E+00  0.00000000E+00  0.00000000E+00  0.00000000E+00
  0.00000000E+00  0.00000000E+00  0.00000000E+00  0.00000000E+00  0.00000000E+00
  0.00000000E+00  0.00000000E+00  0.00000000E+00  0.00000000E+00  0.00000000E+00
  0.00000000E+00  0.00000000E+00  8.53339238E-02  0.00000000E+00  0.00000000E+00
  0.00000000E+00  0.00000000E+00  1.11767123E-01  0.00000000E+00  0.00000000E+00
  0.00000000E+00  0.00000000E+00  9.13501630E-01  0.00000000E+00  0.00000000E+00
  0.00000000E+00  0.00000000E+00  0.00000000E+00  0.00000000E+00  0.00000000E+00
  0.00000000E+00  0.00000000E+00  0.00000000E+00  0.00000000E+00  0.00000000E+00
  0.00000000E+00  0.00000000E+00  0.00000000E+00  0.00000000E+00  0.00000000E+00
 -2.16587850E-15 -4.45065756E-15 -5.07087463E-14 -8.82671877E-16  3.56233763E-14
  3.17971901E-14  0.00000000E+00  0.00000000E+00  0.00000000E+00  0.00000000E+00
  0.00000000E+00  0.00000000E+00  0.00000000E+00  0.00000000E+00  0.00000000E+00
  0.00000000E+00  0.00000000E+00  0.00000000E+00  0.00000000E+00  0.00000000E+00
  0.00000000E+00  7.39014590E-02  0.00000000E+00  0.00000000E+00 -4.26670272E-02
  0.00000000E+00  9.67931702E-02  0.00000000E+00  0.00000000E+00 -5.58835629E-02
  0.00000000E+00  7.91115534E-01  0.00000000E+00  0.00000000E+00 -4.56750766E-01
  0.00000000E+00  0.00000000E+00  0.00000000E+00  0.00000000E+00  0.00000000E+00
  0.00000000E+00  0.00000000E+00  0.00000000E+00  0.00000000E+00  0.00000000E+00
  0.00000000E+00  0.00000000E+00  0.00000000E+00  0.00000000E+00  0.00000000E+00
  0.00000000E+00  0.00000000E+00  0.00000000E+00  0.00000000E+00  0.00000000E+00
  0.00000000E+00  0.00000000E+00  0.00000000E+00  0.00000000E+00  0.00000000E+00
  0.00000000E+00  0.00000000E+00  0.00000000E+00  0.00000000E+00  0.00000000E+00
  0.00000000E+00  0.00000000E+00  0.00000000E+00  0.00000000E+00  0.00000000E+00
  0.00000000E+00  0.00000000E+00  0.00000000E+00  7.40471797E-02  0.00000000E+00
  0.00000000E+00  0.00000000E+00  0.00000000E+00  1.07510828E-01  0.00000000E+00
  0.00000000E+00  0.00000000E+00  0.00000000E+00  9.23149709E-01  0.00000000E+00
  0.00000000E+00  0.00000000E+00  0.00000000E+00  0.00000000E+00  0.00000000E+00
  0.00000000E+00  0.00000000E+00  0.00000000E+00  0.00000000E+00  0.00000000E+00
  0.00000000E+00  0.00000000E+00  0.00000000E+00  0.00000000E+00  0.00000000E+00
  0.00000000E+00  0.00000000E+00  0.00000000E+00  0.00000000E+00  0.00000000E+00
  0.00000000E+00  0.00000000E+00  0.00000000E+00  0.00000000E+00  0.00000000E+00
  0.00000000E+00  0.00000000E+00  0.00000000E+00  0.00000000E+00  0.00000000E+00
  0.00000000E+00  0.00000000E+00  0.00000000E+00  0.00000000E+00  0.00000000E+00
  0.00000000E+00  0.00000000E+00  0.00000000E+00  0.00000000E+00  0.00000000E+00
  7.40471797E-02  0.00000000E+00  0.00000000E+00  0.00000000E+00  0.00000000E+00
  1.07510828E-01  0.00000000E+00  0.00000000E+00  0.00000000E+00  0.00000000E+00
  9.23149709E-01  0.00000000E+00  0.00000000E+00  0.00000000E+00  0.00000000E+00
  0.00000000E+00  0.00000000E+00  0.00000000E+00  0.00000000E+00  0.00000000E+00
  0.00000000E+00  0.00000000E+00  0.00000000E+00  0.00000000E+00  0.00000000E+00
 -7.91541310E-04  3.92528901E-03 -5.75310394E-03 -4.08909711E-03  1.29542395E-02
 -2.38916572E-02  0.00000000E+00  0.00000000E+00  0.00000000E+00  0.00000000E+00
  0.00000000E+00  0.00000000E+00  0.00000000E+00  0.00000000E+00  0.00000000E+00
  0.00000000E+00  0.00000000E+00  0.00000000E+00  0.00000000E+00  0.00000000E+00
  0.00000000E+00  3.23501101E-02  0.00000000E+00  0.00000000E+00  5.60320343E-02
  0.00000000E+00  5.26859397E-02  0.00000000E+00  0.00000000E+00  9.12547245E-02
  0.00000000E+00  4.65219371E-01  0.00000000E+00  0.00000000E+00  8.05783588E-01
  0.00000000E+00  0.00000000E+00  0.00000000E+00  0.00000000E+00  0.00000000E+00
  0.00000000E+00  0.00000000E+00  0.00000000E+00  0.00000000E+00  0.00000000E+00
  0.00000000E+00  0.00000000E+00  0.00000000E+00  0.00000000E+00  0.00000000E+00
  0.00000000E+00  0.00000000E+00  0.00000000E+00  0.00000000E+00  0.00000000E+00
  0.00000000E+00  0.00000000E+00  0.00000000E+00  0.00000000E+00  0.00000000E+00
  0.00000000E+00  0.00000000E+00  0.00000000E+00  0.00000000E+00  0.00000000E+00
  0.00000000E+00  0.00000000E+00  0.00000000E+00  0.00000000E+00  0.00000000E+00
  0.00000000E+00  0.00000000E+00  1.12410361E+00  0.00000000E+00  0.00000000E+00
  0.00000000E+00  0.00000000E+00  1.70932644E-01  0.00000000E+00  0.00000000E+00
  0.00000000E+00  0.00000000E+00 -8.85031127E-01  0.00000000E+00  0.00000000E+00
  0.00000000E+00  0.00000000E+00  0.00000000E+00  0.00000000E+00  0.00000000E+00
  0.00000000E+00  0.00000000E+00  0.00000000E+00  0.00000000E+00  0.00000000E+00
  0.00000000E+00  0.00000000E+00  0.00000000E+00  0.00000000E+00  0.00000000E+00
  9.16774909E-15  1.72580346E-14  2.21518474E-13  3.54394801E-14 -4.10842812E-13
  1.92039517E-13  0.00000000E+00  0.00000000E+00  0.00000000E+00  0.00000000E+00
  0.00000000E+00  0.00000000E+00  0.00000000E+00  0.00000000E+00  0.00000000E+00
  0.00000000E+00  0.00000000E+00  0.00000000E+00  0.00000000E+00  0.00000000E+00
  0.00000000E+00  9.73502260E-01  0.00000000E+00  0.00000000E+00 -5.62051792E-01
  0.00000000E+00  1.48032018E-01  0.00000000E+00  0.00000000E+00 -8.54663253E-02
  0.00000000E+00 -7.66459515E-01  0.00000000E+00  0.00000000E+00  4.42515607E-01
  0.00000000E+00  0.00000000E+00  0.00000000E+00  0.00000000E+00  0.00000000E+00
  0.00000000E+00  0.00000000E+00  0.00000000E+00  0.00000000E+00  0.00000000E+00
  0.00000000E+00  0.00000000E+00  0.00000000E+00  0.00000000E+00  0.00000000E+00
  0.00000000E+00  0.00000000E+00  0.00000000E+00  0.00000000E+00  0.00000000E+00
  0.00000000E+00  0.00000000E+00  0.00000000E+00  0.00000000E+00  0.00000000E+00
  0.00000000E+00  0.00000000E+00  0.00000000E+00  0.00000000E+00  0.00000000E+00
  0.00000000E+00  0.00000000E+00  0.00000000E+00  0.00000000E+00  0.00000000E+00
  0.00000000E+00  0.00000000E+00  0.00000000E+00  1.12954458E+00  0.00000000E+00
  0.00000000E+00  0.00000000E+00  0.00000000E+00  1.67489691E-01  0.00000000E+00
  0.00000000E+00  0.00000000E+00  0.00000000E+00 -8.75858263E-01  0.00000000E+00
  0.00000000E+00  0.00000000E+00  0.00000000E+00  0.00000000E+00  0.00000000E+00
  0.00000000E+00  0.00000000E+00  0.00000000E+00  0.00000000E+00  0.00000000E+00
  0.00000000E+00  0.00000000E+00  0.00000000E+00  0.00000000E+00  0.00000000E+00
  0.00000000E+00  0.00000000E+00  0.00000000E+00  0.00000000E+00  0.00000000E+00
  0.00000000E+00  0.00000000E+00  0.00000000E+00  0.00000000E+00  0.00000000E+00