 Entering Gaussian System, Link 0=g16
 Input=Si.com
 Output=Si.log
 Initial command:
 /usr/site/hpc/x86_64/glibc-2.17/broadwell/gaussian/g16_a.03/pgi-16.5/g16/l1.exe "/home/c744/c7441090/data/Gau-3860065.inp" -scrdir="/home/c744/c7441090/data/"
 Entering Link 1 = /usr/site/hpc/x86_64/glibc-2.17/broadwell/gaussian/g16_a.03/pgi-16.5/g16/l1.exe PID=   3860066.
  
 Copyright (c) 1988,1990,1992,1993,1995,1998,2003,2009,2016,
            Gaussian, Inc.  All Rights Reserved.
  
 This is part of the Gaussian(R) 16 program.  It is based on
 the Gaussian(R) 09 system (copyright 2009, Gaussian, Inc.),
 the Gaussian(R) 03 system (copyright 2003, Gaussian, Inc.),
 the Gaussian(R) 98 system (copyright 1998, Gaussian, Inc.),
 the Gaussian(R) 94 system (copyright 1995, Gaussian, Inc.),
 the Gaussian 92(TM) system (copyright 1992, Gaussian, Inc.),
 the Gaussian 90(TM) system (copyright 1990, Gaussian, Inc.),
 the Gaussian 88(TM) system (copyright 1988, Gaussian, Inc.),
 the Gaussian 86(TM) system (copyright 1986, Carnegie Mellon
 University), and the Gaussian 82(TM) system (copyright 1983,
 Carnegie Mellon University). Gaussian is a federally registered
 trademark of Gaussian, Inc.
  
 This software contains proprietary and confidential information,
 including trade secrets, belonging to Gaussian, Inc.
  
 This software is provided under written license and may be
 used, copied, transmitted, or stored only in accord with that
 written license.
  
 The following legend is applicable only to US Government
 contracts under FAR:
  
                    RESTRICTED RIGHTS LEGEND
  
 Use, reproduction and disclosure by the US Government is
 subject to restrictions as set forth in subparagraphs (a)
 and (c) of the Commercial Computer Software - Restricted
 Rights clause in FAR 52.227-19.
  
 Gaussian, Inc.
 340 Quinnipiac St., Bldg. 40, Wallingford CT 06492
  
  
 ---------------------------------------------------------------
 Warning -- This program may not be used in any manner that
 competes with the business of Gaussian, Inc. or will provide
 assistance to any competitor of Gaussian, Inc.  The licensee
 of this program is prohibited from giving any competitor of
 Gaussian, Inc. access to this program.  By using this program,
 the user acknowledges that Gaussian, Inc. is engaged in the
 business of creating and licensing software in the field of
 computational chemistry and represents and warrants to the
 licensee that it is not a competitor of Gaussian, Inc. and that
 it will not use this program in any manner prohibited above.
 ---------------------------------------------------------------
  

 Cite this work as:
 Gaussian 16, Revision A.03,
 M. J. Frisch, G. W. Trucks, H. B. Schlegel, G. E. Scuseria, 
 M. A. Robb, J. R. Cheeseman, G. Scalmani, V. Barone, 
 G. A. Petersson, H. Nakatsuji, X. Li, M. Caricato, A. V. Marenich, 
 J. Bloino, B. G. Janesko, R. Gomperts, B. Mennucci, H. P. Hratchian, 
 J. V. Ortiz, A. F. Izmaylov, J. L. Sonnenberg, D. Williams-Young, 
 F. Ding, F. Lipparini, F. Egidi, J. Goings, B. Peng, A. Petrone, 
 T. Henderson, D. Ranasinghe, V. G. Zakrzewski, J. Gao, N. Rega, 
 G. Zheng, W. Liang, M. Hada, M. Ehara, K. Toyota, R. Fukuda, 
 J. Hasegawa, M. Ishida, T. Nakajima, Y. Honda, O. Kitao, H. Nakai, 
 T. Vreven, K. Throssell, J. A. Montgomery, Jr., J. E. Peralta, 
 F. Ogliaro, M. J. Bearpark, J. J. Heyd, E. N. Brothers, K. N. Kudin, 
 V. N. Staroverov, T. A. Keith, R. Kobayashi, J. Normand, 
 K. Raghavachari, A. P. Rendell, J. C. Burant, S. S. Iyengar, 
 J. Tomasi, M. Cossi, J. M. Millam, M. Klene, C. Adamo, R. Cammi, 
 J. W. Ochterski, R. L. Martin, K. Morokuma, O. Farkas, 
 J. B. Foresman, and D. J. Fox, Gaussian, Inc., Wallingford CT, 2016.
 
 ******************************************
 Gaussian 16:  ES64L-G16RevA.03 25-Dec-2016
                20-Nov-2023 
 ******************************************
 %NProcShared=4
 Will use up to    4 processors via shared memory.
 %Mem=1GB
 %Chk=Si.chk
 ----------------------------------------------------
 # B3LYP/aug-cc-pVTZ EmpiricalDispersion=GD3 Pop=Full
 ----------------------------------------------------
 1/38=1,172=1/1;
 2/12=2,17=6,18=5,40=1/2;
 3/5=16,6=1,7=10,11=2,25=1,30=1,74=-5,124=31/1,2,3;
 4//1;
 5/5=2,38=5/2;
 6/7=3,28=1/1;
 99/5=1,9=1/99;
 --------
 Sillicon
 --------
 Symbolic Z-matrix:
 Charge =  0 Multiplicity = 3
 Si                    0.        0.        0. 
 
                          Input orientation:                          
 ---------------------------------------------------------------------
 Center     Atomic      Atomic             Coordinates (Angstroms)
 Number     Number       Type             X           Y           Z
 ---------------------------------------------------------------------
      1         14           0        0.000000    0.000000    0.000000
 ---------------------------------------------------------------------
 Stoichiometry    Si(3)
 Framework group  OH[O(Si)]
 Deg. of freedom     0
 Full point group                 OH      NOp  48
 Largest Abelian subgroup         D2H     NOp   8
 Largest concise Abelian subgroup C1      NOp   1
                         Standard orientation:                         
 ---------------------------------------------------------------------
 Center     Atomic      Atomic             Coordinates (Angstroms)
 Number     Number       Type             X           Y           Z
 ---------------------------------------------------------------------
      1         14           0        0.000000    0.000000    0.000000
 ---------------------------------------------------------------------
 Standard basis: Aug-CC-pVTZ (5D, 7F)
 There are    15 symmetry adapted cartesian basis functions of AG  symmetry.
 There are     3 symmetry adapted cartesian basis functions of B1G symmetry.
 There are     3 symmetry adapted cartesian basis functions of B2G symmetry.
 There are     3 symmetry adapted cartesian basis functions of B3G symmetry.
 There are     2 symmetry adapted cartesian basis functions of AU  symmetry.
 There are    11 symmetry adapted cartesian basis functions of B1U symmetry.
 There are    11 symmetry adapted cartesian basis functions of B2U symmetry.
 There are    11 symmetry adapted cartesian basis functions of B3U symmetry.
 There are    12 symmetry adapted basis functions of AG  symmetry.
 There are     3 symmetry adapted basis functions of B1G symmetry.
 There are     3 symmetry adapted basis functions of B2G symmetry.
 There are     3 symmetry adapted basis functions of B3G symmetry.
 There are     2 symmetry adapted basis functions of AU  symmetry.
 There are     9 symmetry adapted basis functions of B1U symmetry.
 There are     9 symmetry adapted basis functions of B2U symmetry.
 There are     9 symmetry adapted basis functions of B3U symmetry.
    50 basis functions,   115 primitive gaussians,    59 cartesian basis functions
     8 alpha electrons        6 beta electrons
       nuclear repulsion energy         0.0000000000 Hartrees.
 NAtoms=    1 NActive=    1 NUniq=    1 SFac= 1.00D+00 NAtFMM=   60 NAOKFM=F Big=F
 Integral buffers will be    131072 words long.
 Raffenetti 2 integral format.
 Two-electron integral symmetry is turned on.
 Nuclear repulsion after empirical dispersion term =        0.0000000000 Hartrees.
 One-electron integrals computed using PRISM.
 NBasis=    50 RedAO= T EigKep=  1.46D-02  NBF=    12     3     3     3     2     9     9     9
 NBsUse=    50 1.00D-06 EigRej= -1.00D+00 NBFU=    12     3     3     3     2     9     9     9
 ExpMin= 2.37D-02 ExpMax= 2.55D+05 ExpMxC= 2.46D+03 IAcc=3 IRadAn=         5 AccDes= 0.00D+00
 Harris functional with IExCor=  402 and IRadAn=       5 diagonalized for initial guess.
 HarFok:  IExCor=  402 AccDes= 0.00D+00 IRadAn=         5 IDoV= 1 UseB2=F ITyADJ=14
 ICtDFT=  3500011 ScaDFX=  1.000000  1.000000  1.000000  1.000000
 FoFCou: FMM=F IPFlag=           0 FMFlag=      100000 FMFlg1=           0
         NFxFlg=           0 DoJE=T BraDBF=F KetDBF=T FulRan=T
         wScrn=  0.000000 ICntrl=       500 IOpCl=  0 I1Cent=   200000004 NGrid=           0
         NMat0=    1 NMatS0=      1 NMatT0=    0 NMatD0=    1 NMtDS0=    0 NMtDT0=    0
 Petite list used in FoFCou.
 Initial guess orbital symmetries:
 Alpha Orbitals:
       Occupied  (A1G) (A1G) (T1U) (T1U) (T1U) (A1G) (T1U) (T1U)
       Virtual   (T1U) (A1G) (T1U) (T1U) (T1U) (T2G) (T2G) (T2G)
                 (EG) (EG) (T1U) (T1U) (T1U) (T2G) (T2G) (T2G)
                 (EG) (EG) (A1G) (T2U) (T2U) (T2U) (A2U) (T1U)
                 (T1U) (T1U) (T2G) (T2G) (T2G) (EG) (EG) (T2U)
                 (T2U) (T2U) (A2U) (T1U) (T1U) (T1U) (T1U) (T1U)
                 (T1U) (A1G)
 Beta  Orbitals:
       Occupied  (A1G) (A1G) (T1U) (T1U) (T1U) (A1G)
       Virtual   (T1U) (T1U) (T1U) (A1G) (T1U) (T1U) (T1U) (T2G)
                 (T2G) (T2G) (EG) (EG) (T1U) (T1U) (T1U) (T2G)
                 (T2G) (T2G) (EG) (EG) (A1G) (T2U) (T2U) (T2U)
                 (A2U) (T1U) (T1U) (T1U) (T2G) (T2G) (T2G) (EG)
                 (EG) (T2U) (T2U) (T2U) (A2U) (T1U) (T1U) (T1U)
                 (T1U) (T1U) (T1U) (A1G)
 Initial guess <Sx>= 0.0000 <Sy>= 0.0000 <Sz>= 1.0000 <S**2>= 2.0000 S= 1.0000
 Keep R1 and R2 ints in memory in symmetry-blocked form, NReq=4341620.
 Requested convergence on RMS density matrix=1.00D-08 within 128 cycles.
 Requested convergence on MAX density matrix=1.00D-06.
 Requested convergence on             energy=1.00D-06.
 No special actions if energy rises.
 Density matrix breaks symmetry, PCut= 1.00D-04
 Density has only Abelian symmetry.
 Density matrix breaks symmetry, PCut= 1.00D-04
 Density has only Abelian symmetry.
 Density matrix breaks symmetry, PCut= 1.00D-04
 Density has only Abelian symmetry.
 Density matrix breaks symmetry, PCut= 1.00D-04
 Density has only Abelian symmetry.
 Density matrix breaks symmetry, PCut= 1.00D-04
 Density has only Abelian symmetry.
 Density matrix breaks symmetry, PCut= 1.00D-04
 Density has only Abelian symmetry.
 Density matrix breaks symmetry, PCut= 1.00D-04
 Density has only Abelian symmetry.
 Density matrix breaks symmetry, PCut= 1.00D-04
 Density has only Abelian symmetry.
 Density matrix breaks symmetry, PCut= 1.00D-04
 Density has only Abelian symmetry.
 SCF Done:  E(UB3LYP) =  -289.396772797     A.U. after    8 cycles
            NFock=  8  Conv=0.13D-08     -V/T= 2.0032
 <Sx>= 0.0000 <Sy>= 0.0000 <Sz>= 1.0000 <S**2>= 2.0040 S= 1.0013
 <L.S>= 0.000000000000E+00
 Annihilation of the first spin contaminant:
 S**2 before annihilation     2.0040,   after     2.0000
 SCF density gives NOpUse=  8 NOpAll= 48.

 **********************************************************************

            Population analysis using the SCF density.

 **********************************************************************

 Orbital symmetries:
 Alpha Orbitals:
       Occupied  (A1G) (A1G) (T1U) (T1U) (T1U) (?A) (?B) (?B)
       Virtual   (?B) (?A) (?B) (?B) (?B) (?A) (?A) (?A) (?A) (?A)
                 (?A) (?A) (?A) (?A) (?B) (?B) (?A) (?B) (A1G)
                 (A2U) (?B) (?B) (?B) (?B) (?B) (?B) (T2G) (T2G)
                 (T2G) (EG) (EG) (A2U) (?C) (?C) (?C) (?C) (?C)
                 (?C) (T1U) (T1U) (T1U) (A1G)
 Beta  Orbitals:
       Occupied  (A1G) (A1G) (T1U) (T1U) (T1U) (?A)
       Virtual   (?B) (?B) (?B) (?A) (?B) (?B) (?B) (?A) (?C) (?C)
                 (?A) (?C) (?B) (?A) (?C) (?C) (?B) (?B) (?A) (?A)
                 (?C) (?B) (?B) (?B) (A2U) (?B) (?B) (?B) (?A)
                 (T2G) (T2G) (?A) (T2G) (?B) (?B) (?B) (A2U) (?B)
                 (?B) (?B) (?B) (?B) (?B) (A1G)
 Unable to determine electronic state:  an orbital has unidentified symmetry.
 Alpha  occ. eigenvalues --  -66.18198  -5.31691  -3.67875  -3.67516  -3.67516
 Alpha  occ. eigenvalues --   -0.45643  -0.19444  -0.19444
 Alpha virt. eigenvalues --   -0.12953   0.01113   0.03361   0.03361   0.03672
 Alpha virt. eigenvalues --    0.07972   0.07972   0.08091   0.08091   0.08562
 Alpha virt. eigenvalues --    0.30932   0.30932   0.31232   0.31232   0.31474
 Alpha virt. eigenvalues --    0.31474   0.31903   0.32091   0.33924   0.37981
 Alpha virt. eigenvalues --    0.37981   0.38109   0.38109   0.38182   0.38182
 Alpha virt. eigenvalues --    0.38389   1.04643   1.04643   1.04695   1.04695
 Alpha virt. eigenvalues --    1.05050   1.21453   1.21453   1.21589   1.21589
 Alpha virt. eigenvalues --    1.21790   1.21790   1.22157   2.12258   2.12556
 Alpha virt. eigenvalues --    2.12556   2.23596
  Beta  occ. eigenvalues --  -66.17565  -5.31015  -3.67531  -3.66172  -3.66172
  Beta  occ. eigenvalues --   -0.39251
  Beta virt. eigenvalues --   -0.11404  -0.08345  -0.08345   0.01767   0.03818
  Beta virt. eigenvalues --    0.04407   0.04407   0.09089   0.09175   0.09175
  Beta virt. eigenvalues --    0.09965   0.09965   0.32655   0.33737   0.34292
  Beta virt. eigenvalues --    0.34292   0.34770   0.34770   0.36004   0.36266
  Beta virt. eigenvalues --    0.36266   0.39089   0.39217   0.39217   0.39652
  Beta virt. eigenvalues --    0.39652   0.40604   0.40604   1.06496   1.07194
  Beta virt. eigenvalues --    1.07194   1.09489   1.09489   1.24445   1.24850
  Beta virt. eigenvalues --    1.24850   1.25994   1.25994   1.27979   1.27979
  Beta virt. eigenvalues --    2.12832   2.15479   2.15479   2.25540
     Alpha Molecular Orbital Coefficients:
                           1         2         3         4         5
                       (A1G)--O  (A1G)--O  (T1U)--O  (T1U)--O  (T1U)--O
     Eigenvalues --   -66.18198  -5.31691  -3.67875  -3.67516  -3.67516
   1 1   Si 1S          1.00197  -0.26629   0.00000   0.00000   0.00000
   2        2S         -0.00479   0.98531   0.00000   0.00000   0.00000
   3        3S          0.00410  -0.02566   0.00000   0.00000   0.00000
   4        4S         -0.00442   0.07784   0.00000   0.00000   0.00000
   5        5S         -0.00267   0.01183   0.00000   0.00000   0.00000
   6        6S          0.00092  -0.00364   0.00000   0.00000   0.00000
   7        7PX         0.00000   0.00000   0.00000   0.00000   0.91926
   8        7PY         0.00000   0.00000   0.91787   0.00000   0.00000
   9        7PZ         0.00000   0.00000   0.00000   0.91926   0.00000
  10        8PX         0.00000   0.00000   0.00000   0.00000   0.01194
  11        8PY         0.00000   0.00000   0.01092   0.00000   0.00000
  12        8PZ         0.00000   0.00000   0.00000   0.01194   0.00000
  13        9PX         0.00000   0.00000   0.00000   0.00000   0.13290
  14        9PY         0.00000   0.00000   0.13534   0.00000   0.00000
  15        9PZ         0.00000   0.00000   0.00000   0.13290   0.00000
  16       10PX         0.00000   0.00000   0.00000   0.00000  -0.00403
  17       10PY         0.00000   0.00000  -0.00352   0.00000   0.00000
  18       10PZ         0.00000   0.00000   0.00000  -0.00403   0.00000
  19       11PX         0.00000   0.00000   0.00000   0.00000   0.00133
  20       11PY         0.00000   0.00000   0.00116   0.00000   0.00000
  21       11PZ         0.00000   0.00000   0.00000   0.00133   0.00000
  22       12D 0        0.00000   0.00018   0.00000   0.00000   0.00000
  23       12D+1        0.00000   0.00000   0.00000   0.00000   0.00000
  24       12D-1        0.00000   0.00000   0.00000   0.00000   0.00000
  25       12D+2        0.00000   0.00031   0.00000   0.00000   0.00000
  26       12D-2        0.00000   0.00000   0.00000   0.00000   0.00000
  27       13D 0       -0.00000  -0.00019   0.00000   0.00000   0.00000
  28       13D+1        0.00000   0.00000   0.00000   0.00000   0.00000
  29       13D-1        0.00000   0.00000   0.00000   0.00000   0.00000
  30       13D+2       -0.00000  -0.00034   0.00000   0.00000   0.00000
  31       13D-2        0.00000   0.00000   0.00000   0.00000   0.00000
  32       14D 0       -0.00000  -0.00006   0.00000   0.00000   0.00000
  33       14D+1        0.00000   0.00000   0.00000   0.00000   0.00000
  34       14D-1        0.00000   0.00000   0.00000   0.00000   0.00000
  35       14D+2       -0.00000  -0.00010   0.00000   0.00000   0.00000
  36       14D-2        0.00000   0.00000   0.00000   0.00000   0.00000
  37       15F 0        0.00000   0.00000   0.00000  -0.00002   0.00000
  38       15F+1        0.00000   0.00000   0.00000   0.00000  -0.00001
  39       15F-1        0.00000   0.00000   0.00002   0.00000   0.00000
  40       15F+2        0.00000   0.00000   0.00000  -0.00003   0.00000
  41       15F-2        0.00000   0.00000   0.00000   0.00000   0.00000
  42       15F+3        0.00000   0.00000   0.00000   0.00000  -0.00003
  43       15F-3        0.00000   0.00000   0.00003   0.00000   0.00000
  44       16F 0        0.00000   0.00000   0.00000   0.00003   0.00000
  45       16F+1        0.00000   0.00000   0.00000   0.00000   0.00001
  46       16F-1        0.00000   0.00000   0.00002   0.00000   0.00000
  47       16F+2        0.00000   0.00000   0.00000   0.00004   0.00000
  48       16F-2        0.00000   0.00000   0.00000   0.00000   0.00000
  49       16F+3        0.00000   0.00000   0.00000   0.00000   0.00004
  50       16F-3        0.00000   0.00000   0.00002   0.00000   0.00000
                           6         7         8         9        10
                           O         O         O         V         V
     Eigenvalues --    -0.45643  -0.19444  -0.19444  -0.12953   0.01113
   1 1   Si 1S          0.07302   0.00000   0.00000   0.00000  -0.02382
   2        2S         -0.29233   0.00000   0.00000   0.00000   0.13427
   3        3S          0.60892   0.00000   0.00000   0.00000  -0.14301
   4        4S          0.11940   0.00000   0.00000   0.00000  -0.07972
   5        5S          0.36878   0.00000   0.00000   0.00000  -1.18635
   6        6S         -0.00540   0.00000   0.00000   0.00000   1.82861
   7        7PX         0.00000   0.00000  -0.20847   0.00000   0.00000
   8        7PY         0.00000   0.00000   0.00000  -0.19978   0.00000
   9        7PZ         0.00000  -0.20847   0.00000   0.00000   0.00000
  10        8PX         0.00000   0.00000   0.54503   0.00000   0.00000
  11        8PY         0.00000   0.00000   0.00000   0.50142   0.00000
  12        8PZ         0.00000   0.54503   0.00000   0.00000   0.00000
  13        9PX         0.00000   0.00000   0.07955   0.00000   0.00000
  14        9PY         0.00000   0.00000   0.00000   0.07544   0.00000
  15        9PZ         0.00000   0.07955   0.00000   0.00000   0.00000
  16       10PX         0.00000   0.00000   0.49136   0.00000   0.00000
  17       10PY         0.00000   0.00000   0.00000   0.51419   0.00000
  18       10PZ         0.00000   0.49136   0.00000   0.00000   0.00000
  19       11PX         0.00000   0.00000   0.04001   0.00000   0.00000
  20       11PY         0.00000   0.00000   0.00000   0.08033   0.00000
  21       11PZ         0.00000   0.04001   0.00000   0.00000   0.00000
  22       12D 0        0.00588   0.00000   0.00000   0.00000  -0.00033
  23       12D+1        0.00000   0.00000   0.00000   0.00000   0.00000
  24       12D-1        0.00000   0.00000   0.00000   0.00000   0.00000
  25       12D+2        0.01019   0.00000   0.00000   0.00000  -0.00057
  26       12D-2        0.00000   0.00000   0.00000   0.00000   0.00000
  27       13D 0        0.00412   0.00000   0.00000   0.00000   0.00010
  28       13D+1        0.00000   0.00000   0.00000   0.00000   0.00000
  29       13D-1        0.00000   0.00000   0.00000   0.00000   0.00000
  30       13D+2        0.00714   0.00000   0.00000   0.00000   0.00018
  31       13D-2        0.00000   0.00000   0.00000   0.00000   0.00000
  32       14D 0        0.00103   0.00000   0.00000   0.00000   0.00625
  33       14D+1        0.00000   0.00000   0.00000   0.00000   0.00000
  34       14D-1        0.00000   0.00000   0.00000   0.00000   0.00000
  35       14D+2        0.00179   0.00000   0.00000   0.00000   0.01083
  36       14D-2        0.00000   0.00000   0.00000   0.00000   0.00000
  37       15F 0        0.00000   0.00084   0.00000   0.00000   0.00000
  38       15F+1        0.00000   0.00000   0.00034   0.00000   0.00000
  39       15F-1        0.00000   0.00000   0.00000   0.00296   0.00000
  40       15F+2        0.00000   0.00108   0.00000   0.00000   0.00000
  41       15F-2        0.00000   0.00000   0.00000   0.00000   0.00000
  42       15F+3        0.00000   0.00000   0.00133   0.00000   0.00000
  43       15F-3        0.00000   0.00000   0.00000   0.00382   0.00000
  44       16F 0        0.00000  -0.00018   0.00000   0.00000   0.00000
  45       16F+1        0.00000   0.00000  -0.00007   0.00000   0.00000
  46       16F-1        0.00000   0.00000   0.00000   0.00299   0.00000
  47       16F+2        0.00000  -0.00023   0.00000   0.00000   0.00000
  48       16F-2        0.00000   0.00000   0.00000   0.00000   0.00000
  49       16F+3        0.00000   0.00000  -0.00028   0.00000   0.00000
  50       16F-3        0.00000   0.00000   0.00000   0.00386   0.00000
                          11        12        13        14        15
                           V         V         V         V         V
     Eigenvalues --     0.03361   0.03361   0.03672   0.07972   0.07972
   1 1   Si 1S          0.00000   0.00000   0.00000   0.00000  -0.00000
   2        2S          0.00000   0.00000   0.00000   0.00000  -0.00000
   3        3S          0.00000   0.00000   0.00000   0.00000  -0.00000
   4        4S          0.00000   0.00000   0.00000   0.00000  -0.00000
   5        5S          0.00000   0.00000   0.00000   0.00000   0.00000
   6        6S          0.00000   0.00000   0.00000   0.00000   0.00000
   7        7PX         0.07763   0.00000   0.00000   0.00000   0.00000
   8        7PY         0.00000   0.00000   0.08561   0.00000   0.00000
   9        7PZ         0.00000   0.07763   0.00000   0.00000   0.00000
  10        8PX        -0.18327   0.00000   0.00000   0.00000   0.00000
  11        8PY         0.00000   0.00000  -0.19392   0.00000   0.00000
  12        8PZ         0.00000  -0.18327   0.00000   0.00000   0.00000
  13        9PX        -0.04021   0.00000   0.00000   0.00000   0.00000
  14        9PY         0.00000   0.00000  -0.04302   0.00000   0.00000
  15        9PZ         0.00000  -0.04021   0.00000   0.00000   0.00000
  16       10PX        -0.45450   0.00000   0.00000   0.00000   0.00000
  17       10PY         0.00000   0.00000  -0.50053   0.00000   0.00000
  18       10PZ         0.00000  -0.45450   0.00000   0.00000   0.00000
  19       11PX         1.20729   0.00000   0.00000   0.00000   0.00000
  20       11PY         0.00000   0.00000   1.21327   0.00000   0.00000
  21       11PZ         0.00000   1.20729   0.00000   0.00000   0.00000
  22       12D 0        0.00000   0.00000   0.00000   0.00000   0.07390
  23       12D+1        0.00000   0.00000   0.00000   0.08533   0.00000
  24       12D-1        0.00000   0.00000   0.00000   0.00000   0.00000
  25       12D+2        0.00000   0.00000   0.00000   0.00000  -0.04267
  26       12D-2        0.00000   0.00000   0.00000   0.00000   0.00000
  27       13D 0        0.00000   0.00000   0.00000   0.00000   0.09679
  28       13D+1        0.00000   0.00000   0.00000   0.11177   0.00000
  29       13D-1        0.00000   0.00000   0.00000   0.00000   0.00000
  30       13D+2        0.00000   0.00000   0.00000   0.00000  -0.05588
  31       13D-2        0.00000   0.00000   0.00000   0.00000   0.00000
  32       14D 0        0.00000   0.00000   0.00000   0.00000   0.79112
  33       14D+1        0.00000   0.00000   0.00000   0.91350   0.00000
  34       14D-1        0.00000   0.00000   0.00000   0.00000   0.00000
  35       14D+2        0.00000   0.00000   0.00000   0.00000  -0.45675
  36       14D-2        0.00000   0.00000   0.00000   0.00000   0.00000
  37       15F 0        0.00000   0.00003   0.00000   0.00000   0.00000
  38       15F+1        0.00001   0.00000   0.00000   0.00000   0.00000
  39       15F-1        0.00000   0.00000  -0.00151   0.00000   0.00000
  40       15F+2        0.00000   0.00004   0.00000   0.00000   0.00000
  41       15F-2        0.00000   0.00000   0.00000   0.00000   0.00000
  42       15F+3        0.00006   0.00000   0.00000   0.00000   0.00000
  43       15F-3        0.00000   0.00000  -0.00195   0.00000   0.00000
  44       16F 0        0.00000  -0.00075   0.00000   0.00000   0.00000
  45       16F+1       -0.00031   0.00000   0.00000   0.00000   0.00000
  46       16F-1        0.00000   0.00000   0.00103   0.00000   0.00000
  47       16F+2        0.00000  -0.00097   0.00000   0.00000   0.00000
  48       16F-2        0.00000   0.00000   0.00000   0.00000   0.00000
  49       16F+3       -0.00119   0.00000   0.00000   0.00000   0.00000
  50       16F-3        0.00000   0.00000   0.00133   0.00000   0.00000
                          16        17        18        19        20
                           V         V         V         V         V
     Eigenvalues --     0.08091   0.08091   0.08562   0.30932   0.30932
   1 1   Si 1S          0.00000   0.00000  -0.00079   0.00000   0.00000
   2        2S          0.00000   0.00000   0.00393   0.00000   0.00000
   3        3S          0.00000   0.00000  -0.00575   0.00000   0.00000
   4        4S          0.00000   0.00000  -0.00409   0.00000   0.00000
   5        5S          0.00000   0.00000   0.01295   0.00000  -0.00000
   6        6S          0.00000   0.00000  -0.02389   0.00000   0.00000
   7        7PX         0.00000   0.00000   0.00000   0.00000   0.00000
   8        7PY         0.00000   0.00000   0.00000   0.00000   0.00000
   9        7PZ         0.00000   0.00000   0.00000   0.00000   0.00000
  10        8PX         0.00000   0.00000   0.00000   0.00000   0.00000
  11        8PY         0.00000   0.00000   0.00000   0.00000   0.00000
  12        8PZ         0.00000   0.00000   0.00000   0.00000   0.00000
  13        9PX         0.00000   0.00000   0.00000   0.00000   0.00000
  14        9PY         0.00000   0.00000   0.00000   0.00000   0.00000
  15        9PZ         0.00000   0.00000   0.00000   0.00000   0.00000
  16       10PX         0.00000   0.00000   0.00000   0.00000   0.00000
  17       10PY         0.00000   0.00000   0.00000   0.00000   0.00000
  18       10PZ         0.00000   0.00000   0.00000   0.00000   0.00000
  19       11PX         0.00000   0.00000   0.00000   0.00000   0.00000
  20       11PY         0.00000   0.00000   0.00000   0.00000   0.00000
  21       11PZ         0.00000   0.00000   0.00000   0.00000   0.00000
  22       12D 0        0.00000   0.00000   0.03235   0.00000   0.97350
  23       12D+1        0.00000   0.00000   0.00000   1.12410   0.00000
  24       12D-1        0.07405   0.00000   0.00000   0.00000   0.00000
  25       12D+2        0.00000   0.00000   0.05603   0.00000  -0.56205
  26       12D-2        0.00000   0.07405   0.00000   0.00000   0.00000
  27       13D 0        0.00000   0.00000   0.05269   0.00000   0.14803
  28       13D+1        0.00000   0.00000   0.00000   0.17093   0.00000
  29       13D-1        0.10751   0.00000   0.00000   0.00000   0.00000
  30       13D+2        0.00000   0.00000   0.09125   0.00000  -0.08547
  31       13D-2        0.00000   0.10751   0.00000   0.00000   0.00000
  32       14D 0        0.00000   0.00000   0.46522   0.00000  -0.76646
  33       14D+1        0.00000   0.00000   0.00000  -0.88503   0.00000
  34       14D-1        0.92315   0.00000   0.00000   0.00000   0.00000
  35       14D+2        0.00000   0.00000   0.80578   0.00000   0.44252
  36       14D-2        0.00000   0.92315   0.00000   0.00000   0.00000
  37       15F 0        0.00000   0.00000   0.00000   0.00000   0.00000
  38       15F+1        0.00000   0.00000   0.00000   0.00000   0.00000
  39       15F-1        0.00000   0.00000   0.00000   0.00000   0.00000
  40       15F+2        0.00000   0.00000   0.00000   0.00000   0.00000
  41       15F-2        0.00000   0.00000   0.00000   0.00000   0.00000
  42       15F+3        0.00000   0.00000   0.00000   0.00000   0.00000
  43       15F-3        0.00000   0.00000   0.00000   0.00000   0.00000
  44       16F 0        0.00000   0.00000   0.00000   0.00000   0.00000
  45       16F+1        0.00000   0.00000   0.00000   0.00000   0.00000
  46       16F-1        0.00000   0.00000   0.00000   0.00000   0.00000
  47       16F+2        0.00000   0.00000   0.00000   0.00000   0.00000
  48       16F-2        0.00000   0.00000   0.00000   0.00000   0.00000
  49       16F+3        0.00000   0.00000   0.00000   0.00000   0.00000
  50       16F-3        0.00000   0.00000   0.00000   0.00000   0.00000
                          21        22        23        24        25
                           V         V         V         V         V
     Eigenvalues --     0.31232   0.31232   0.31474   0.31474   0.31903
   1 1   Si 1S          0.00000   0.00000   0.00000   0.00000  -0.00140
   2        2S          0.00000   0.00000   0.00000   0.00000   0.00695
   3        3S          0.00000   0.00000   0.00000   0.00000  -0.01114
   4        4S          0.00000   0.00000   0.00000   0.00000  -0.00833
   5        5S          0.00000   0.00000   0.00000   0.00000   0.00537
   6        6S          0.00000   0.00000   0.00000   0.00000  -0.00317
   7        7PX         0.00000   0.00000   0.00000   0.17589   0.00000
   8        7PY         0.00000   0.00000   0.00000   0.00000   0.00000
   9        7PZ         0.00000   0.00000   0.17589   0.00000   0.00000
  10        8PX         0.00000   0.00000   0.00000  -1.26374   0.00000
  11        8PY         0.00000   0.00000   0.00000   0.00000   0.00000
  12        8PZ         0.00000   0.00000  -1.26374   0.00000   0.00000
  13        9PX         0.00000   0.00000   0.00000  -0.05445   0.00000
  14        9PY         0.00000   0.00000   0.00000   0.00000   0.00000
  15        9PZ         0.00000   0.00000  -0.05445   0.00000   0.00000
  16       10PX         0.00000   0.00000   0.00000   1.73041   0.00000
  17       10PY         0.00000   0.00000   0.00000   0.00000   0.00000
  18       10PZ         0.00000   0.00000   1.73041   0.00000   0.00000
  19       11PX         0.00000   0.00000   0.00000  -0.74002   0.00000
  20       11PY         0.00000   0.00000   0.00000   0.00000   0.00000
  21       11PZ         0.00000   0.00000  -0.74002   0.00000   0.00000
  22       12D 0        0.00000   0.00000   0.00000   0.00000   0.56611
  23       12D+1        0.00000   0.00000   0.00000   0.00000   0.00000
  24       12D-1        1.12954   0.00000   0.00000   0.00000   0.00000
  25       12D+2        0.00000   0.00000   0.00000   0.00000   0.98053
  26       12D-2        0.00000   1.12954   0.00000   0.00000   0.00000
  27       13D 0        0.00000   0.00000   0.00000   0.00000   0.08303
  28       13D+1        0.00000   0.00000   0.00000   0.00000   0.00000
  29       13D-1        0.16749   0.00000   0.00000   0.00000   0.00000
  30       13D+2        0.00000   0.00000   0.00000   0.00000   0.14382
  31       13D-2        0.00000   0.16749   0.00000   0.00000   0.00000
  32       14D 0        0.00000   0.00000   0.00000   0.00000  -0.43431
  33       14D+1        0.00000   0.00000   0.00000   0.00000   0.00000
  34       14D-1       -0.87586   0.00000   0.00000   0.00000   0.00000
  35       14D+2        0.00000   0.00000   0.00000   0.00000  -0.75224
  36       14D-2        0.00000  -0.87586   0.00000   0.00000   0.00000
  37       15F 0        0.00000   0.00000   0.00098   0.00000   0.00000
  38       15F+1        0.00000   0.00000   0.00000   0.00040   0.00000
  39       15F-1        0.00000   0.00000   0.00000   0.00000   0.00000
  40       15F+2        0.00000   0.00000   0.00127   0.00000   0.00000
  41       15F-2        0.00000   0.00000   0.00000   0.00000   0.00000
  42       15F+3        0.00000   0.00000   0.00000   0.00155   0.00000
  43       15F-3        0.00000   0.00000   0.00000   0.00000   0.00000
  44       16F 0        0.00000   0.00000  -0.01299   0.00000   0.00000
  45       16F+1        0.00000   0.00000   0.00000  -0.00530   0.00000
  46       16F-1        0.00000   0.00000   0.00000   0.00000   0.00000
  47       16F+2        0.00000   0.00000  -0.01677   0.00000   0.00000
  48       16F-2        0.00000   0.00000   0.00000   0.00000   0.00000
  49       16F+3        0.00000   0.00000   0.00000  -0.02053   0.00000
  50       16F-3        0.00000   0.00000   0.00000   0.00000   0.00000
                          26        27        28        29        30
                           V     (A1G)--V  (A2U)--V      V         V
     Eigenvalues --     0.32091   0.33924   0.37981   0.37981   0.38109
   1 1   Si 1S          0.00000  -0.08490   0.00000   0.00000   0.00000
   2        2S          0.00000  -0.14147   0.00000   0.00000   0.00000
   3        3S          0.00000  -2.02430   0.00000   0.00000   0.00000
   4        4S          0.00000  -0.37261   0.00000   0.00000   0.00000
   5        5S          0.00000   3.89131   0.00000   0.00000   0.00000
   6        6S          0.00000  -1.87962   0.00000   0.00000   0.00000
   7        7PX         0.00000   0.00000   0.00000   0.00000   0.00388
   8        7PY         0.18249   0.00000   0.00000   0.00000   0.00000
   9        7PZ         0.00000   0.00000   0.00000   0.00000   0.00000
  10        8PX         0.00000   0.00000   0.00000   0.00000  -0.02586
  11        8PY        -1.28137   0.00000   0.00000  -0.00000   0.00000
  12        8PZ         0.00000   0.00000   0.00000   0.00000   0.00000
  13        9PX         0.00000   0.00000   0.00000   0.00000  -0.00150
  14        9PY        -0.05602   0.00000   0.00000  -0.00000   0.00000
  15        9PZ         0.00000   0.00000   0.00000   0.00000   0.00000
  16       10PX         0.00000   0.00000   0.00000   0.00000   0.03424
  17       10PY         1.71154   0.00000   0.00000   0.00000   0.00000
  18       10PZ         0.00000   0.00000   0.00000   0.00000   0.00000
  19       11PX         0.00000   0.00000   0.00000   0.00000  -0.01355
  20       11PY        -0.72702   0.00000   0.00000  -0.00000   0.00000
  21       11PZ         0.00000   0.00000   0.00000   0.00000   0.00000
  22       12D 0        0.00000  -0.00205   0.00000   0.00000   0.00000
  23       12D+1        0.00000   0.00000   0.00000   0.00000   0.00000
  24       12D-1        0.00000   0.00000   0.00000   0.00000   0.00000
  25       12D+2        0.00000  -0.00355   0.00000   0.00000   0.00000
  26       12D-2        0.00000   0.00000   0.00000   0.00000   0.00000
  27       13D 0        0.00000  -0.00095   0.00000   0.00000   0.00000
  28       13D+1        0.00000   0.00000   0.00000   0.00000   0.00000
  29       13D-1        0.00000   0.00000   0.00000   0.00000   0.00000
  30       13D+2        0.00000  -0.00164   0.00000   0.00000   0.00000
  31       13D-2        0.00000   0.00000   0.00000   0.00000   0.00000
  32       14D 0        0.00000   0.00098   0.00000   0.00000   0.00000
  33       14D+1        0.00000   0.00000   0.00000   0.00000   0.00000
  34       14D-1        0.00000   0.00000   0.00000   0.00000   0.00000
  35       14D+2        0.00000   0.00169   0.00000   0.00000   0.00000
  36       14D-2        0.00000   0.00000   0.00000   0.00000   0.00000
  37       15F 0        0.00000   0.00000   0.00000   0.00000   0.00000
  38       15F+1        0.00000   0.00000   0.00000   0.00000  -0.02188
  39       15F-1       -0.00303   0.00000   0.00000  -0.06797   0.00000
  40       15F+2        0.00000   0.00000   0.00000   0.00000   0.00000
  41       15F-2        0.00000   0.00000  -0.08597   0.00000   0.00000
  42       15F+3        0.00000   0.00000   0.00000   0.00000  -0.08474
  43       15F-3       -0.00391   0.00000   0.00000   0.05265   0.00000
  44       16F 0        0.00000   0.00000   0.00000   0.00000   0.00000
  45       16F+1        0.00000   0.00000   0.00000   0.00000   0.26220
  46       16F-1        0.00719   0.00000   0.00000   0.82871   0.00000
  47       16F+2        0.00000   0.00000   0.00000   0.00000   0.00000
  48       16F-2        0.00000   0.00000   1.04824   0.00000   0.00000
  49       16F+3        0.00000   0.00000   0.00000   0.00000   1.01555
  50       16F-3        0.00929   0.00000   0.00000  -0.64191   0.00000
                          31        32        33        34        35
                           V         V         V         V     (T2G)--V
     Eigenvalues --     0.38109   0.38182   0.38182   0.38389   1.04643
   1 1   Si 1S          0.00000   0.00000   0.00000   0.00000   0.00000
   2        2S          0.00000   0.00000   0.00000   0.00000   0.00000
   3        3S          0.00000   0.00000   0.00000   0.00000   0.00000
   4        4S          0.00000   0.00000   0.00000   0.00000   0.00000
   5        5S          0.00000   0.00000   0.00000   0.00000   0.00000
   6        6S          0.00000   0.00000   0.00000   0.00000   0.00000
   7        7PX         0.00000   0.00000   0.00000   0.00000   0.00000
   8        7PY         0.00000   0.00000   0.00000   0.00015   0.00000
   9        7PZ         0.00388   0.00000  -0.00000   0.00000   0.00000
  10        8PX         0.00000  -0.00000   0.00000   0.00000   0.00000
  11        8PY         0.00000   0.00000   0.00000   0.00868   0.00000
  12        8PZ        -0.02586   0.00000   0.00000   0.00000   0.00000
  13        9PX         0.00000  -0.00000   0.00000   0.00000   0.00000
  14        9PY         0.00000   0.00000   0.00000  -0.00084   0.00000
  15        9PZ        -0.00150   0.00000   0.00000   0.00000   0.00000
  16       10PX         0.00000   0.00000   0.00000   0.00000   0.00000
  17       10PY         0.00000   0.00000   0.00000  -0.01956   0.00000
  18       10PZ         0.03424   0.00000  -0.00000   0.00000   0.00000
  19       11PX         0.00000  -0.00000   0.00000   0.00000   0.00000
  20       11PY         0.00000   0.00000   0.00000   0.00567   0.00000
  21       11PZ        -0.01355   0.00000   0.00000   0.00000   0.00000
  22       12D 0        0.00000   0.00000   0.00000   0.00000   0.00000
  23       12D+1        0.00000   0.00000   0.00000   0.00000   0.00000
  24       12D-1        0.00000   0.00000   0.00000   0.00000   0.00000
  25       12D+2        0.00000   0.00000   0.00000   0.00000   0.00000
  26       12D-2        0.00000   0.00000   0.00000   0.00000  -1.23345
  27       13D 0        0.00000   0.00000   0.00000   0.00000   0.00000
  28       13D+1        0.00000   0.00000   0.00000   0.00000   0.00000
  29       13D-1        0.00000   0.00000   0.00000   0.00000   0.00000
  30       13D+2        0.00000   0.00000   0.00000   0.00000   0.00000
  31       13D-2        0.00000   0.00000   0.00000   0.00000   1.30609
  32       14D 0        0.00000   0.00000   0.00000   0.00000   0.00000
  33       14D+1        0.00000   0.00000   0.00000   0.00000   0.00000
  34       14D-1        0.00000   0.00000   0.00000   0.00000   0.00000
  35       14D+2        0.00000   0.00000   0.00000   0.00000   0.00000
  36       14D-2        0.00000   0.00000   0.00000   0.00000   0.48186
  37       15F 0       -0.05359   0.00000  -0.06741   0.00000   0.00000
  38       15F+1        0.00000  -0.08257   0.00000   0.00000   0.00000
  39       15F-1        0.00000   0.00000   0.00000  -0.05390   0.00000
  40       15F+2       -0.06919   0.00000   0.05222   0.00000   0.00000
  41       15F-2        0.00000   0.00000   0.00000   0.00000   0.00000
  42       15F+3        0.00000   0.02132   0.00000   0.00000   0.00000
  43       15F-3        0.00000   0.00000   0.00000  -0.06958   0.00000
  44       16F 0        0.64230   0.00000   0.82841   0.00000   0.00000
  45       16F+1        0.00000   1.01460   0.00000   0.00000   0.00000
  46       16F-1        0.00000   0.00000   0.00000   0.64254   0.00000
  47       16F+2        0.82919   0.00000  -0.64170   0.00000   0.00000
  48       16F-2        0.00000   0.00000   0.00000   0.00000   0.00000
  49       16F+3        0.00000  -0.26195   0.00000   0.00000   0.00000
  50       16F-3        0.00000   0.00000   0.00000   0.82951   0.00000
                          36        37        38        39        40
                       (T2G)--V  (T2G)--V   (EG)--V   (EG)--V  (A2U)--V
     Eigenvalues --     1.04643   1.04695   1.04695   1.05050   1.21453
   1 1   Si 1S          0.00000   0.00000   0.00000  -0.00042   0.00000
   2        2S          0.00000   0.00000  -0.00000   0.00789   0.00000
   3        3S          0.00000   0.00000  -0.00000   0.00832   0.00000
   4        4S          0.00000   0.00000   0.00000  -0.01041   0.00000
   5        5S          0.00000   0.00000  -0.00000  -0.00764   0.00000
   6        6S          0.00000   0.00000   0.00000   0.00260   0.00000
   7        7PX         0.00000   0.00000   0.00000   0.00000   0.00000
   8        7PY         0.00000   0.00000   0.00000   0.00000   0.00000
   9        7PZ         0.00000   0.00000   0.00000   0.00000   0.00000
  10        8PX         0.00000   0.00000   0.00000   0.00000   0.00000
  11        8PY         0.00000   0.00000   0.00000   0.00000   0.00000
  12        8PZ         0.00000   0.00000   0.00000   0.00000   0.00000
  13        9PX         0.00000   0.00000   0.00000   0.00000   0.00000
  14        9PY         0.00000   0.00000   0.00000   0.00000   0.00000
  15        9PZ         0.00000   0.00000   0.00000   0.00000   0.00000
  16       10PX         0.00000   0.00000   0.00000   0.00000   0.00000
  17       10PY         0.00000   0.00000   0.00000   0.00000   0.00000
  18       10PZ         0.00000   0.00000   0.00000   0.00000   0.00000
  19       11PX         0.00000   0.00000   0.00000   0.00000   0.00000
  20       11PY         0.00000   0.00000   0.00000   0.00000   0.00000
  21       11PZ         0.00000   0.00000   0.00000   0.00000   0.00000
  22       12D 0        0.00000   0.00000  -1.07186  -0.61573   0.00000
  23       12D+1        0.00000  -1.23768   0.00000   0.00000   0.00000
  24       12D-1       -1.23345   0.00000   0.00000   0.00000   0.00000
  25       12D+2        0.00000   0.00000   0.61884  -1.06647   0.00000
  26       12D-2        0.00000   0.00000   0.00000   0.00000   0.00000
  27       13D 0        0.00000   0.00000   1.13041   0.65320   0.00000
  28       13D+1        0.00000   1.30528   0.00000   0.00000   0.00000
  29       13D-1        1.30609   0.00000   0.00000   0.00000   0.00000
  30       13D+2        0.00000   0.00000  -0.65264   1.13138   0.00000
  31       13D-2        0.00000   0.00000   0.00000   0.00000   0.00000
  32       14D 0        0.00000   0.00000   0.41871   0.24039   0.00000
  33       14D+1        0.00000   0.48348   0.00000   0.00000   0.00000
  34       14D-1        0.48186   0.00000   0.00000   0.00000   0.00000
  35       14D+2        0.00000   0.00000  -0.24174   0.41636   0.00000
  36       14D-2        0.00000   0.00000   0.00000   0.00000   0.00000
  37       15F 0        0.00000   0.00000   0.00000   0.00000   0.00000
  38       15F+1        0.00000   0.00000   0.00000   0.00000   0.00000
  39       15F-1        0.00000   0.00000   0.00000   0.00000   0.00000
  40       15F+2        0.00000   0.00000   0.00000   0.00000   0.00000
  41       15F-2        0.00000   0.00000   0.00000   0.00000   1.23470
  42       15F+3        0.00000   0.00000   0.00000   0.00000   0.00000
  43       15F-3        0.00000   0.00000   0.00000   0.00000   0.00000
  44       16F 0        0.00000   0.00000   0.00000   0.00000   0.00000
  45       16F+1        0.00000   0.00000   0.00000   0.00000   0.00000
  46       16F-1        0.00000   0.00000   0.00000   0.00000   0.00000
  47       16F+2        0.00000   0.00000   0.00000   0.00000   0.00000
  48       16F-2        0.00000   0.00000   0.00000   0.00000  -0.65807
  49       16F+3        0.00000   0.00000   0.00000   0.00000   0.00000
  50       16F-3        0.00000   0.00000   0.00000   0.00000   0.00000
                          41        42        43        44        45
                           V         V         V         V         V
     Eigenvalues --     1.21453   1.21589   1.21589   1.21790   1.21790
   1 1   Si 1S          0.00000   0.00000   0.00000   0.00000   0.00000
   2        2S          0.00000   0.00000   0.00000   0.00000   0.00000
   3        3S          0.00000   0.00000   0.00000   0.00000   0.00000
   4        4S          0.00000   0.00000   0.00000   0.00000   0.00000
   5        5S          0.00000   0.00000   0.00000   0.00000   0.00000
   6        6S          0.00000   0.00000   0.00000   0.00000   0.00000
   7        7PX         0.00000   0.00000   0.00000   0.00015   0.00000
   8        7PY         0.00000   0.00000   0.00000   0.00000   0.00000
   9        7PZ         0.00000  -0.00000   0.00000   0.00000   0.00015
  10        8PX         0.00000   0.00000   0.00000  -0.00105   0.00000
  11        8PY         0.00000   0.00000   0.00000   0.00000   0.00000
  12        8PZ         0.00000  -0.00000   0.00000   0.00000  -0.00105
  13        9PX         0.00000   0.00000  -0.00000   0.00019   0.00000
  14        9PY        -0.00000   0.00000   0.00000   0.00000   0.00000
  15        9PZ         0.00000   0.00000   0.00000   0.00000   0.00019
  16       10PX         0.00000   0.00000  -0.00000  -0.00021   0.00000
  17       10PY         0.00000   0.00000   0.00000   0.00000   0.00000
  18       10PZ         0.00000   0.00000   0.00000   0.00000  -0.00021
  19       11PX         0.00000   0.00000   0.00000  -0.00014   0.00000
  20       11PY        -0.00000   0.00000   0.00000   0.00000   0.00000
  21       11PZ         0.00000  -0.00000   0.00000   0.00000  -0.00014
  22       12D 0        0.00000   0.00000   0.00000   0.00000   0.00000
  23       12D+1        0.00000   0.00000   0.00000   0.00000   0.00000
  24       12D-1        0.00000   0.00000   0.00000   0.00000   0.00000
  25       12D+2        0.00000   0.00000   0.00000   0.00000   0.00000
  26       12D-2        0.00000   0.00000   0.00000   0.00000   0.00000
  27       13D 0        0.00000   0.00000   0.00000   0.00000   0.00000
  28       13D+1        0.00000   0.00000   0.00000   0.00000   0.00000
  29       13D-1        0.00000   0.00000   0.00000   0.00000   0.00000
  30       13D+2        0.00000   0.00000   0.00000   0.00000   0.00000
  31       13D-2        0.00000   0.00000   0.00000   0.00000   0.00000
  32       14D 0        0.00000   0.00000   0.00000   0.00000   0.00000
  33       14D+1        0.00000   0.00000   0.00000   0.00000   0.00000
  34       14D-1        0.00000   0.00000   0.00000   0.00000   0.00000
  35       14D+2        0.00000   0.00000   0.00000   0.00000   0.00000
  36       14D-2        0.00000   0.00000   0.00000   0.00000   0.00000
  37       15F 0        0.00000   0.97615   0.00000   0.00000   0.75603
  38       15F+1        0.00000   0.00000   1.19554   0.30865   0.00000
  39       15F-1        0.97611   0.00000   0.00000   0.00000   0.00000
  40       15F+2        0.00000  -0.75612   0.00000   0.00000   0.97603
  41       15F-2        0.00000   0.00000   0.00000   0.00000   0.00000
  42       15F+3        0.00000   0.00000  -0.30869   1.19538   0.00000
  43       15F-3       -0.75609   0.00000   0.00000   0.00000   0.00000
  44       16F 0        0.00000  -0.52072   0.00000   0.00000  -0.40217
  45       16F+1        0.00000   0.00000  -0.63775  -0.16419   0.00000
  46       16F-1       -0.52025   0.00000   0.00000   0.00000   0.00000
  47       16F+2        0.00000   0.40335   0.00000   0.00000  -0.51921
  48       16F-2        0.00000   0.00000   0.00000   0.00000   0.00000
  49       16F+3        0.00000   0.00000   0.16467  -0.63589   0.00000
  50       16F-3        0.40298   0.00000   0.00000   0.00000   0.00000
                          46        47        48        49        50
                           V     (T1U)--V  (T1U)--V  (T1U)--V  (A1G)--V
     Eigenvalues --     1.22157   2.12258   2.12556   2.12556   2.23596
   1 1   Si 1S          0.00000   0.00000   0.00000   0.00000  -0.00074
   2        2S          0.00000   0.00000   0.00000   0.00000   2.54480
   3        3S          0.00000   0.00000   0.00000   0.00000   4.68253
   4        4S          0.00000   0.00000   0.00000   0.00000  -3.73598
   5        5S          0.00000   0.00000   0.00000   0.00000  -3.34053
   6        6S          0.00000   0.00000   0.00000   0.00000   1.15453
   7        7PX         0.00000   0.00000   0.00000  -0.83432   0.00000
   8        7PY         0.00450  -0.83578   0.00000   0.00000   0.00000
   9        7PZ         0.00000   0.00000  -0.83432   0.00000   0.00000
  10        8PX         0.00000   0.00000   0.00000  -1.43970   0.00000
  11        8PY        -0.00200  -1.43879   0.00000   0.00000   0.00000
  12        8PZ         0.00000   0.00000  -1.43970   0.00000   0.00000
  13        9PX         0.00000   0.00000   0.00000   1.68165   0.00000
  14        9PY        -0.00636   1.68152   0.00000   0.00000   0.00000
  15        9PZ         0.00000   0.00000   1.68165   0.00000   0.00000
  16       10PX         0.00000   0.00000   0.00000   0.75204   0.00000
  17       10PY        -0.00009   0.75125   0.00000   0.00000   0.00000
  18       10PZ         0.00000   0.00000   0.75204   0.00000   0.00000
  19       11PX         0.00000   0.00000   0.00000  -0.24122   0.00000
  20       11PY         0.00041  -0.24100   0.00000   0.00000   0.00000
  21       11PZ         0.00000   0.00000  -0.24122   0.00000   0.00000
  22       12D 0        0.00000   0.00000   0.00000   0.00000   0.00082
  23       12D+1        0.00000   0.00000   0.00000   0.00000   0.00000
  24       12D-1        0.00000   0.00000   0.00000   0.00000   0.00000
  25       12D+2        0.00000   0.00000   0.00000   0.00000   0.00142
  26       12D-2        0.00000   0.00000   0.00000   0.00000   0.00000
  27       13D 0        0.00000   0.00000   0.00000   0.00000  -0.00184
  28       13D+1        0.00000   0.00000   0.00000   0.00000   0.00000
  29       13D-1        0.00000   0.00000   0.00000   0.00000   0.00000
  30       13D+2        0.00000   0.00000   0.00000   0.00000  -0.00319
  31       13D-2        0.00000   0.00000   0.00000   0.00000   0.00000
  32       14D 0        0.00000   0.00000   0.00000   0.00000  -0.00041
  33       14D+1        0.00000   0.00000   0.00000   0.00000   0.00000
  34       14D-1        0.00000   0.00000   0.00000   0.00000   0.00000
  35       14D+2        0.00000   0.00000   0.00000   0.00000  -0.00071
  36       14D-2        0.00000   0.00000   0.00000   0.00000   0.00000
  37       15F 0        0.00000   0.00000  -0.00014   0.00000   0.00000
  38       15F+1        0.00000   0.00000   0.00000  -0.00006   0.00000
  39       15F-1        0.75599   0.00256   0.00000   0.00000   0.00000
  40       15F+2        0.00000   0.00000  -0.00018   0.00000   0.00000
  41       15F-2        0.00000   0.00000   0.00000   0.00000   0.00000
  42       15F+3        0.00000   0.00000   0.00000  -0.00022   0.00000
  43       15F-3        0.97598   0.00330   0.00000   0.00000   0.00000
  44       16F 0        0.00000   0.00000   0.00019   0.00000   0.00000
  45       16F+1        0.00000   0.00000   0.00000   0.00008   0.00000
  46       16F-1       -0.40191  -0.00107   0.00000   0.00000   0.00000
  47       16F+2        0.00000   0.00000   0.00024   0.00000   0.00000
  48       16F-2        0.00000   0.00000   0.00000   0.00000   0.00000
  49       16F+3        0.00000   0.00000   0.00000   0.00029   0.00000
  50       16F-3       -0.51887  -0.00138   0.00000   0.00000   0.00000
     Beta Molecular Orbital Coefficients:
                           1         2         3         4         5
                       (A1G)--O  (A1G)--O  (T1U)--O  (T1U)--O  (T1U)--O
     Eigenvalues --   -66.17565  -5.31015  -3.67531  -3.66172  -3.66172
   1 1   Si 1S          1.00199  -0.26630   0.00000   0.00000   0.00000
   2        2S         -0.00490   0.98432   0.00000   0.00000   0.00000
   3        3S          0.00401  -0.02835   0.00000   0.00000   0.00000
   4        4S         -0.00432   0.07943   0.00000   0.00000   0.00000
   5        5S         -0.00261   0.01339   0.00000   0.00000   0.00000
   6        6S          0.00090  -0.00422   0.00000   0.00000   0.00000
   7        7PX         0.00000   0.00000   0.00000   0.91844   0.00000
   8        7PY         0.00000   0.00000   0.91750   0.00000   0.00000
   9        7PZ         0.00000   0.00000   0.00000   0.00000   0.91844
  10        8PX         0.00000   0.00000   0.00000   0.00986   0.00000
  11        8PY         0.00000   0.00000   0.01028   0.00000   0.00000
  12        8PZ         0.00000   0.00000   0.00000   0.00000   0.00986
  13        9PX         0.00000   0.00000   0.00000   0.13476   0.00000
  14        9PY         0.00000   0.00000   0.13610   0.00000   0.00000
  15        9PZ         0.00000   0.00000   0.00000   0.00000   0.13476
  16       10PX         0.00000   0.00000   0.00000  -0.00318   0.00000
  17       10PY         0.00000   0.00000  -0.00329   0.00000   0.00000
  18       10PZ         0.00000   0.00000   0.00000   0.00000  -0.00318
  19       11PX         0.00000   0.00000   0.00000   0.00105   0.00000
  20       11PY         0.00000   0.00000   0.00108   0.00000   0.00000
  21       11PZ         0.00000   0.00000   0.00000   0.00000   0.00105
  22       12D 0        0.00000   0.00027   0.00000   0.00000   0.00000
  23       12D+1        0.00000   0.00000   0.00000   0.00000   0.00000
  24       12D-1        0.00000   0.00000   0.00000   0.00000   0.00000
  25       12D+2        0.00000   0.00046   0.00000   0.00000   0.00000
  26       12D-2        0.00000   0.00000   0.00000   0.00000   0.00000
  27       13D 0       -0.00000  -0.00056   0.00000   0.00000   0.00000
  28       13D+1        0.00000   0.00000   0.00000   0.00000   0.00000
  29       13D-1        0.00000   0.00000   0.00000   0.00000   0.00000
  30       13D+2       -0.00000  -0.00098   0.00000   0.00000   0.00000
  31       13D-2        0.00000   0.00000   0.00000   0.00000   0.00000
  32       14D 0       -0.00000  -0.00010   0.00000   0.00000   0.00000
  33       14D+1        0.00000   0.00000   0.00000   0.00000   0.00000
  34       14D-1        0.00000   0.00000   0.00000   0.00000   0.00000
  35       14D+2       -0.00000  -0.00017   0.00000   0.00000   0.00000
  36       14D-2        0.00000   0.00000   0.00000   0.00000   0.00000
  37       15F 0        0.00000   0.00000   0.00000   0.00000  -0.00031
  38       15F+1        0.00000   0.00000   0.00000  -0.00013   0.00000
  39       15F-1        0.00000   0.00000  -0.00039   0.00000   0.00000
  40       15F+2        0.00000   0.00000   0.00000   0.00000  -0.00041
  41       15F-2        0.00000   0.00000   0.00000   0.00000   0.00000
  42       15F+3        0.00000   0.00000   0.00000  -0.00050   0.00000
  43       15F-3        0.00000   0.00000  -0.00051   0.00000   0.00000
  44       16F 0        0.00000   0.00000   0.00000   0.00000   0.00013
  45       16F+1        0.00000   0.00000   0.00000   0.00005   0.00000
  46       16F-1        0.00000   0.00000   0.00016   0.00000   0.00000
  47       16F+2        0.00000   0.00000   0.00000   0.00000   0.00017
  48       16F-2        0.00000   0.00000   0.00000   0.00000   0.00000
  49       16F+3        0.00000   0.00000   0.00000   0.00020   0.00000
  50       16F-3        0.00000   0.00000   0.00020   0.00000   0.00000
                           6         7         8         9        10
                           O         V         V         V         V
     Eigenvalues --    -0.39251  -0.11404  -0.08345  -0.08345   0.01767
   1 1   Si 1S          0.07239   0.00000   0.00000   0.00000  -0.02270
   2        2S         -0.30681   0.00000   0.00000   0.00000   0.14408
   3        3S          0.57321   0.00000   0.00000   0.00000  -0.09716
   4        4S          0.14260   0.00000   0.00000   0.00000  -0.07640
   5        5S          0.38005   0.00000   0.00000   0.00000  -1.28678
   6        6S          0.00808   0.00000   0.00000   0.00000   1.87300
   7        7PX         0.00000   0.00000   0.00000  -0.18853   0.00000
   8        7PY         0.00000  -0.19793   0.00000   0.00000   0.00000
   9        7PZ         0.00000   0.00000  -0.18853   0.00000   0.00000
  10        8PX         0.00000   0.00000   0.00000   0.43335   0.00000
  11        8PY         0.00000   0.47794   0.00000   0.00000   0.00000
  12        8PZ         0.00000   0.00000   0.43335   0.00000   0.00000
  13        9PX         0.00000   0.00000   0.00000   0.07852   0.00000
  14        9PY         0.00000   0.07903   0.00000   0.00000   0.00000
  15        9PZ         0.00000   0.00000   0.07852   0.00000   0.00000
  16       10PX         0.00000   0.00000   0.00000   0.51590   0.00000
  17       10PY         0.00000   0.51796   0.00000   0.00000   0.00000
  18       10PZ         0.00000   0.00000   0.51590   0.00000   0.00000
  19       11PX         0.00000   0.00000   0.00000   0.17846   0.00000
  20       11PY         0.00000   0.10886   0.00000   0.00000   0.00000
  21       11PZ         0.00000   0.00000   0.17846   0.00000   0.00000
  22       12D 0       -0.01245   0.00000   0.00000   0.00000   0.00136
  23       12D+1        0.00000   0.00000   0.00000   0.00000   0.00000
  24       12D-1        0.00000   0.00000   0.00000   0.00000   0.00000
  25       12D+2       -0.02156   0.00000   0.00000   0.00000   0.00236
  26       12D-2        0.00000   0.00000   0.00000   0.00000   0.00000
  27       13D 0       -0.01095   0.00000   0.00000   0.00000   0.00361
  28       13D+1        0.00000   0.00000   0.00000   0.00000   0.00000
  29       13D-1        0.00000   0.00000   0.00000   0.00000   0.00000
  30       13D+2       -0.01897   0.00000   0.00000   0.00000   0.00626
  31       13D-2        0.00000   0.00000   0.00000   0.00000   0.00000
  32       14D 0       -0.00040   0.00000   0.00000   0.00000  -0.02079
  33       14D+1        0.00000   0.00000   0.00000   0.00000   0.00000
  34       14D-1        0.00000   0.00000   0.00000   0.00000   0.00000
  35       14D+2       -0.00070   0.00000   0.00000   0.00000  -0.03601
  36       14D-2        0.00000   0.00000   0.00000   0.00000   0.00000
  37       15F 0        0.00000   0.00000  -0.00696   0.00000   0.00000
  38       15F+1        0.00000   0.00000   0.00000  -0.00284   0.00000
  39       15F-1        0.00000  -0.00927   0.00000   0.00000   0.00000
  40       15F+2        0.00000   0.00000  -0.00898   0.00000   0.00000
  41       15F-2        0.00000   0.00000   0.00000   0.00000   0.00000
  42       15F+3        0.00000   0.00000   0.00000  -0.01100   0.00000
  43       15F-3        0.00000  -0.01197   0.00000   0.00000   0.00000
  44       16F 0        0.00000   0.00000  -0.00788   0.00000   0.00000
  45       16F+1        0.00000   0.00000   0.00000  -0.00322   0.00000
  46       16F-1        0.00000  -0.00764   0.00000   0.00000   0.00000
  47       16F+2        0.00000   0.00000  -0.01017   0.00000   0.00000
  48       16F-2        0.00000   0.00000   0.00000   0.00000   0.00000
  49       16F+3        0.00000   0.00000   0.00000  -0.01245   0.00000
  50       16F-3        0.00000  -0.00986   0.00000   0.00000   0.00000
                          11        12        13        14        15
                           V         V         V         V         V
     Eigenvalues --     0.03818   0.04407   0.04407   0.09089   0.09175
   1 1   Si 1S          0.00000   0.00000   0.00000   0.00211   0.00000
   2        2S          0.00000   0.00000   0.00000  -0.00126   0.00000
   3        3S          0.00000   0.00000   0.00000   0.03745   0.00000
   4        4S          0.00000   0.00000   0.00000   0.00832   0.00000
   5        5S          0.00000   0.00000   0.00000  -0.09449   0.00000
   6        6S          0.00000   0.00000   0.00000   0.09701   0.00000
   7        7PX         0.00000   0.10072   0.00000   0.00000   0.00000
   8        7PY         0.09120   0.00000   0.00000   0.00000   0.00000
   9        7PZ         0.00000   0.00000   0.10072   0.00000   0.00000
  10        8PX         0.00000  -0.19823   0.00000   0.00000   0.00000
  11        8PY        -0.19880   0.00000   0.00000   0.00000   0.00000
  12        8PZ         0.00000   0.00000  -0.19823   0.00000   0.00000
  13        9PX         0.00000  -0.05253   0.00000   0.00000   0.00000
  14        9PY        -0.04665   0.00000   0.00000   0.00000   0.00000
  15        9PZ         0.00000   0.00000  -0.05253   0.00000   0.00000
  16       10PX         0.00000  -0.60506   0.00000   0.00000   0.00000
  17       10PY        -0.52779   0.00000   0.00000   0.00000   0.00000
  18       10PZ         0.00000   0.00000  -0.60506   0.00000   0.00000
  19       11PX         0.00000   1.22246   0.00000   0.00000   0.00000
  20       11PY         1.21535   0.00000   0.00000   0.00000   0.00000
  21       11PZ         0.00000   0.00000   1.22246   0.00000   0.00000
  22       12D 0        0.00000   0.00000   0.00000   0.00906   0.00000
  23       12D+1        0.00000   0.00000   0.00000   0.00000   0.00000
  24       12D-1        0.00000   0.00000   0.00000   0.00000   0.00481
  25       12D+2        0.00000   0.00000   0.00000   0.01568   0.00000
  26       12D-2        0.00000   0.00000   0.00000   0.00000   0.00000
  27       13D 0        0.00000   0.00000   0.00000   0.04845   0.00000
  28       13D+1        0.00000   0.00000   0.00000   0.00000   0.00000
  29       13D-1        0.00000   0.00000   0.00000   0.00000   0.09552
  30       13D+2        0.00000   0.00000   0.00000   0.08391   0.00000
  31       13D-2        0.00000   0.00000   0.00000   0.00000   0.00000
  32       14D 0        0.00000   0.00000   0.00000   0.48242   0.00000
  33       14D+1        0.00000   0.00000   0.00000   0.00000   0.00000
  34       14D-1        0.00000   0.00000   0.00000   0.00000   0.97542
  35       14D+2        0.00000   0.00000   0.00000   0.83558   0.00000
  36       14D-2        0.00000   0.00000   0.00000   0.00000   0.00000
  37       15F 0        0.00000   0.00000   0.00428   0.00000   0.00000
  38       15F+1        0.00000   0.00175   0.00000   0.00000   0.00000
  39       15F-1        0.00454   0.00000   0.00000   0.00000   0.00000
  40       15F+2        0.00000   0.00000   0.00553   0.00000   0.00000
  41       15F-2        0.00000   0.00000   0.00000   0.00000   0.00000
  42       15F+3        0.00000   0.00677   0.00000   0.00000   0.00000
  43       15F-3        0.00586   0.00000   0.00000   0.00000   0.00000
  44       16F 0        0.00000   0.00000   0.00010   0.00000   0.00000
  45       16F+1        0.00000   0.00004   0.00000   0.00000   0.00000
  46       16F-1       -0.00002   0.00000   0.00000   0.00000   0.00000
  47       16F+2        0.00000   0.00000   0.00013   0.00000   0.00000
  48       16F-2        0.00000   0.00000   0.00000   0.00000   0.00000
  49       16F+3        0.00000   0.00016   0.00000   0.00000   0.00000
  50       16F-3       -0.00002   0.00000   0.00000   0.00000   0.00000
                          16        17        18        19        20
                           V         V         V         V         V
     Eigenvalues --     0.09175   0.09965   0.09965   0.32655   0.33737
   1 1   Si 1S          0.00000  -0.00000   0.00000   0.00000   0.01015
   2        2S          0.00000  -0.00000   0.00000   0.00000  -0.00874
   3        3S          0.00000  -0.00000   0.00000   0.00000   0.18274
   4        4S          0.00000   0.00000   0.00000   0.00000   0.05337
   5        5S          0.00000   0.00000   0.00000   0.00000  -0.30569
   6        6S          0.00000   0.00000   0.00000   0.00000   0.13997
   7        7PX         0.00000   0.00000   0.00000   0.00000   0.00000
   8        7PY         0.00000   0.00000   0.00000   0.18579   0.00000
   9        7PZ         0.00000   0.00000   0.00000   0.00000   0.00000
  10        8PX         0.00000   0.00000   0.00000   0.00000   0.00000
  11        8PY         0.00000   0.00000   0.00000  -1.28406   0.00000
  12        8PZ         0.00000   0.00000   0.00000   0.00000   0.00000
  13        9PX         0.00000   0.00000   0.00000   0.00000   0.00000
  14        9PY         0.00000   0.00000   0.00000  -0.05877   0.00000
  15        9PZ         0.00000   0.00000   0.00000   0.00000   0.00000
  16       10PX         0.00000   0.00000   0.00000   0.00000   0.00000
  17       10PY         0.00000   0.00000   0.00000   1.69843   0.00000
  18       10PZ         0.00000   0.00000   0.00000   0.00000   0.00000
  19       11PX         0.00000   0.00000   0.00000   0.00000   0.00000
  20       11PY         0.00000   0.00000   0.00000  -0.71835   0.00000
  21       11PZ         0.00000   0.00000   0.00000   0.00000   0.00000
  22       12D 0        0.00000  -0.02428   0.00000   0.00000   0.57118
  23       12D+1        0.00000   0.00000  -0.02804   0.00000   0.00000
  24       12D-1        0.00000   0.00000   0.00000   0.00000   0.00000
  25       12D+2        0.00000   0.01402   0.00000   0.00000   0.98932
  26       12D-2        0.00481   0.00000   0.00000   0.00000   0.00000
  27       13D 0        0.00000   0.07891   0.00000   0.00000   0.07750
  28       13D+1        0.00000   0.00000   0.09112   0.00000   0.00000
  29       13D-1        0.00000   0.00000   0.00000   0.00000   0.00000
  30       13D+2        0.00000  -0.04556   0.00000   0.00000   0.13423
  31       13D-2        0.09552   0.00000   0.00000   0.00000   0.00000
  32       14D 0        0.00000   0.86476   0.00000   0.00000  -0.41584
  33       14D+1        0.00000   0.00000   0.99854   0.00000   0.00000
  34       14D-1        0.00000   0.00000   0.00000   0.00000   0.00000
  35       14D+2        0.00000  -0.49927   0.00000   0.00000  -0.72025
  36       14D-2        0.97542   0.00000   0.00000   0.00000   0.00000
  37       15F 0        0.00000   0.00000   0.00000   0.00000   0.00000
  38       15F+1        0.00000   0.00000   0.00000   0.00000   0.00000
  39       15F-1        0.00000   0.00000   0.00000   0.01325   0.00000
  40       15F+2        0.00000   0.00000   0.00000   0.00000   0.00000
  41       15F-2        0.00000   0.00000   0.00000   0.00000   0.00000
  42       15F+3        0.00000   0.00000   0.00000   0.00000   0.00000
  43       15F-3        0.00000   0.00000   0.00000   0.01710   0.00000
  44       16F 0        0.00000   0.00000   0.00000   0.00000   0.00000
  45       16F+1        0.00000   0.00000   0.00000   0.00000   0.00000
  46       16F-1        0.00000   0.00000   0.00000  -0.04469   0.00000
  47       16F+2        0.00000   0.00000   0.00000   0.00000   0.00000
  48       16F-2        0.00000   0.00000   0.00000   0.00000   0.00000
  49       16F+3        0.00000   0.00000   0.00000   0.00000   0.00000
  50       16F-3        0.00000   0.00000   0.00000  -0.05770   0.00000
                          21        22        23        24        25
                           V         V         V         V         V
     Eigenvalues --     0.34292   0.34292   0.34770   0.34770   0.36004
   1 1   Si 1S          0.00000   0.00000   0.00000   0.00000  -0.08490
   2        2S          0.00000   0.00000   0.00000   0.00000  -0.14441
   3        3S          0.00000   0.00000   0.00000   0.00000  -2.02829
   4        4S          0.00000   0.00000   0.00000   0.00000  -0.36352
   5        5S          0.00000   0.00000   0.00000   0.00000   3.85433
   6        6S          0.00000   0.00000   0.00000   0.00000  -1.83100
   7        7PX         0.00000   0.00000   0.00000   0.19026   0.00000
   8        7PY         0.00000   0.00000   0.00000   0.00000   0.00000
   9        7PZ         0.00000   0.00000   0.19026   0.00000   0.00000
  10        8PX         0.00000   0.00000   0.00000  -1.29788   0.00000
  11        8PY         0.00000   0.00000   0.00000   0.00000   0.00000
  12        8PZ         0.00000   0.00000  -1.29788   0.00000   0.00000
  13        9PX         0.00000   0.00000   0.00000  -0.05980   0.00000
  14        9PY         0.00000   0.00000   0.00000   0.00000   0.00000
  15        9PZ         0.00000   0.00000  -0.05980   0.00000   0.00000
  16       10PX         0.00000   0.00000   0.00000   1.67170   0.00000
  17       10PY         0.00000   0.00000   0.00000   0.00000   0.00000
  18       10PZ         0.00000   0.00000   1.67170   0.00000   0.00000
  19       11PX         0.00000   0.00000   0.00000  -0.69140   0.00000
  20       11PY         0.00000   0.00000   0.00000   0.00000   0.00000
  21       11PZ         0.00000   0.00000  -0.69140   0.00000   0.00000
  22       12D 0        0.00000   0.00000   0.00000   0.00000   0.03687
  23       12D+1        0.00000   0.00000   0.00000   0.00000   0.00000
  24       12D-1        1.14886   0.00000   0.00000   0.00000   0.00000
  25       12D+2        0.00000   0.00000   0.00000   0.00000   0.06386
  26       12D-2        0.00000   1.14886   0.00000   0.00000   0.00000
  27       13D 0        0.00000   0.00000   0.00000   0.00000   0.02314
  28       13D+1        0.00000   0.00000   0.00000   0.00000   0.00000
  29       13D-1        0.15584   0.00000   0.00000   0.00000   0.00000
  30       13D+2        0.00000   0.00000   0.00000   0.00000   0.04009
  31       13D-2        0.00000   0.15584   0.00000   0.00000   0.00000
  32       14D 0        0.00000   0.00000   0.00000   0.00000  -0.02446
  33       14D+1        0.00000   0.00000   0.00000   0.00000   0.00000
  34       14D-1       -0.82323   0.00000   0.00000   0.00000   0.00000
  35       14D+2        0.00000   0.00000   0.00000   0.00000  -0.04237
  36       14D-2        0.00000  -0.82323   0.00000   0.00000   0.00000
  37       15F 0        0.00000   0.00000   0.01372   0.00000   0.00000
  38       15F+1        0.00000   0.00000   0.00000   0.00560   0.00000
  39       15F-1        0.00000   0.00000   0.00000   0.00000   0.00000
  40       15F+2        0.00000   0.00000   0.01772   0.00000   0.00000
  41       15F-2        0.00000   0.00000   0.00000   0.00000   0.00000
  42       15F+3        0.00000   0.00000   0.00000   0.02170   0.00000
  43       15F-3        0.00000   0.00000   0.00000   0.00000   0.00000
  44       16F 0        0.00000   0.00000  -0.05949   0.00000   0.00000
  45       16F+1        0.00000   0.00000   0.00000  -0.02429   0.00000
  46       16F-1        0.00000   0.00000   0.00000   0.00000   0.00000
  47       16F+2        0.00000   0.00000  -0.07681   0.00000   0.00000
  48       16F-2        0.00000   0.00000   0.00000   0.00000   0.00000
  49       16F+3        0.00000   0.00000   0.00000  -0.09407   0.00000
  50       16F-3        0.00000   0.00000   0.00000   0.00000   0.00000
                          26        27        28        29        30
                           V         V         V         V         V
     Eigenvalues --     0.36266   0.36266   0.39089   0.39217   0.39217
   1 1   Si 1S         -0.00000   0.00000   0.00000   0.00000   0.00000
   2        2S         -0.00000   0.00000   0.00000   0.00000   0.00000
   3        3S         -0.00000   0.00000   0.00000   0.00000   0.00000
   4        4S         -0.00000   0.00000   0.00000   0.00000   0.00000
   5        5S          0.00000   0.00000   0.00000   0.00000   0.00000
   6        6S         -0.00000   0.00000   0.00000   0.00000   0.00000
   7        7PX         0.00000   0.00000   0.00000   0.01140   0.00000
   8        7PY         0.00000   0.00000   0.00574   0.00000   0.00000
   9        7PZ         0.00000   0.00000   0.00000   0.00000   0.01140
  10        8PX         0.00000   0.00000   0.00000  -0.10374   0.00000
  11        8PY         0.00000   0.00000  -0.07097   0.00000   0.00000
  12        8PZ         0.00000   0.00000   0.00000   0.00000  -0.10374
  13        9PX         0.00000   0.00000   0.00000  -0.00144   0.00000
  14        9PY         0.00000   0.00000   0.00098   0.00000   0.00000
  15        9PZ         0.00000   0.00000   0.00000   0.00000  -0.00144
  16       10PX         0.00000   0.00000   0.00000   0.15579   0.00000
  17       10PY         0.00000   0.00000   0.11843   0.00000   0.00000
  18       10PZ         0.00000   0.00000   0.00000   0.00000   0.15579
  19       11PX         0.00000   0.00000   0.00000  -0.06070   0.00000
  20       11PY         0.00000   0.00000  -0.04710   0.00000   0.00000
  21       11PZ         0.00000   0.00000   0.00000   0.00000  -0.06070
  22       12D 0        1.00411   0.00000   0.00000   0.00000   0.00000
  23       12D+1        0.00000   1.15945   0.00000   0.00000   0.00000
  24       12D-1        0.00000   0.00000   0.00000   0.00000   0.00000
  25       12D+2       -0.57972   0.00000   0.00000   0.00000   0.00000
  26       12D-2        0.00000   0.00000   0.00000   0.00000   0.00000
  27       13D 0        0.12706   0.00000   0.00000   0.00000   0.00000
  28       13D+1        0.00000   0.14671   0.00000   0.00000   0.00000
  29       13D-1        0.00000   0.00000   0.00000   0.00000   0.00000
  30       13D+2       -0.07336   0.00000   0.00000   0.00000   0.00000
  31       13D-2        0.00000   0.00000   0.00000   0.00000   0.00000
  32       14D 0       -0.69220   0.00000   0.00000   0.00000   0.00000
  33       14D+1        0.00000  -0.79928   0.00000   0.00000   0.00000
  34       14D-1        0.00000   0.00000   0.00000   0.00000   0.00000
  35       14D+2        0.39964   0.00000   0.00000   0.00000   0.00000
  36       14D-2        0.00000   0.00000   0.00000   0.00000   0.00000
  37       15F 0        0.00000   0.00000   0.00000   0.00000  -0.06149
  38       15F+1        0.00000   0.00000   0.00000  -0.02510   0.00000
  39       15F-1        0.00000   0.00000  -0.06065   0.00000   0.00000
  40       15F+2        0.00000   0.00000   0.00000   0.00000  -0.07938
  41       15F-2        0.00000   0.00000   0.00000   0.00000   0.00000
  42       15F+3        0.00000   0.00000   0.00000  -0.09722   0.00000
  43       15F-3        0.00000   0.00000  -0.07830   0.00000   0.00000
  44       16F 0        0.00000   0.00000   0.00000   0.00000   0.64424
  45       16F+1        0.00000   0.00000   0.00000   0.26301   0.00000
  46       16F-1        0.00000   0.00000   0.64485   0.00000   0.00000
  47       16F+2        0.00000   0.00000   0.00000   0.00000   0.83171
  48       16F-2        0.00000   0.00000   0.00000   0.00000   0.00000
  49       16F+3        0.00000   0.00000   0.00000   1.01863   0.00000
  50       16F-3        0.00000   0.00000   0.83250   0.00000   0.00000
                          31        32        33        34        35
                       (A2U)--V      V         V         V         V
     Eigenvalues --     0.39652   0.39652   0.40604   0.40604   1.06496
   1 1   Si 1S          0.00000   0.00000   0.00000   0.00000   0.00275
   2        2S          0.00000   0.00000   0.00000   0.00000   0.00273
   3        3S          0.00000   0.00000   0.00000   0.00000   0.06039
   4        4S          0.00000   0.00000   0.00000   0.00000   0.00649
   5        5S          0.00000   0.00000   0.00000   0.00000  -0.08179
   6        6S          0.00000   0.00000   0.00000   0.00000   0.03154
   7        7PX         0.00000   0.00000   0.00000   0.00000   0.00000
   8        7PY         0.00000   0.00000   0.00000   0.00000   0.00000
   9        7PZ         0.00000   0.00000   0.00000  -0.00000   0.00000
  10        8PX         0.00000   0.00000  -0.00000   0.00000   0.00000
  11        8PY         0.00000  -0.00000   0.00000   0.00000   0.00000
  12        8PZ         0.00000   0.00000   0.00000   0.00000   0.00000
  13        9PX         0.00000   0.00000  -0.00000   0.00000   0.00000
  14        9PY         0.00000   0.00000   0.00000   0.00000   0.00000
  15        9PZ         0.00000   0.00000   0.00000   0.00000   0.00000
  16       10PX         0.00000   0.00000   0.00000   0.00000   0.00000
  17       10PY         0.00000   0.00000   0.00000   0.00000   0.00000
  18       10PZ         0.00000   0.00000   0.00000  -0.00000   0.00000
  19       11PX         0.00000   0.00000  -0.00000   0.00000   0.00000
  20       11PY         0.00000  -0.00000   0.00000   0.00000   0.00000
  21       11PZ         0.00000   0.00000   0.00000   0.00000   0.00000
  22       12D 0        0.00000   0.00000   0.00000   0.00000  -0.61060
  23       12D+1        0.00000   0.00000   0.00000   0.00000   0.00000
  24       12D-1        0.00000   0.00000   0.00000   0.00000   0.00000
  25       12D+2        0.00000   0.00000   0.00000   0.00000  -1.05759
  26       12D-2        0.00000   0.00000   0.00000   0.00000   0.00000
  27       13D 0        0.00000   0.00000   0.00000   0.00000   0.65372
  28       13D+1        0.00000   0.00000   0.00000   0.00000   0.00000
  29       13D-1        0.00000   0.00000   0.00000   0.00000   0.00000
  30       13D+2        0.00000   0.00000   0.00000   0.00000   1.13227
  31       13D-2        0.00000   0.00000   0.00000   0.00000   0.00000
  32       14D 0        0.00000   0.00000   0.00000   0.00000   0.23706
  33       14D+1        0.00000   0.00000   0.00000   0.00000   0.00000
  34       14D-1        0.00000   0.00000   0.00000   0.00000   0.00000
  35       14D+2        0.00000   0.00000   0.00000   0.00000   0.41059
  36       14D-2        0.00000   0.00000   0.00000   0.00000   0.00000
  37       15F 0        0.00000   0.00000   0.00000  -0.08803   0.00000
  38       15F+1        0.00000   0.00000  -0.10781   0.00000   0.00000
  39       15F-1        0.00000  -0.08345   0.00000   0.00000   0.00000
  40       15F+2        0.00000   0.00000   0.00000   0.06818   0.00000
  41       15F-2       -0.10556   0.00000   0.00000   0.00000   0.00000
  42       15F+3        0.00000   0.00000   0.02784   0.00000   0.00000
  43       15F-3        0.00000   0.06464   0.00000   0.00000   0.00000
  44       16F 0        0.00000   0.00000   0.00000   0.83923   0.00000
  45       16F+1        0.00000   0.00000   1.02784   0.00000   0.00000
  46       16F-1        0.00000   0.83686   0.00000   0.00000   0.00000
  47       16F+2        0.00000   0.00000   0.00000  -0.65007   0.00000
  48       16F-2        1.05856   0.00000   0.00000   0.00000   0.00000
  49       16F+3        0.00000   0.00000  -0.26539   0.00000   0.00000
  50       16F-3        0.00000  -0.64823   0.00000   0.00000   0.00000
                          36        37        38        39        40
                       (T2G)--V  (T2G)--V      V     (T2G)--V      V
     Eigenvalues --     1.07194   1.07194   1.09489   1.09489   1.24445
   1 1   Si 1S          0.00000   0.00000   0.00000   0.00000   0.00000
   2        2S          0.00000   0.00000  -0.00000   0.00000   0.00000
   3        3S          0.00000   0.00000   0.00000   0.00000   0.00000
   4        4S          0.00000   0.00000   0.00000   0.00000   0.00000
   5        5S          0.00000   0.00000  -0.00000   0.00000   0.00000
   6        6S          0.00000   0.00000   0.00000   0.00000   0.00000
   7        7PX         0.00000   0.00000   0.00000   0.00000   0.00000
   8        7PY         0.00000   0.00000   0.00000   0.00000  -0.01274
   9        7PZ         0.00000   0.00000   0.00000   0.00000   0.00000
  10        8PX         0.00000   0.00000   0.00000   0.00000   0.00000
  11        8PY         0.00000   0.00000   0.00000   0.00000   0.01104
  12        8PZ         0.00000   0.00000   0.00000   0.00000   0.00000
  13        9PX         0.00000   0.00000   0.00000   0.00000   0.00000
  14        9PY         0.00000   0.00000   0.00000   0.00000   0.01741
  15        9PZ         0.00000   0.00000   0.00000   0.00000   0.00000
  16       10PX         0.00000   0.00000   0.00000   0.00000   0.00000
  17       10PY         0.00000   0.00000   0.00000   0.00000  -0.00406
  18       10PZ         0.00000   0.00000   0.00000   0.00000   0.00000
  19       11PX         0.00000   0.00000   0.00000   0.00000   0.00000
  20       11PY         0.00000   0.00000   0.00000   0.00000   0.00070
  21       11PZ         0.00000   0.00000   0.00000   0.00000   0.00000
  22       12D 0        0.00000   0.00000  -1.04558   0.00000   0.00000
[...]
  42       15F+3       -0.00000   0.00000   0.00000   0.00000   0.00000
  43       15F-3       -0.00000   0.00000   0.00000   0.00000   0.00000
  44       16F 0       -0.00000   0.00000   0.00000   0.00000   0.00000
  45       16F+1       -0.00000   0.00000   0.00000   0.00000   0.00000
  46       16F-1       -0.00000   0.00000   0.00000   0.00000   0.00000
  47       16F+2        0.00000   0.00000   0.00000   0.00000   0.00000
  48       16F-2       -0.00000   0.00000   0.00000   0.00000   0.00000
  49       16F+3        0.00000   0.00000   0.00000   0.00000   0.00000
  50       16F-3        0.00000   0.00000   0.00000   0.00000   0.00000
                          26        27        28        29        30
  26       12D-2        0.00000
  27       13D 0        0.00000   0.00014
  28       13D+1        0.00000   0.00000   0.00000
  29       13D-1        0.00000  -0.00000   0.00000   0.00000
  30       13D+2        0.00000  -0.00000  -0.00000   0.00000   0.00041
  31       13D-2        0.00000   0.00000   0.00000   0.00000  -0.00000
  32       14D 0        0.00000   0.00000  -0.00000   0.00000  -0.00000
  33       14D+1        0.00000  -0.00000   0.00000   0.00000   0.00000
  34       14D-1        0.00000   0.00000   0.00000   0.00000   0.00000
  35       14D+2        0.00000   0.00000  -0.00000  -0.00000   0.00000
  36       14D-2        0.00000   0.00000   0.00000   0.00000  -0.00000
  37       15F 0        0.00000   0.00000   0.00000   0.00000   0.00000
  38       15F+1        0.00000   0.00000   0.00000   0.00000   0.00000
  39       15F-1        0.00000   0.00000   0.00000   0.00000   0.00000
  40       15F+2        0.00000   0.00000   0.00000   0.00000   0.00000
  41       15F-2        0.00000   0.00000   0.00000   0.00000   0.00000
  42       15F+3        0.00000   0.00000   0.00000   0.00000   0.00000
  43       15F-3        0.00000   0.00000   0.00000   0.00000   0.00000
  44       16F 0        0.00000   0.00000   0.00000   0.00000   0.00000
  45       16F+1        0.00000   0.00000   0.00000   0.00000   0.00000
  46       16F-1        0.00000   0.00000   0.00000   0.00000   0.00000
  47       16F+2        0.00000   0.00000   0.00000   0.00000   0.00000
  48       16F-2        0.00000   0.00000   0.00000   0.00000   0.00000
  49       16F+3        0.00000   0.00000   0.00000   0.00000   0.00000
  50       16F-3        0.00000   0.00000   0.00000   0.00000   0.00000
                          31        32        33        34        35
  31       13D-2        0.00000
  32       14D 0        0.00000   0.00000
  33       14D+1        0.00000   0.00000  -0.00000
  34       14D-1        0.00000  -0.00000   0.00000   0.00000
  35       14D+2       -0.00000  -0.00000   0.00000   0.00000   0.00000
  36       14D-2        0.00000   0.00000   0.00000   0.00000   0.00000
  37       15F 0        0.00000   0.00000   0.00000   0.00000   0.00000
  38       15F+1        0.00000   0.00000   0.00000   0.00000   0.00000
  39       15F-1        0.00000   0.00000   0.00000   0.00000   0.00000
  40       15F+2        0.00000   0.00000   0.00000   0.00000   0.00000
  41       15F-2        0.00000   0.00000   0.00000   0.00000   0.00000
  42       15F+3        0.00000   0.00000   0.00000   0.00000   0.00000
  43       15F-3        0.00000   0.00000   0.00000   0.00000   0.00000
  44       16F 0        0.00000   0.00000   0.00000   0.00000   0.00000
  45       16F+1        0.00000   0.00000   0.00000   0.00000   0.00000
  46       16F-1        0.00000   0.00000   0.00000   0.00000   0.00000
  47       16F+2        0.00000   0.00000   0.00000   0.00000   0.00000
  48       16F-2        0.00000   0.00000   0.00000   0.00000   0.00000
  49       16F+3        0.00000   0.00000   0.00000   0.00000   0.00000
  50       16F-3        0.00000   0.00000   0.00000   0.00000   0.00000
                          36        37        38        39        40
  36       14D-2        0.00000
  37       15F 0        0.00000   0.00000
  38       15F+1        0.00000   0.00000   0.00000
  39       15F-1        0.00000  -0.00000  -0.00000   0.00000
  40       15F+2        0.00000   0.00000   0.00000  -0.00000   0.00000
  41       15F-2        0.00000  -0.00000  -0.00000   0.00000  -0.00000
  42       15F+3        0.00000   0.00000  -0.00000  -0.00000   0.00000
  43       15F-3        0.00000   0.00000   0.00000   0.00000  -0.00000
  44       16F 0        0.00000  -0.00000   0.00000   0.00000   0.00000
  45       16F+1        0.00000  -0.00000  -0.00000  -0.00000   0.00000
  46       16F-1        0.00000  -0.00000   0.00000  -0.00000  -0.00000
  47       16F+2        0.00000  -0.00000   0.00000   0.00000  -0.00000
  48       16F-2        0.00000   0.00000   0.00000   0.00000   0.00000
  49       16F+3        0.00000  -0.00000   0.00000   0.00000   0.00000
  50       16F-3        0.00000   0.00000  -0.00000  -0.00000  -0.00000
                          41        42        43        44        45
  41       15F-2        0.00000
  42       15F+3        0.00000   0.00000
  43       15F-3        0.00000  -0.00000   0.00000
  44       16F 0        0.00000  -0.00000   0.00000   0.00000
  45       16F+1        0.00000   0.00000  -0.00000  -0.00000   0.00000
  46       16F-1       -0.00000   0.00000  -0.00000   0.00000   0.00000
  47       16F+2       -0.00000  -0.00000   0.00000  -0.00000   0.00000
  48       16F-2       -0.00000  -0.00000   0.00000  -0.00000  -0.00000
  49       16F+3       -0.00000  -0.00000  -0.00000   0.00000   0.00000
  50       16F-3       -0.00000  -0.00000  -0.00000  -0.00000   0.00000
                          46        47        48        49        50
  46       16F-1        0.00000
  47       16F+2        0.00000   0.00000
  48       16F-2        0.00000  -0.00000   0.00000
  49       16F+3       -0.00000   0.00000   0.00000   0.00000
  50       16F-3       -0.00000   0.00000   0.00000   0.00000   0.00000
     Gross orbital populations:
                         Total     Alpha     Beta      Spin
   1 1   Si 1S          1.99995   0.99997   0.99998  -0.00000
   2        2S          1.91593   0.95831   0.95762   0.00069
   3        3S          1.13802   0.58733   0.55069   0.03664
   4        4S          0.26644   0.12569   0.14075  -0.01506
   5        5S          0.67668   0.33253   0.34415  -0.01163
   6        6S          0.00083  -0.00420   0.00503  -0.00922
   7        7PX         1.83899   0.92705   0.91193   0.01512
   8        7PY         1.82209   0.91125   0.91085   0.00040
   9        7PZ         1.83899   0.92705   0.91193   0.01512
  10        8PX         0.49899   0.49692   0.00207   0.49484
  11        8PY         0.00448   0.00231   0.00217   0.00014
  12        8PZ         0.49899   0.49692   0.00207   0.49484
  13        9PX         0.20415   0.11792   0.08623   0.03169
  14        9PY         0.17394   0.08671   0.08723  -0.00052
  15        9PZ         0.20415   0.11792   0.08623   0.03169
  16       10PX         0.43813   0.43839  -0.00026   0.43865
  17       10PY        -0.00056  -0.00029  -0.00027  -0.00002
  18       10PZ         0.43813   0.43839  -0.00026   0.43865
  19       11PX         0.01974   0.01971   0.00002   0.01969
  20       11PY         0.00005   0.00002   0.00002   0.00000
  21       11PZ         0.01974   0.01971   0.00002   0.01969
  22       12D 0        0.00029   0.00005   0.00024  -0.00019
  23       12D+1        0.00000   0.00000  -0.00000   0.00000
  24       12D-1        0.00000   0.00000   0.00000  -0.00000
  25       12D+2        0.00088   0.00016   0.00072  -0.00056
  26       12D-2        0.00000   0.00000   0.00000  -0.00000
  27       13D 0        0.00024   0.00003   0.00020  -0.00017
  28       13D+1        0.00000   0.00000   0.00000  -0.00000
  29       13D-1        0.00000   0.00000   0.00000  -0.00000
  30       13D+2        0.00071   0.00010   0.00061  -0.00051
  31       13D-2        0.00000   0.00000   0.00000  -0.00000
  32       14D 0        0.00001   0.00001   0.00000   0.00000
  33       14D+1       -0.00000  -0.00000  -0.00000   0.00000
  34       14D-1        0.00000   0.00000   0.00000   0.00000
  35       14D+2        0.00003   0.00002   0.00001   0.00000
  36       14D-2        0.00000   0.00000   0.00000   0.00000
  37       15F 0        0.00000   0.00000   0.00000   0.00000
  38       15F+1        0.00000   0.00000   0.00000   0.00000
  39       15F-1        0.00000   0.00000   0.00000  -0.00000
  40       15F+2        0.00000   0.00000   0.00000   0.00000
  41       15F-2        0.00000   0.00000   0.00000   0.00000
  42       15F+3        0.00000   0.00000   0.00000   0.00000
  43       15F-3        0.00000   0.00000   0.00000  -0.00000
  44       16F 0       -0.00000  -0.00000  -0.00000  -0.00000
  45       16F+1       -0.00000  -0.00000  -0.00000  -0.00000
  46       16F-1       -0.00000   0.00000  -0.00000   0.00000
  47       16F+2       -0.00000  -0.00000  -0.00000  -0.00000
  48       16F-2       -0.00000  -0.00000  -0.00000  -0.00000
  49       16F+3       -0.00000  -0.00000  -0.00000  -0.00000
  50       16F-3       -0.00000   0.00000  -0.00000   0.00000
          Condensed to atoms (all electrons):
               1
     1  Si  14.000000
          Atomic-Atomic Spin Densities.
               1
     1  Si   2.000000
 Mulliken charges and spin densities:
               1          2
     1  Si  -0.000000   2.000000
 Sum of Mulliken charges =  -0.00000   2.00000
 Mulliken charges and spin densities with hydrogens summed into heavy atoms:
               1          2
     1  Si  -0.000000   2.000000
 Electronic spatial extent (au):  <R**2>=             32.0318
 Charge=             -0.0000 electrons
 Dipole moment (field-independent basis, Debye):
    X=              0.0000    Y=              0.0000    Z=              0.0000  Tot=              0.0000
 Quadrupole moment (field-independent basis, Debye-Ang):
   XX=            -15.9234   YY=            -11.2371   ZZ=            -15.9234
   XY=             -0.0000   XZ=             -0.0000   YZ=              0.0000
 Traceless Quadrupole moment (field-independent basis, Debye-Ang):
   XX=             -1.5621   YY=              3.1242   ZZ=             -1.5621
   XY=             -0.0000   XZ=             -0.0000   YZ=              0.0000
 Octapole moment (field-independent basis, Debye-Ang**2):
  XXX=              0.0000  YYY=              0.0000  ZZZ=              0.0000  XYY=              0.0000
  XXY=              0.0000  XXZ=              0.0000  XZZ=              0.0000  YZZ=              0.0000
  YYZ=              0.0000  XYZ=              0.0000
 Hexadecapole moment (field-independent basis, Debye-Ang**3):
 XXXX=            -37.7286 YYYY=            -18.2924 ZZZZ=            -37.7286 XXXY=             -0.0000
 XXXZ=             -0.0000 YYYX=             -0.0000 YYYZ=              0.0000 ZZZX=              0.0000
 ZZZY=              0.0000 XXYY=             -9.3329 XXZZ=            -12.5762 YYZZ=             -9.3329
 XXYZ=              0.0000 YYXZ=             -0.0000 ZZXY=             -0.0000
 N-N= 0.000000000000D+00 E-N=-6.890615823145D+02  KE= 2.884653421543D+02
 Symmetry AG   KE= 2.135908208337D+02
 Symmetry B1G  KE= 1.131626130160D-35
 Symmetry B2G  KE= 2.330306270785D-52
 Symmetry B3G  KE= 1.131626130160D-35
 Symmetry AU   KE= 2.645397556534D-38
 Symmetry B1U  KE= 2.531270701374D+01
 Symmetry B2U  KE= 2.424910729312D+01
 Symmetry B3U  KE= 2.531270701374D+01
 Symmetry AG   SP=-4.759558783182D-15
 Symmetry B1G  SP=-8.005282743783D-36
 Symmetry B2G  SP=-6.165513795853D-53
 Symmetry B3G  SP=-8.005282743783D-36
 Symmetry AU   SP= 1.231669537137D-38
 Symmetry B1U  SP= 1.000000000000D+00
 Symmetry B2U  SP= 2.629596523489D-15
 Symmetry B3U  SP= 1.000000000000D+00
 Orbital energies and kinetic energies (alpha):
                                 1                 2
   1         (A1G)--O        -66.181985         92.196904
   2         (A1G)--O         -5.316911         13.052825
   3         (T1U)--O         -3.678752         12.127731
   4         (T1U)--O         -3.675162         12.153798
   5         (T1U)--O         -3.675162         12.153798
   6         O                -0.456428          1.541113
   7         O                -0.194444          1.018242
   8         O                -0.194444          1.018242
   9         V                -0.129534          0.934841
  10         V                 0.011126          0.280329
  11         V                 0.033612          0.198389
  12         V                 0.033612          0.198389
  13         V                 0.036723          0.227498
  14         V                 0.079725          0.237958
  15         V                 0.079725          0.237958
  16         V                 0.080909          0.233414
  17         V                 0.080909          0.233414
  18         V                 0.085620          0.230489
  19         V                 0.309323          0.717657
  20         V                 0.309323          0.717657
  21         V                 0.312316          0.718986
  22         V                 0.312316          0.718986
  23         V                 0.314743          1.251736
  24         V                 0.314743          1.251736
  25         V                 0.319027          0.720980
  26         V                 0.320906          1.308526
  27         (A1G)--V          0.339240          1.423271
  28         (A2U)--V          0.379815          0.542175
  29         V                 0.379815          0.542175
  30         V                 0.381089          0.542251
  31         V                 0.381089          0.542251
  32         V                 0.381822          0.542293
  33         V                 0.381822          0.542293
  34         V                 0.383888          0.541800
  35         (T2G)--V          1.046435          2.008224
  36         (T2G)--V          1.046435          2.008224
  37         (T2G)--V          1.046947          2.005009
  38         (EG)--V           1.046947          2.005009
  39         (EG)--V           1.050499          2.009761
  40         (A2U)--V          1.214534          1.763468
  41         V                 1.214534          1.763468
  42         V                 1.215888          1.763350
  43         V                 1.215888          1.763350
  44         V                 1.217904          1.763728
  45         V                 1.217904          1.763728
  46         V                 1.221569          1.764011
  47         (T1U)--V          2.122578          8.658681
  48         (T1U)--V          2.125555          8.634945
  49         (T1U)--V          2.125555          8.634945
  50         (A1G)--V          2.235955          7.930801
 Orbital energies and kinetic energies (beta):
                                 1                 2
   1         (A1G)--O        -66.175654         92.200653
   2         (A1G)--O         -5.310151         13.049103
   3         (T1U)--O         -3.675306         12.121376
   4         (T1U)--O         -3.661719         12.140668
   5         (T1U)--O         -3.661719         12.140668
   6         O                -0.392507          1.550223
   7         V                -0.114041          0.905940
   8         V                -0.083450          0.817668
   9         V                -0.083450          0.817668
  10         V                 0.017668          0.274977
  11         V                 0.038184          0.247819
  12         V                 0.044072          0.285968
  13         V                 0.044072          0.285968
  14         V                 0.090887          0.217735
  15         V                 0.091748          0.214184
  16         V                 0.091748          0.214184
  17         V                 0.099652          0.206935
  18         V                 0.099652          0.206935
  19         V                 0.326548          1.333841
  20         V                 0.337369          0.741548
  21         V                 0.342923          0.727635
  22         V                 0.342923          0.727635
  23         V                 0.347695          1.378441
  24         V                 0.347695          1.378441
  25         V                 0.360036          1.426177
  26         V                 0.362663          0.728337
  27         V                 0.362663          0.728337
  28         V                 0.390887          0.540719
  29         V                 0.392168          0.542903
  30         V                 0.392168          0.542903
  31         (A2U)--V          0.396524          0.539177
  32         V                 0.396524          0.539177
  33         V                 0.406040          0.538409
  34         V                 0.406040          0.538409
  35         V                 1.064960          2.016308
  36         (T2G)--V          1.071936          2.018805
  37         (T2G)--V          1.071936          2.018805
  38         V                 1.094895          2.025351
  39         (T2G)--V          1.094895          2.025351
  40         V                 1.244447          1.767234
  41         V                 1.248499          1.766996
  42         V                 1.248499          1.766996
  43         (A2U)--V          1.259940          1.766467
  44         V                 1.259940          1.766467
  45         V                 1.279794          1.767234
  46         V                 1.279794          1.767234
  47         V                 2.128316          8.646159
  48         V                 2.154786          8.630444
  49         V                 2.154786          8.630444
  50         (A1G)--V          2.255403          7.909748
 Total kinetic energy from orbitals= 2.884653421543D+02
                          Isotropic Fermi Contact Couplings
        Atom                 a.u.       MegaHertz       Gauss      10(-4) cm-1
     1  Si(29)            -0.00467       2.07534       0.74053       0.69226
 --------------------------------------------------------
       Center         ----  Spin Dipole Couplings  ----
                      3XX-RR        3YY-RR        3ZZ-RR
 --------------------------------------------------------
     1   Atom        0.949119     -1.898239      0.949119
 --------------------------------------------------------
                        XY            XZ            YZ
 --------------------------------------------------------
     1   Atom        0.000000      0.000000      0.000000
 --------------------------------------------------------


 ---------------------------------------------------------------------------------
              Anisotropic Spin Dipole Couplings in Principal Axis System
 ---------------------------------------------------------------------------------

       Atom             a.u.   MegaHertz   Gauss  10(-4) cm-1        Axes

              Baa    -1.8982   201.373    71.855    67.171 -0.0000  1.0000  0.0000
     1 Si(29) Bbb     0.9491  -100.686   -35.927   -33.585  1.0000  0.0000  0.0000
              Bcc     0.9491  -100.686   -35.927   -33.585  0.0000  0.0000  1.0000
 

 ---------------------------------------------------------------------------------

 1\1\GINC-LOGIN\SP\UB3LYP\Aug-CC-pVTZ\Si1(3)\C7441090\20-Nov-2023\0\\# 
 B3LYP/aug-cc-pVTZ EmpiricalDispersion=GD3 Pop=Full\\Sillicon\\0,3\Si,0
 ,0.,0.,0.\\Version=ES64L-G16RevA.03\HF=-289.3967728\S2=2.00396\S2-1=0.
 \S2A=2.\RMSD=1.335e-09\Dipole=0.,0.,0.\Quadrupole=-1.1613737,2.3227473
 ,-1.1613737,0.,0.,0.\PG=OH [O(Si1)]\\@


 IF NO USE IS MADE OF THE LABOR OF PAST AGES,
 THE WORLD MUST REMAIN ALWAYS IN THE INFANCY OF KNOWLEDGE.

                          -- CICERO
 Job cpu time:       0 days  0 hours  0 minutes 15.8 seconds.
 Elapsed time:       0 days  0 hours  0 minutes  8.3 seconds.
 File lengths (MBytes):  RWF=      5 Int=      0 D2E=      0 Chk=      1 Scr=      1
 Normal termination of Gaussian 16 at Mon Nov 20 23:53:31 2023.
