 Entering Gaussian System, Link 0=g16
 Input=F.com
 Output=F.log
 Initial command:
 /usr/site/hpc/x86_64/glibc-2.17/broadwell/gaussian/g16_a.03/pgi-16.5/g16/l1.exe "/home/c744/c7441090/data/Gau-3758049.inp" -scrdir="/home/c744/c7441090/data/"
 Entering Link 1 = /usr/site/hpc/x86_64/glibc-2.17/broadwell/gaussian/g16_a.03/pgi-16.5/g16/l1.exe PID=   3758050.
  
 Copyright (c) 1988,1990,1992,1993,1995,1998,2003,2009,2016,
            Gaussian, Inc.  All Rights Reserved.
  
 This is part of the Gaussian(R) 16 program.  It is based on
 the Gaussian(R) 09 system (copyright 2009, Gaussian, Inc.),
 the Gaussian(R) 03 system (copyright 2003, Gaussian, Inc.),
 the Gaussian(R) 98 system (copyright 1998, Gaussian, Inc.),
 the Gaussian(R) 94 system (copyright 1995, Gaussian, Inc.),
 the Gaussian 92(TM) system (copyright 1992, Gaussian, Inc.),
 the Gaussian 90(TM) system (copyright 1990, Gaussian, Inc.),
 the Gaussian 88(TM) system (copyright 1988, Gaussian, Inc.),
 the Gaussian 86(TM) system (copyright 1986, Carnegie Mellon
 University), and the Gaussian 82(TM) system (copyright 1983,
 Carnegie Mellon University). Gaussian is a federally registered
 trademark of Gaussian, Inc.
  
 This software contains proprietary and confidential information,
 including trade secrets, belonging to Gaussian, Inc.
  
 This software is provided under written license and may be
 used, copied, transmitted, or stored only in accord with that
 written license.
  
 The following legend is applicable only to US Government
 contracts under FAR:
  
                    RESTRICTED RIGHTS LEGEND
  
 Use, reproduction and disclosure by the US Government is
 subject to restrictions as set forth in subparagraphs (a)
 and (c) of the Commercial Computer Software - Restricted
 Rights clause in FAR 52.227-19.
  
 Gaussian, Inc.
 340 Quinnipiac St., Bldg. 40, Wallingford CT 06492
  
  
 ---------------------------------------------------------------
 Warning -- This program may not be used in any manner that
 competes with the business of Gaussian, Inc. or will provide
 assistance to any competitor of Gaussian, Inc.  The licensee
 of this program is prohibited from giving any competitor of
 Gaussian, Inc. access to this program.  By using this program,
 the user acknowledges that Gaussian, Inc. is engaged in the
 business of creating and licensing software in the field of
 computational chemistry and represents and warrants to the
 licensee that it is not a competitor of Gaussian, Inc. and that
 it will not use this program in any manner prohibited above.
 ---------------------------------------------------------------
  

 Cite this work as:
 Gaussian 16, Revision A.03,
 M. J. Frisch, G. W. Trucks, H. B. Schlegel, G. E. Scuseria, 
 M. A. Robb, J. R. Cheeseman, G. Scalmani, V. Barone, 
 G. A. Petersson, H. Nakatsuji, X. Li, M. Caricato, A. V. Marenich, 
 J. Bloino, B. G. Janesko, R. Gomperts, B. Mennucci, H. P. Hratchian, 
 J. V. Ortiz, A. F. Izmaylov, J. L. Sonnenberg, D. Williams-Young, 
 F. Ding, F. Lipparini, F. Egidi, J. Goings, B. Peng, A. Petrone, 
 T. Henderson, D. Ranasinghe, V. G. Zakrzewski, J. Gao, N. Rega, 
 G. Zheng, W. Liang, M. Hada, M. Ehara, K. Toyota, R. Fukuda, 
 J. Hasegawa, M. Ishida, T. Nakajima, Y. Honda, O. Kitao, H. Nakai, 
 T. Vreven, K. Throssell, J. A. Montgomery, Jr., J. E. Peralta, 
 F. Ogliaro, M. J. Bearpark, J. J. Heyd, E. N. Brothers, K. N. Kudin, 
 V. N. Staroverov, T. A. Keith, R. Kobayashi, J. Normand, 
 K. Raghavachari, A. P. Rendell, J. C. Burant, S. S. Iyengar, 
 J. Tomasi, M. Cossi, J. M. Millam, M. Klene, C. Adamo, R. Cammi, 
 J. W. Ochterski, R. L. Martin, K. Morokuma, O. Farkas, 
 J. B. Foresman, and D. J. Fox, Gaussian, Inc., Wallingford CT, 2016.
 
 ******************************************
 Gaussian 16:  ES64L-G16RevA.03 25-Dec-2016
                20-Nov-2023 
 ******************************************
 %NProcShared=4
 Will use up to    4 processors via shared memory.
 %Mem=1GB
 %Chk=F.chk
 ------------------------------------------------
 # B3LYP/CEP-31G EmpiricalDispersion=GD3 Pop=Full
 ------------------------------------------------
 1/38=1,172=1/1;
 2/12=2,17=6,18=5,40=1/2;
 3/5=9,6=1,11=2,25=1,30=1,74=-5,124=31/1,2,3;
 4//1;
 5/5=2,38=5/2;
 6/7=3,28=1/1;
 99/5=1,9=1/99;
 --------
 Fluorine
 --------
 Symbolic Z-matrix:
 Charge =  0 Multiplicity = 2
 F                     0.        0.        0. 
 
                          Input orientation:                          
 ---------------------------------------------------------------------
 Center     Atomic      Atomic             Coordinates (Angstroms)
 Number     Number       Type             X           Y           Z
 ---------------------------------------------------------------------
      1          9           0        0.000000    0.000000    0.000000
 ---------------------------------------------------------------------
 Stoichiometry    F(2)
 Framework group  OH[O(F)]
 Deg. of freedom     0
 Full point group                 OH      NOp  48
 Largest Abelian subgroup         D2H     NOp   8
 Largest concise Abelian subgroup C1      NOp   1
                         Standard orientation:                         
 ---------------------------------------------------------------------
 Center     Atomic      Atomic             Coordinates (Angstroms)
 Number     Number       Type             X           Y           Z
 ---------------------------------------------------------------------
      1          9           0        0.000000    0.000000    0.000000
 ---------------------------------------------------------------------
 Standard basis: CEP-31G (6D, 10F)
 There are     2 symmetry adapted cartesian basis functions of AG  symmetry.
 There are     0 symmetry adapted cartesian basis functions of B1G symmetry.
 There are     0 symmetry adapted cartesian basis functions of B2G symmetry.
 There are     0 symmetry adapted cartesian basis functions of B3G symmetry.
 There are     0 symmetry adapted cartesian basis functions of AU  symmetry.
 There are     2 symmetry adapted cartesian basis functions of B1U symmetry.
 There are     2 symmetry adapted cartesian basis functions of B2U symmetry.
 There are     2 symmetry adapted cartesian basis functions of B3U symmetry.
 There are     2 symmetry adapted basis functions of AG  symmetry.
 There are     0 symmetry adapted basis functions of B1G symmetry.
 There are     0 symmetry adapted basis functions of B2G symmetry.
 There are     0 symmetry adapted basis functions of B3G symmetry.
 There are     0 symmetry adapted basis functions of AU  symmetry.
 There are     2 symmetry adapted basis functions of B1U symmetry.
 There are     2 symmetry adapted basis functions of B2U symmetry.
 There are     2 symmetry adapted basis functions of B3U symmetry.
     8 basis functions,    16 primitive gaussians,     8 cartesian basis functions
     4 alpha electrons        3 beta electrons
       nuclear repulsion energy         0.0000000000 Hartrees.
 NAtoms=    1 NActive=    1 NUniq=    1 SFac= 1.00D+00 NAtFMM=   60 NAOKFM=F Big=F
 Integral buffers will be    131072 words long.
 Raffenetti 2 integral format.
 Two-electron integral symmetry is turned on.
 Nuclear repulsion after empirical dispersion term =        0.0000000000 Hartrees.
 One-electron integrals computed using PRISM.
  48 Symmetry operations used in ECPInt.
 ECPInt:  NShTT=       3 NPrTT=      13 LenC2=       4 LenP2D=      13.
 LDataN:  DoStor=T MaxTD1= 2 Len=   12
 NBasis=     8 RedAO= T EigKep=  2.31D-01  NBF=     2     0     0     0     0     2     2     2
 NBsUse=     8 1.00D-06 EigRej= -1.00D+00 NBFU=     2     0     0     0     0     2     2     2
 ExpMin= 2.48D-01 ExpMax= 1.11D+01 ExpMxC= 1.11D+01 IAcc=3 IRadAn=         5 AccDes= 0.00D+00
 Harris functional with IExCor=  402 and IRadAn=       5 diagonalized for initial guess.
 HarFok:  IExCor=  402 AccDes= 0.00D+00 IRadAn=         5 IDoV= 1 UseB2=F ITyADJ=14
 ICtDFT=  3500011 ScaDFX=  1.000000  1.000000  1.000000  1.000000
 FoFCou: FMM=F IPFlag=           0 FMFlag=      100000 FMFlg1=           0
         NFxFlg=           0 DoJE=T BraDBF=F KetDBF=T FulRan=T
         wScrn=  0.000000 ICntrl=       500 IOpCl=  0 I1Cent=   200000004 NGrid=           0
         NMat0=    1 NMatS0=      1 NMatT0=    0 NMatD0=    1 NMtDS0=    0 NMtDT0=    0
 Petite list used in FoFCou.
 Initial guess orbital symmetries:
 Alpha Orbitals:
       Occupied  (A1G) (T1U) (T1U) (T1U)
       Virtual   (T1U) (T1U) (T1U) (A1G)
 Beta  Orbitals:
       Occupied  (A1G) (T1U) (T1U)
       Virtual   (T1U) (T1U) (T1U) (T1U) (A1G)
 Initial guess <Sx>= 0.0000 <Sy>= 0.0000 <Sz>= 0.5000 <S**2>= 0.7500 S= 0.5000
 Keep R1 and R2 ints in memory in symmetry-blocked form, NReq=3414433.
 Requested convergence on RMS density matrix=1.00D-08 within 128 cycles.
 Requested convergence on MAX density matrix=1.00D-06.
 Requested convergence on             energy=1.00D-06.
 No special actions if energy rises.
 Integral accuracy reduced to 1.0D-05 until final iterations.
 Density matrix breaks symmetry, PCut= 1.00D-04
 Density has only Abelian symmetry.
 Density matrix breaks symmetry, PCut= 1.00D-04
 Density has only Abelian symmetry.
 Density matrix breaks symmetry, PCut= 1.00D-04
 Density has only Abelian symmetry.
 Density matrix breaks symmetry, PCut= 1.00D-04
 Density has only Abelian symmetry.
 Density matrix breaks symmetry, PCut= 1.00D-04
 Density has only Abelian symmetry.
 Initial convergence to 1.0D-05 achieved.  Increase integral accuracy.
 Density matrix breaks symmetry, PCut= 1.00D-04
 Density has only Abelian symmetry.
 Density matrix breaks symmetry, PCut= 1.00D-04
 Density has only Abelian symmetry.
 Density matrix breaks symmetry, PCut= 1.00D-04
 Density has only Abelian symmetry.
 Density matrix breaks symmetry, PCut= 1.00D-04
 Density has only Abelian symmetry.
 Density matrix breaks symmetry, PCut= 1.00D-04
 Density has only Abelian symmetry.
 Density matrix breaks symmetry, PCut= 1.00D-04
 Density has only Abelian symmetry.
 SCF Done:  E(UB3LYP) =  -24.0772265316     A.U. after   10 cycles
            NFock= 10  Conv=0.72D-08     -V/T= 2.2884
 <Sx>= 0.0000 <Sy>= 0.0000 <Sz>= 0.5000 <S**2>= 0.7506 S= 0.5003
 <L.S>= 0.000000000000E+00
 Annihilation of the first spin contaminant:
 S**2 before annihilation     0.7506,   after     0.7500
 SCF density gives NOpUse=  8 NOpAll= 48.

 **********************************************************************

            Population analysis using the SCF density.

 **********************************************************************

 Orbital symmetries:
 Alpha Orbitals:
       Occupied  (A1G) (?A) (?A) (?A)
       Virtual   (?A) (?A) (?A) (A1G)
 Beta  Orbitals:
       Occupied  (A1G) (?A) (?A)
       Virtual   (?A) (?A) (?A) (?A) (A1G)
 Unable to determine electronic state:  an orbital has unidentified symmetry.
 Alpha  occ. eigenvalues --   -1.22623  -0.56002  -0.47168  -0.47168
 Alpha virt. eigenvalues --    0.62689   0.66889   0.66889   1.44697
  Beta  occ. eigenvalues --   -1.12998  -0.43826  -0.43826
  Beta virt. eigenvalues --   -0.25646   0.68191   0.68191   0.72504   1.47568
     Alpha Molecular Orbital Coefficients:
                           1         2         3         4         5
                       (A1G)--O      O         O         O         V
     Eigenvalues --    -1.22623  -0.56002  -0.47168  -0.47168   0.62689
   1 1   F  1S          0.78236   0.00000   0.00000   0.00000   0.00000
   2        1PX         0.00000   0.00000   0.81427   0.00000   0.00000
   3        1PY         0.00000   0.83647   0.00000   0.00000  -0.78833
   4        1PZ         0.00000   0.00000   0.00000   0.81427   0.00000
   5        2S          0.26429   0.00000   0.00000   0.00000   0.00000
   6        2PX         0.00000   0.00000   0.30433   0.00000   0.00000
   7        2PY         0.00000   0.27344   0.00000   0.00000   1.11641
   8        2PZ         0.00000   0.00000   0.00000   0.30433   0.00000
                           6         7         8
                           V         V     (A1G)--V
     Eigenvalues --     0.66889   0.66889   1.44697
   1 1   F  1S          0.00000   0.00000  -1.35503
   2        1PX        -0.81124   0.00000   0.00000
   3        1PY         0.00000   0.00000   0.00000
   4        1PZ         0.00000  -0.81124   0.00000
   5        2S          0.00000   0.00000   1.54219
   6        2PX         1.10839   0.00000   0.00000
   7        2PY         0.00000   0.00000   0.00000
   8        2PZ         0.00000   1.10839   0.00000
     Beta Molecular Orbital Coefficients:
                           1         2         3         4         5
                       (A1G)--O      O         O         V         V
     Eigenvalues --    -1.12998  -0.43826  -0.43826  -0.25646   0.68191
   1 1   F  1S          0.76584   0.00000   0.00000   0.00000   0.00000
   2        1PX         0.00000   0.80225   0.00000   0.00000  -0.82313
   3        1PY         0.00000   0.00000   0.00000   0.74254   0.00000
   4        1PZ         0.00000   0.00000   0.80225   0.00000   0.00000
   5        2S          0.28301   0.00000   0.00000   0.00000   0.00000
   6        2PX         0.00000   0.32059   0.00000   0.00000   1.10380
   7        2PY         0.00000   0.00000   0.00000   0.39723   0.00000
   8        2PZ         0.00000   0.00000   0.32059   0.00000   0.00000
                           6         7         8
                           V         V     (A1G)--V
     Eigenvalues --     0.68191   0.72504   1.47568
   1 1   F  1S          0.00000   0.00000  -1.36444
   2        1PX         0.00000   0.00000   0.00000
   3        1PY         0.00000  -0.87738   0.00000
   4        1PZ        -0.82313   0.00000   0.00000
   5        2S          0.00000   0.00000   1.53886
   6        2PX         0.00000   0.00000   0.00000
   7        2PY         0.00000   1.07859   0.00000
   8        2PZ         1.10380   0.00000   0.00000
     Alpha Density Matrix:
                           1         2         3         4         5
   1 1   F  1S          0.61209
   2        1PX         0.00000   0.66303
   3        1PY         0.00000  -0.00000   0.69969
   4        1PZ         0.00000  -0.00000   0.00000   0.66303
   5        2S          0.20677   0.00000   0.00000   0.00000   0.06985
   6        2PX         0.00000   0.24781   0.00000   0.00000   0.00000
   7        2PY         0.00000   0.00000   0.22873  -0.00000   0.00000
   8        2PZ         0.00000   0.00000  -0.00000   0.24781   0.00000
                           6         7         8
   6        2PX         0.09262
   7        2PY         0.00000   0.07477
   8        2PZ         0.00000  -0.00000   0.09262
     Beta Density Matrix:
                           1         2         3         4         5
   1 1   F  1S          0.58650
   2        1PX         0.00000   0.64361
   3        1PY         0.00000   0.00000   0.00000
   4        1PZ         0.00000  -0.00000  -0.00000   0.64361
   5        2S          0.21674   0.00000   0.00000   0.00000   0.08010
   6        2PX         0.00000   0.25720   0.00000   0.00000   0.00000
   7        2PY         0.00000   0.00000   0.00000  -0.00000   0.00000
   8        2PZ         0.00000   0.00000  -0.00000   0.25720   0.00000
                           6         7         8
   6        2PX         0.10278
   7        2PY         0.00000   0.00000
   8        2PZ         0.00000  -0.00000   0.10278
    Full Mulliken population analysis:
                           1         2         3         4         5
   1 1   F  1S          1.19859
   2        1PX         0.00000   1.30664
   3        1PY         0.00000   0.00000   0.69969
   4        1PZ         0.00000   0.00000  -0.00000   1.30664
   5        2S          0.32573   0.00000   0.00000   0.00000   0.14995
   6        2PX         0.00000   0.24898  -0.00000  -0.00000   0.00000
   7        2PY         0.00000  -0.00000   0.11277  -0.00000   0.00000
   8        2PZ         0.00000  -0.00000  -0.00000   0.24898   0.00000
                           6         7         8
   6        2PX         0.19540
   7        2PY        -0.00000   0.07477
   8        2PZ         0.00000  -0.00000   0.19540
     Gross orbital populations:
                         Total     Alpha     Beta      Spin
   1 1   F  1S          1.52432   0.77112   0.75320   0.01791
   2        1PX         1.55562   0.78521   0.77041   0.01479
   3        1PY         0.81246   0.81246   0.00000   0.81246
   4        1PZ         1.55562   0.78521   0.77041   0.01479
   5        2S          0.47568   0.22888   0.24680  -0.01791
   6        2PX         0.44438   0.21479   0.22959  -0.01479
   7        2PY         0.18754   0.18754   0.00000   0.18754
   8        2PZ         0.44438   0.21479   0.22959  -0.01479
          Condensed to atoms (all electrons):
               1
     1  F    7.000000
          Atomic-Atomic Spin Densities.
               1
     1  F    1.000000
 Mulliken charges and spin densities:
               1          2
     1  F   -0.000000   1.000000
 Sum of Mulliken charges =  -0.00000   1.00000
 Mulliken charges and spin densities with hydrogens summed into heavy atoms:
               1          2
     1  F   -0.000000   1.000000
 Electronic spatial extent (au):  <R**2>=             10.1926
 Charge=             -0.0000 electrons
 Dipole moment (field-independent basis, Debye):
    X=              0.0000    Y=              0.0000    Z=              0.0000  Tot=              0.0000
 Quadrupole moment (field-independent basis, Debye-Ang):
   XX=             -4.8732   YY=             -3.9630   ZZ=             -4.8732
   XY=             -0.0000   XZ=             -0.0000   YZ=              0.0000
 Traceless Quadrupole moment (field-independent basis, Debye-Ang):
   XX=             -0.3034   YY=              0.6068   ZZ=             -0.3034
   XY=             -0.0000   XZ=             -0.0000   YZ=              0.0000
 Octapole moment (field-independent basis, Debye-Ang**2):
  XXX=              0.0000  YYY=              0.0000  ZZZ=              0.0000  XYY=              0.0000
  XXY=              0.0000  XXZ=              0.0000  XZZ=              0.0000  YZZ=              0.0000
  YYZ=              0.0000  XYZ=              0.0000
 Hexadecapole moment (field-independent basis, Debye-Ang**3):
 XXXX=             -2.9302 YYYY=             -2.0434 ZZZZ=             -2.9302 XXXY=             -0.0000
 XXXZ=             -0.0000 YYYX=             -0.0000 YYYZ=              0.0000 ZZZX=             -0.0000
 ZZZY=              0.0000 XXYY=             -0.8289 XXZZ=             -0.9767 YYZZ=             -0.8289
 XXYZ=              0.0000 YYXZ=             -0.0000 ZZXY=             -0.0000
 N-N= 0.000000000000D+00 E-N=-5.945527740385D+01  KE= 1.868708965607D+01
 Symmetry AG   KE= 2.365029531416D+00
 Symmetry B1G  KE= 0.000000000000D+00
 Symmetry B2G  KE= 0.000000000000D+00
 Symmetry B3G  KE= 0.000000000000D+00
 Symmetry AU   KE= 0.000000000000D+00
 Symmetry B1U  KE= 6.460814705672D+00
 Symmetry B2U  KE= 3.400430713314D+00
 Symmetry B3U  KE= 6.460814705672D+00
 Symmetry AG   SP= 3.213483038760D-16
 Symmetry B1G  SP= 0.000000000000D+00
 Symmetry B2G  SP= 0.000000000000D+00
 Symmetry B3G  SP= 0.000000000000D+00
 Symmetry AU   SP= 0.000000000000D+00
 Symmetry B1U  SP=-6.812700885003D-16
 Symmetry B2U  SP= 1.000000000000D+00
 Symmetry B3U  SP=-1.376894202367D-15
 Orbital energies and kinetic energies (alpha):
                                 1                 2
   1         (A1G)--O         -1.226225          1.196905
   2         O                -0.560025          3.400431
   3         O                -0.471677          3.266122
   4         O                -0.471677          3.266122
   5         V                 0.626892          2.691080
   6         V                 0.668889          2.825389
   7         V                 0.668889          2.825389
   8         (A1G)--V          1.446974          2.013805
 Orbital energies and kinetic energies (beta):
                                 1                 2
   1         (A1G)--O         -1.129981          1.168125
   2         O                -0.438255          3.194692
   3         O                -0.438255          3.194692
   4         V                -0.256458          2.852922
   5         V                 0.681914          2.896819
   6         V                 0.681914          2.896819
   7         V                 0.725039          3.238589
   8         (A1G)--V          1.475684          2.042584
 Total kinetic energy from orbitals= 1.868708965607D+01
                          Isotropic Fermi Contact Couplings
        Atom                 a.u.       MegaHertz       Gauss      10(-4) cm-1
     1  F(19)             -0.00043      -1.80928      -0.64560      -0.60351
 --------------------------------------------------------
       Center         ----  Spin Dipole Couplings  ----
                      3XX-RR        3YY-RR        3ZZ-RR
 --------------------------------------------------------
     1   Atom       -2.660881      5.321762     -2.660881
 --------------------------------------------------------
                        XY            XZ            YZ
 --------------------------------------------------------
     1   Atom        0.000000      0.000000      0.000000
 --------------------------------------------------------


 ---------------------------------------------------------------------------------
              Anisotropic Spin Dipole Couplings in Principal Axis System
 ---------------------------------------------------------------------------------

       Atom             a.u.   MegaHertz   Gauss  10(-4) cm-1        Axes

              Baa    -2.6609 -1336.362  -476.847  -445.763  1.0000  0.0000  0.0000
     1 F(19)  Bbb    -2.6609 -1336.362  -476.847  -445.763  0.0000  0.0000  1.0000
              Bcc     5.3218  2672.725   953.695   891.525 -0.0000  1.0000  0.0000
 

 ---------------------------------------------------------------------------------

 1\1\GINC-LOGIN\SP\UB3LYP\CEP-31G\F1(2)\C7441090\20-Nov-2023\0\\# B3LYP
 /CEP-31G EmpiricalDispersion=GD3 Pop=Full\\Fluorine\\0,2\F,0,0.,0.,0.\
 \Version=ES64L-G16RevA.03\HF=-24.0772265\S2=0.75058\S2-1=0.\S2A=0.75\R
 MSD=7.187e-09\Dipole=0.,0.,0.\Quadrupole=-0.2255875,0.4511749,-0.22558
 75,0.,0.,0.\PG=OH [O(F1)]\\@


 SILVERMAN'S PARADOX - IF MURPHY'S LAW CAN GO WRONG, IT WILL.
 Job cpu time:       0 days  0 hours  0 minutes  9.6 seconds.
 Elapsed time:       0 days  0 hours  0 minutes  5.3 seconds.
 File lengths (MBytes):  RWF=      5 Int=      0 D2E=      0 Chk=      1 Scr=      1
 Normal termination of Gaussian 16 at Mon Nov 20 21:42:49 2023.
