Helium                                                                  
SP        RB3LYP                                                      Aug-CC-pVTZ         
Number of atoms                            I                1
Info1-9                                    I   N=           9
          12          11           0           0           0         110
           1          18        -502
Full Title                                 C   N=           1
Helium      
Route                                      C   N=           5
# B3LYP/aug-cc-pVTZ EmpiricalDispersion=GD3 Pop=Full        
Charge                                     I                0
Multiplicity                               I                1
Number of electrons                        I                2
Number of alpha electrons                  I                1
Number of beta electrons                   I                1
Number of basis functions                  I               23
Number of independent functions            I               23
Number of point charges in /Mol/           I                0
Number of translation vectors              I                0
Atomic numbers                             I   N=           1
           2
Nuclear charges                            R   N=           1
  2.00000000E+00
Current cartesian coordinates              R   N=           3
  0.00000000E+00  0.00000000E+00  0.00000000E+00
Number of symbols in /Mol/                 I                0
Force Field                                I                0
Atom Types                                 C   N=           1
            
Int Atom Types                             I   N=           1
           0
MM charges                                 R   N=           1
  0.00000000E+00
Integer atomic weights                     I   N=           1
           4
Real atomic weights                        R   N=           1
  4.00260325E+00
Atom fragment info                         I   N=           1
           0
Atom residue num                           I   N=           1
           0
Nuclear spins                              I   N=           1
           0
Nuclear ZEff                               R   N=           1
 -2.00000000E+00
Nuclear ZNuc                               R   N=           1
  2.00000000E+00
Nuclear QMom                               R   N=           1
  0.00000000E+00
Nuclear GFac                               R   N=           1
  0.00000000E+00
MicOpt                                     I   N=           1
          -1
Number of residues                         I                0
Number of secondary structures             I                0
SymInf integers                            I   N=          26
           1           8           1           1           1           1
          -1          -1          -1           1          -1          -1
          -1           1          -1          -1          -1          -1
           1           1           1          -1           1           1
           1          -1
RotTr to input orientation                 R   N=          12
  0.00000000E+00  0.00000000E+00 -1.00000000E+00  0.00000000E+00  1.00000000E+00
  0.00000000E+00  1.00000000E+00  0.00000000E+00  0.00000000E+00  0.00000000E+00
  0.00000000E+00  0.00000000E+00
Number of contracted shells                I                9
Number of primitive shells                 I               12
Pure/Cartesian d shells                    I                0
Pure/Cartesian f shells                    I                0
Highest angular momentum                   I                2
Largest degree of contraction              I                4
Shell types                                I   N=           9
           0           0           0           0           1           1
           1          -2          -2
Number of primitives per shell             I   N=           9
           4           1           1           1           1           1
           1           1           1
Shell to atom map                          I   N=           9
           1           1           1           1           1           1
           1           1           1
Primitive exponents                        R   N=          12
  2.34000000E+02  3.51600000E+01  7.98900000E+00  2.21200000E+00  6.66900000E-01
  2.08900000E-01  5.13800000E-02  3.04400000E+00  7.58000000E-01  1.99300000E-01
  1.96500000E+00  4.59200000E-01
Contraction coefficients                   R   N=          12
  7.29145688E-03  5.50537407E-02  2.56477771E-01  7.66772649E-01  1.00000000E+00
  1.00000000E+00  1.00000000E+00  1.00000000E+00  1.00000000E+00  1.00000000E+00
  1.00000000E+00  1.00000000E+00
Coordinates of each shell                  R   N=          27
  0.00000000E+00  0.00000000E+00  0.00000000E+00  0.00000000E+00  0.00000000E+00
  0.00000000E+00  0.00000000E+00  0.00000000E+00  0.00000000E+00  0.00000000E+00
  0.00000000E+00  0.00000000E+00  0.00000000E+00  0.00000000E+00  0.00000000E+00
  0.00000000E+00  0.00000000E+00  0.00000000E+00  0.00000000E+00  0.00000000E+00
  0.00000000E+00  0.00000000E+00  0.00000000E+00  0.00000000E+00  0.00000000E+00
  0.00000000E+00  0.00000000E+00
Num ILSW                                   I              100
ILSW                                       I   N=         100
           0           0           0           0           2           0
           0           0           0           0         402          -1
           5           0           0           0           0           0
           0           0           1           0           0           0
           1           0           0           0           0           0
           0           0      100000           0          -1           0
           0           0           0           0           0           0
           0           0           0           1           0           0
           0 -2000000000           1           0           0           0
           0           0         131          52           0           0
           0           0           5           0           0           0
           0           0           0           0           0           1
           0           0           0           0           0           0
           0           0           0           0           0           0
           0           0           0           0           0           0
           0           0           0           0           0           0
           0           0           0           0
Num RLSW                                   I               52
RLSW                                       R   N=          52
  8.00000000E-01  7.20000000E-01  1.00000000E+00  8.10000000E-01  2.00000000E-01
  0.00000000E+00  0.00000000E+00  1.00000000E+00  0.00000000E+00  0.00000000E+00
  0.00000000E+00  0.00000000E+00  1.00000000E+00  0.00000000E+00  0.00000000E+00
  0.00000000E+00  0.00000000E+00  1.00000000E+00  0.00000000E+00  0.00000000E+00
  0.00000000E+00  0.00000000E+00  1.00000000E+00  0.00000000E+00  0.00000000E+00
  0.00000000E+00  0.00000000E+00  1.00000000E+00  0.00000000E+00  0.00000000E+00
  0.00000000E+00  0.00000000E+00  1.00000000E+00  0.00000000E+00  0.00000000E+00
  0.00000000E+00  0.00000000E+00  0.00000000E+00  1.00000000E+00  1.00000000E+00
  0.00000000E+00  1.00000000E+00  0.00000000E+00  0.00000000E+00  0.00000000E+00
  0.00000000E+00  0.00000000E+00  0.00000000E+00  0.00000000E+00  0.00000000E+00
  0.00000000E+00  0.00000000E+00
MxBond                                     I                1
NBond                                      I   N=           1
           0
IBond                                      I   N=           1
           0
RBond                                      R   N=           1
  0.00000000E+00
Virial Ratio                               R      2.017379846381465E+00
SCF Energy                                 R     -2.914693817665882E+00
Total Energy                               R     -2.914693817665882E+00
RMS Density                                R      4.143969856617872E-09
Job Status                                 I                1
Nuclear derivative order                   I                0
External E-field                           R   N=          35
  0.00000000E+00  0.00000000E+00  0.00000000E+00  0.00000000E+00  0.00000000E+00
  0.00000000E+00  0.00000000E+00  0.00000000E+00  0.00000000E+00  0.00000000E+00
  0.00000000E+00  0.00000000E+00  0.00000000E+00  0.00000000E+00  0.00000000E+00
  0.00000000E+00  0.00000000E+00  0.00000000E+00  0.00000000E+00  0.00000000E+00
  0.00000000E+00  0.00000000E+00  0.00000000E+00  0.00000000E+00  0.00000000E+00
  0.00000000E+00  0.00000000E+00  0.00000000E+00  0.00000000E+00  0.00000000E+00
  0.00000000E+00  0.00000000E+00  0.00000000E+00  0.00000000E+00  0.00000000E+00
IOpCl                                      I                0
IROHF                                      I                0
Alpha Orbital Energies                     R   N=          23
 -6.61440457E-01  5.66586904E-02  2.94069917E-01  2.94069917E-01  2.94069917E-01
  6.75354046E-01  1.32848502E+00  1.32848502E+00  1.32848502E+00  1.32848502E+00
  1.32848502E+00  1.70162544E+00  1.70162544E+00  1.70162544E+00  4.32125673E+00
  6.67788272E+00  6.67788272E+00  6.67788272E+00  6.67788272E+00  6.67788272E+00
  7.69284343E+00  7.69284343E+00  7.69284343E+00
Alpha MO coefficients                      R   N=         529
  3.63246854E-01  4.53181432E-01  3.19377024E-01  1.70503514E-02  0.00000000E+00
  0.00000000E+00  0.00000000E+00  0.00000000E+00  0.00000000E+00  0.00000000E+00
  0.00000000E+00  0.00000000E+00  0.00000000E+00  4.72944237E-18  0.00000000E+00
  0.00000000E+00  2.53456204E-17  0.00000000E+00  3.84036235E-18  0.00000000E+00
  0.00000000E+00  4.20717160E-16  0.00000000E+00 -1.06816676E-01 -9.17254023E-02
 -5.11075545E-01  1.28434202E+00  0.00000000E+00  0.00000000E+00  0.00000000E+00
  0.00000000E+00  0.00000000E+00  0.00000000E+00  0.00000000E+00  0.00000000E+00
  0.00000000E+00 -4.84556604E-17  0.00000000E+00  0.00000000E+00 -3.55805795E-17
  0.00000000E+00  2.55258640E-17  0.00000000E+00  0.00000000E+00  2.57034483E-16
  0.00000000E+00  0.00000000E+00  0.00000000E+00  0.00000000E+00  0.00000000E+00
  0.00000000E+00  0.00000000E+00  2.82306505E-02  0.00000000E+00  0.00000000E+00
 -6.24828347E-02  0.00000000E+00  0.00000000E+00  1.03180082E+00  0.00000000E+00
  0.00000000E+00  0.00000000E+00  0.00000000E+00  0.00000000E+00  0.00000000E+00
  0.00000000E+00  0.00000000E+00  0.00000000E+00  0.00000000E+00  0.00000000E+00
  0.00000000E+00  0.00000000E+00  0.00000000E+00  0.00000000E+00  2.82306505E-02
  0.00000000E+00  0.00000000E+00 -6.24828347E-02  0.00000000E+00  0.00000000E+00
  1.03180082E+00  0.00000000E+00  0.00000000E+00  0.00000000E+00  0.00000000E+00
  0.00000000E+00  0.00000000E+00  0.00000000E+00  0.00000000E+00  0.00000000E+00
  0.00000000E+00  0.00000000E+00  0.00000000E+00  0.00000000E+00  0.00000000E+00
  0.00000000E+00  2.82306505E-02  0.00000000E+00  0.00000000E+00 -6.24828347E-02
  0.00000000E+00  0.00000000E+00  1.03180082E+00  0.00000000E+00  0.00000000E+00
  0.00000000E+00  0.00000000E+00  0.00000000E+00  0.00000000E+00  0.00000000E+00
  0.00000000E+00  0.00000000E+00  0.00000000E+00  0.00000000E+00  0.00000000E+00
 -1.99595420E-01 -1.26042884E+00  2.17993273E+00 -8.99276521E-01  0.00000000E+00
  0.00000000E+00  0.00000000E+00  0.00000000E+00  0.00000000E+00  0.00000000E+00
  0.00000000E+00  0.00000000E+00  0.00000000E+00 -3.27342656E-17  0.00000000E+00
  0.00000000E+00  4.09670293E-17  0.00000000E+00 -9.01141339E-17  0.00000000E+00
  0.00000000E+00  2.05842239E-15  0.00000000E+00  0.00000000E+00  0.00000000E+00
  0.00000000E+00  0.00000000E+00  0.00000000E+00  0.00000000E+00  0.00000000E+00
  0.00000000E+00  0.00000000E+00  0.00000000E+00  0.00000000E+00  0.00000000E+00
  0.00000000E+00  0.00000000E+00 -6.20593430E-02  0.00000000E+00  0.00000000E+00
  0.00000000E+00  0.00000000E+00  1.02486567E+00  0.00000000E+00  0.00000000E+00
  0.00000000E+00  0.00000000E+00  0.00000000E+00  0.00000000E+00  0.00000000E+00
  0.00000000E+00  0.00000000E+00  0.00000000E+00  0.00000000E+00  0.00000000E+00
  0.00000000E+00  0.00000000E+00  0.00000000E+00  0.00000000E+00  0.00000000E+00
  0.00000000E+00 -6.20593430E-02  0.00000000E+00  0.00000000E+00  0.00000000E+00
  0.00000000E+00  1.02486567E+00  0.00000000E+00  0.00000000E+00  0.00000000E+00
  0.00000000E+00  0.00000000E+00  0.00000000E+00  0.00000000E+00  0.00000000E+00
  0.00000000E+00  0.00000000E+00  0.00000000E+00  0.00000000E+00  0.00000000E+00
  0.00000000E+00  0.00000000E+00  0.00000000E+00  0.00000000E+00  0.00000000E+00
  0.00000000E+00 -6.20593430E-02  0.00000000E+00  0.00000000E+00  0.00000000E+00
  0.00000000E+00  1.02486567E+00  1.43533449E-16  1.80922484E-15 -2.14448463E-15
  5.08706156E-16  0.00000000E+00  0.00000000E+00  0.00000000E+00  0.00000000E+00
  0.00000000E+00  0.00000000E+00  0.00000000E+00  0.00000000E+00  0.00000000E+00
 -5.81925720E-02  0.00000000E+00  0.00000000E+00 -2.15635484E-02  0.00000000E+00
  9.61008710E-01  0.00000000E+00  0.00000000E+00  3.56106581E-01  0.00000000E+00
  4.16358857E-16  6.37885618E-15 -8.64449954E-15  3.00697504E-15  0.00000000E+00
  0.00000000E+00  0.00000000E+00  0.00000000E+00  0.00000000E+00  0.00000000E+00
  0.00000000E+00  0.00000000E+00  0.00000000E+00  2.15635484E-02  0.00000000E+00
  0.00000000E+00 -5.81925720E-02  0.00000000E+00 -3.56106581E-01  0.00000000E+00
  0.00000000E+00  9.61008710E-01  0.00000000E+00  0.00000000E+00  0.00000000E+00
  0.00000000E+00  0.00000000E+00  0.00000000E+00 -4.53923529E-02  0.00000000E+00
  0.00000000E+00  1.27512506E+00  0.00000000E+00  0.00000000E+00 -7.16063807E-01
  0.00000000E+00  0.00000000E+00  0.00000000E+00  0.00000000E+00  0.00000000E+00
  0.00000000E+00  0.00000000E+00  0.00000000E+00  0.00000000E+00  0.00000000E+00
  0.00000000E+00  0.00000000E+00  0.00000000E+00  0.00000000E+00  0.00000000E+00
 -4.53923529E-02  0.00000000E+00  0.00000000E+00  1.27512506E+00  0.00000000E+00
  0.00000000E+00 -7.16063807E-01  0.00000000E+00  0.00000000E+00  0.00000000E+00
  0.00000000E+00  0.00000000E+00  0.00000000E+00  0.00000000E+00  0.00000000E+00
  0.00000000E+00  0.00000000E+00  0.00000000E+00  0.00000000E+00  0.00000000E+00
  0.00000000E+00  0.00000000E+00  0.00000000E+00  0.00000000E+00  0.00000000E+00
 -4.53923529E-02  0.00000000E+00  0.00000000E+00  1.27512506E+00  0.00000000E+00
  0.00000000E+00 -7.16063807E-01  0.00000000E+00  0.00000000E+00  0.00000000E+00
  0.00000000E+00  0.00000000E+00  0.00000000E+00  0.00000000E+00  0.00000000E+00
  0.00000000E+00  0.00000000E+00 -1.51355447E+00  2.20593356E+00 -1.31801784E+00
  3.64368797E-01  0.00000000E+00  0.00000000E+00  0.00000000E+00  0.00000000E+00
  0.00000000E+00  0.00000000E+00  0.00000000E+00  0.00000000E+00  0.00000000E+00
 -5.72216655E-16  0.00000000E+00  0.00000000E+00  2.48198797E-15  0.00000000E+00
  1.32247812E-16  0.00000000E+00  0.00000000E+00 -1.61328242E-15  0.00000000E+00
  0.00000000E+00  0.00000000E+00  0.00000000E+00  0.00000000E+00  0.00000000E+00
  0.00000000E+00  0.00000000E+00  0.00000000E+00  0.00000000E+00  0.00000000E+00
  0.00000000E+00  0.00000000E+00  0.00000000E+00  0.00000000E+00  0.00000000E+00
  1.10361981E+00  0.00000000E+00  0.00000000E+00  0.00000000E+00  0.00000000E+00
 -4.14099513E-01  0.00000000E+00  0.00000000E+00  0.00000000E+00  0.00000000E+00
  0.00000000E+00  0.00000000E+00  0.00000000E+00  0.00000000E+00  0.00000000E+00
  0.00000000E+00  0.00000000E+00  0.00000000E+00  0.00000000E+00  0.00000000E+00
  0.00000000E+00  0.00000000E+00  1.10361981E+00  0.00000000E+00  0.00000000E+00
  0.00000000E+00  0.00000000E+00 -4.14099513E-01  0.00000000E+00  0.00000000E+00
  0.00000000E+00  0.00000000E+00  0.00000000E+00  0.00000000E+00  0.00000000E+00
  0.00000000E+00  0.00000000E+00  0.00000000E+00  0.00000000E+00  0.00000000E+00
  0.00000000E+00  0.00000000E+00  0.00000000E+00  0.00000000E+00  0.00000000E+00
  0.00000000E+00  0.00000000E+00  0.00000000E+00  1.10361981E+00  0.00000000E+00
  0.00000000E+00  0.00000000E+00  0.00000000E+00 -4.14099513E-01  5.36788682E-15
 -5.91989253E-15  2.86122433E-15 -9.19693955E-16  0.00000000E+00  0.00000000E+00
  0.00000000E+00  0.00000000E+00  0.00000000E+00  0.00000000E+00  0.00000000E+00
  0.00000000E+00  0.00000000E+00 -4.19090984E-02  0.00000000E+00  0.00000000E+00
  1.10282379E+00  0.00000000E+00  1.57251049E-02  0.00000000E+00  0.00000000E+00
 -4.13800831E-01  0.00000000E+00 -1.19823875E-15  1.21418286E-15 -7.24215431E-16
  7.74092390E-16  0.00000000E+00  0.00000000E+00  0.00000000E+00  0.00000000E+00
  0.00000000E+00  0.00000000E+00  0.00000000E+00  0.00000000E+00  0.00000000E+00
  1.10282379E+00  0.00000000E+00  0.00000000E+00  4.19090984E-02  0.00000000E+00
 -4.13800831E-01  0.00000000E+00  0.00000000E+00 -1.57251049E-02  0.00000000E+00
  0.00000000E+00  0.00000000E+00  0.00000000E+00  0.00000000E+00  0.00000000E+00
  1.26419206E+00  0.00000000E+00  0.00000000E+00 -8.84130290E-01  0.00000000E+00
  0.00000000E+00  3.02141504E-01  0.00000000E+00  0.00000000E+00  0.00000000E+00
  0.00000000E+00  0.00000000E+00  0.00000000E+00  0.00000000E+00  0.00000000E+00
  0.00000000E+00  0.00000000E+00  0.00000000E+00  0.00000000E+00  0.00000000E+00
  0.00000000E+00  0.00000000E+00  0.00000000E+00  0.00000000E+00  1.26419206E+00
  0.00000000E+00  0.00000000E+00 -8.84130290E-01  0.00000000E+00  0.00000000E+00
  3.02141504E-01  0.00000000E+00  0.00000000E+00  0.00000000E+00  0.00000000E+00
  0.00000000E+00  0.00000000E+00  0.00000000E+00  0.00000000E+00  0.00000000E+00
  0.00000000E+00  0.00000000E+00  0.00000000E+00  0.00000000E+00  0.00000000E+00
  1.26419206E+00  0.00000000E+00  0.00000000E+00 -8.84130290E-01  0.00000000E+00
  0.00000000E+00  3.02141504E-01  0.00000000E+00  0.00000000E+00  0.00000000E+00
  0.00000000E+00  0.00000000E+00  0.00000000E+00  0.00000000E+00  0.00000000E+00
  0.00000000E+00  0.00000000E+00  0.00000000E+00  0.00000000E+00
Orthonormal basis                          R   N=         529
  2.61644949E-01  3.51867951E-01  3.53148817E-01  2.63248610E-01  0.00000000E+00
  0.00000000E+00  0.00000000E+00  0.00000000E+00  0.00000000E+00  0.00000000E+00
  0.00000000E+00  0.00000000E+00  0.00000000E+00  1.13183722E-17  0.00000000E+00
  0.00000000E+00 -3.56696242E-18  0.00000000E+00  4.22032082E-17  0.00000000E+00
  0.00000000E+00 -5.35579147E-18  0.00000000E+00 -2.74220921E-15 -9.44857084E-16
  1.29753210E-15  2.31494975E-15  0.00000000E+00  0.00000000E+00  0.00000000E+00
  0.00000000E+00  0.00000000E+00  0.00000000E+00  0.00000000E+00  0.00000000E+00
  0.00000000E+00 -1.87287518E-01  0.00000000E+00  0.00000000E+00  5.61722307E-01
  0.00000000E+00 -1.87287518E-01  0.00000000E+00  0.00000000E+00  5.61722307E-01
  0.00000000E+00 -2.68016515E-30  2.05040008E-17 -4.87504301E-17 -6.98643354E-17
  0.00000000E+00  0.00000000E+00  0.00000000E+00  0.00000000E+00  0.00000000E+00
  0.00000000E+00  0.00000000E+00  0.00000000E+00  0.00000000E+00  5.61722307E-01
  0.00000000E+00  0.00000000E+00  1.87287518E-01  0.00000000E+00  5.61722307E-01
  0.00000000E+00  0.00000000E+00  1.87287518E-01  0.00000000E+00  6.51559848E-01
  2.78054208E-01 -2.75923031E-01 -6.49096744E-01  0.00000000E+00  0.00000000E+00
  0.00000000E+00  0.00000000E+00  0.00000000E+00  0.00000000E+00  0.00000000E+00
  0.00000000E+00  0.00000000E+00 -1.15778320E-15  0.00000000E+00  0.00000000E+00
  3.09452580E-15  0.00000000E+00 -1.02809923E-15  0.00000000E+00  0.00000000E+00
  3.11708737E-15  0.00000000E+00  8.30678944E-31  6.23054898E-17 -6.25934547E-17
  4.21861182E-18  0.00000000E+00  0.00000000E+00  0.00000000E+00  0.00000000E+00
  0.00000000E+00  0.00000000E+00  0.00000000E+00  0.00000000E+00  0.00000000E+00
  8.39233575E-02  0.00000000E+00  0.00000000E+00  9.29610859E-01  0.00000000E+00
 -8.39233575E-02  0.00000000E+00  0.00000000E+00 -9.29610859E-01  0.00000000E+00
  2.97465744E-16 -1.80903530E-16  1.90888923E-17  3.01750070E-17  0.00000000E+00
  0.00000000E+00  0.00000000E+00  0.00000000E+00  0.00000000E+00  0.00000000E+00
  0.00000000E+00  0.00000000E+00  0.00000000E+00  9.29610859E-01  0.00000000E+00
  0.00000000E+00 -8.39233575E-02  0.00000000E+00 -9.29610859E-01  0.00000000E+00
  0.00000000E+00  8.39233575E-02  0.00000000E+00  9.78971508E-01 -7.41637542E-01
 -7.05681806E-01  9.64967018E-01  0.00000000E+00  0.00000000E+00  0.00000000E+00
  0.00000000E+00  0.00000000E+00  0.00000000E+00  0.00000000E+00  0.00000000E+00
  0.00000000E+00 -3.53482076E-16  0.00000000E+00  0.00000000E+00  5.45626898E-16
  0.00000000E+00  8.80455510E-17  0.00000000E+00  0.00000000E+00  5.07954481E-16
  0.00000000E+00  1.01127148E+00 -2.43258284E+00  2.48065379E+00 -1.08143435E+00
  0.00000000E+00  0.00000000E+00  0.00000000E+00  0.00000000E+00  0.00000000E+00
  0.00000000E+00  0.00000000E+00  0.00000000E+00  0.00000000E+00 -2.43909431E-16
  0.00000000E+00  0.00000000E+00  2.43097977E-17  0.00000000E+00  5.32330737E-16
  0.00000000E+00  0.00000000E+00 -3.80744408E-16  0.00000000E+00  0.00000000E+00
  0.00000000E+00  0.00000000E+00  0.00000000E+00  0.00000000E+00  0.00000000E+00
  0.00000000E+00  0.00000000E+00  0.00000000E+00  0.00000000E+00  0.00000000E+00
  0.00000000E+00  0.00000000E+00  0.00000000E+00  0.00000000E+00  0.00000000E+00
  0.00000000E+00  5.92122086E-01  0.00000000E+00  0.00000000E+00  0.00000000E+00
  0.00000000E+00  5.92122086E-01  0.00000000E+00  0.00000000E+00  0.00000000E+00
  0.00000000E+00  0.00000000E+00  0.00000000E+00  0.00000000E+00  0.00000000E+00
  0.00000000E+00  0.00000000E+00  0.00000000E+00  0.00000000E+00  0.00000000E+00
  0.00000000E+00  0.00000000E+00  0.00000000E+00  0.00000000E+00  9.33391386E-01
  0.00000000E+00  0.00000000E+00  0.00000000E+00  0.00000000E+00 -9.33391386E-01
  0.00000000E+00  0.00000000E+00  0.00000000E+00  0.00000000E+00  0.00000000E+00
  0.00000000E+00  0.00000000E+00  0.00000000E+00  0.00000000E+00  0.00000000E+00
  0.00000000E+00  0.00000000E+00  0.00000000E+00  0.00000000E+00  5.92122086E-01
  0.00000000E+00  0.00000000E+00  0.00000000E+00  0.00000000E+00  5.92122086E-01
  0.00000000E+00  0.00000000E+00  0.00000000E+00  0.00000000E+00  0.00000000E+00
  0.00000000E+00  0.00000000E+00  0.00000000E+00  0.00000000E+00  0.00000000E+00
  0.00000000E+00  0.00000000E+00  0.00000000E+00  0.00000000E+00  0.00000000E+00
  0.00000000E+00  0.00000000E+00  9.33391386E-01  0.00000000E+00  0.00000000E+00
  0.00000000E+00  0.00000000E+00 -9.33391386E-01  0.00000000E+00  0.00000000E+00
  0.00000000E+00  0.00000000E+00  0.00000000E+00  0.00000000E+00  0.00000000E+00
  0.00000000E+00  0.00000000E+00  0.00000000E+00  0.00000000E+00  0.00000000E+00
  0.00000000E+00  0.00000000E+00  0.00000000E+00  0.00000000E+00  0.00000000E+00
  0.00000000E+00  5.92122086E-01  0.00000000E+00  0.00000000E+00  0.00000000E+00
  0.00000000E+00  5.92122086E-01  0.00000000E+00  0.00000000E+00  0.00000000E+00
  0.00000000E+00  0.00000000E+00  0.00000000E+00  0.00000000E+00  0.00000000E+00
  0.00000000E+00  0.00000000E+00  0.00000000E+00  0.00000000E+00  0.00000000E+00
  0.00000000E+00  0.00000000E+00  0.00000000E+00  0.00000000E+00  9.33391386E-01
  0.00000000E+00  0.00000000E+00  0.00000000E+00  0.00000000E+00 -9.33391386E-01
  0.00000000E+00  0.00000000E+00  0.00000000E+00  0.00000000E+00  0.00000000E+00
  0.00000000E+00  0.00000000E+00  0.00000000E+00  3.73698030E-01  0.00000000E+00
  0.00000000E+00  4.86620087E-01  0.00000000E+00  0.00000000E+00  3.84388203E-01
  0.00000000E+00  0.00000000E+00  0.00000000E+00  0.00000000E+00  0.00000000E+00
  0.00000000E+00  0.00000000E+00  0.00000000E+00  0.00000000E+00  0.00000000E+00
  0.00000000E+00  0.00000000E+00  0.00000000E+00  0.00000000E+00  0.00000000E+00
  0.00000000E+00  7.87976131E-01  0.00000000E+00  0.00000000E+00 -9.21254774E-03
  0.00000000E+00  0.00000000E+00 -7.54399107E-01  0.00000000E+00  0.00000000E+00
  0.00000000E+00  0.00000000E+00  0.00000000E+00  0.00000000E+00  0.00000000E+00
  0.00000000E+00  0.00000000E+00  0.00000000E+00  0.00000000E+00  0.00000000E+00
  0.00000000E+00  0.00000000E+00  0.00000000E+00  0.00000000E+00 -9.16778278E-01
  0.00000000E+00  0.00000000E+00  1.47466960E+00  0.00000000E+00  0.00000000E+00
 -9.75590847E-01  0.00000000E+00  0.00000000E+00  0.00000000E+00  0.00000000E+00
  0.00000000E+00  0.00000000E+00  0.00000000E+00  0.00000000E+00  0.00000000E+00
  0.00000000E+00  0.00000000E+00  0.00000000E+00  0.00000000E+00  0.00000000E+00
  0.00000000E+00  3.73698030E-01  0.00000000E+00  0.00000000E+00  4.86620087E-01
  0.00000000E+00  0.00000000E+00  3.84388203E-01  0.00000000E+00  0.00000000E+00
  0.00000000E+00  0.00000000E+00  0.00000000E+00  0.00000000E+00  0.00000000E+00
  0.00000000E+00  0.00000000E+00  0.00000000E+00  0.00000000E+00  0.00000000E+00
  0.00000000E+00  0.00000000E+00  0.00000000E+00  0.00000000E+00  7.87976131E-01
  0.00000000E+00  0.00000000E+00 -9.21254774E-03  0.00000000E+00  0.00000000E+00
 -7.54399107E-01  0.00000000E+00  0.00000000E+00  0.00000000E+00  0.00000000E+00
  0.00000000E+00  0.00000000E+00  0.00000000E+00  0.00000000E+00  0.00000000E+00
  0.00000000E+00  0.00000000E+00  0.00000000E+00  0.00000000E+00  0.00000000E+00
  0.00000000E+00  0.00000000E+00 -9.16778278E-01  0.00000000E+00  0.00000000E+00
  1.47466960E+00  0.00000000E+00  0.00000000E+00 -9.75590847E-01  0.00000000E+00
  0.00000000E+00  0.00000000E+00  0.00000000E+00  0.00000000E+00  0.00000000E+00
  0.00000000E+00  0.00000000E+00  0.00000000E+00  0.00000000E+00  0.00000000E+00
  0.00000000E+00  0.00000000E+00  0.00000000E+00  0.00000000E+00  3.73698030E-01
  0.00000000E+00  0.00000000E+00  4.86620087E-01  0.00000000E+00  0.00000000E+00
  3.84388203E-01  0.00000000E+00  0.00000000E+00  0.00000000E+00  0.00000000E+00
  0.00000000E+00  0.00000000E+00  0.00000000E+00  0.00000000E+00  0.00000000E+00
  0.00000000E+00  0.00000000E+00  0.00000000E+00  0.00000000E+00  0.00000000E+00
  0.00000000E+00  0.00000000E+00  7.87976131E-01  0.00000000E+00  0.00000000E+00
 -9.21254774E-03  0.00000000E+00  0.00000000E+00 -7.54399107E-01  0.00000000E+00
  0.00000000E+00  0.00000000E+00  0.00000000E+00  0.00000000E+00  0.00000000E+00
  0.00000000E+00  0.00000000E+00  0.00000000E+00  0.00000000E+00  0.00000000E+00
  0.00000000E+00  0.00000000E+00  0.00000000E+00  0.00000000E+00  0.00000000E+00
 -9.16778278E-01  0.00000000E+00  0.00000000E+00  1.47466960E+00  0.00000000E+00
  0.00000000E+00 -9.75590847E-01  0.00000000E+00  0.00000000E+00  0.00000000E+00
  0.00000000E+00  0.00000000E+00  0.00000000E+00  0.00000000E+00  0.00000000E+00
  0.00000000E+00  0.00000000E+00  0.00000000E+00  0.00000000E+00
Total SCF Density                          R   N=         276
  2.63896554E-01  3.29233459E-01  4.10746821E-01  2.32025398E-01  2.89471474E-01
  2.04003367E-01  1.23869730E-02  1.54538053E-02  1.08909810E-02  5.81428964E-04
  0.00000000E+00  0.00000000E+00  0.00000000E+00  0.00000000E+00  0.00000000E+00
  0.00000000E+00  0.00000000E+00  0.00000000E+00  0.00000000E+00  0.00000000E+00
  0.00000000E+00  0.00000000E+00  0.00000000E+00  0.00000000E+00  0.00000000E+00
  0.00000000E+00  0.00000000E+00  0.00000000E+00  0.00000000E+00  0.00000000E+00
  0.00000000E+00  0.00000000E+00  0.00000000E+00  0.00000000E+00  0.00000000E+00
  0.00000000E+00  0.00000000E+00  0.00000000E+00  0.00000000E+00  0.00000000E+00
  0.00000000E+00  0.00000000E+00  0.00000000E+00  0.00000000E+00  0.00000000E+00
  0.00000000E+00  0.00000000E+00  0.00000000E+00  0.00000000E+00  0.00000000E+00
  0.00000000E+00  0.00000000E+00  0.00000000E+00  0.00000000E+00  0.00000000E+00
  0.00000000E+00  0.00000000E+00  0.00000000E+00  0.00000000E+00  0.00000000E+00
  0.00000000E+00  0.00000000E+00  0.00000000E+00  0.00000000E+00  0.00000000E+00
  0.00000000E+00  0.00000000E+00  0.00000000E+00  0.00000000E+00  0.00000000E+00
  0.00000000E+00  0.00000000E+00  0.00000000E+00  0.00000000E+00  0.00000000E+00
  0.00000000E+00  0.00000000E+00  0.00000000E+00  0.00000000E+00  0.00000000E+00
  0.00000000E+00  0.00000000E+00  0.00000000E+00  0.00000000E+00  0.00000000E+00
  0.00000000E+00  0.00000000E+00  0.00000000E+00  0.00000000E+00  0.00000000E+00
  0.00000000E+00  1.39094940E-33 -7.75721783E-34  6.15227621E-35 -6.35289391E-36
  0.00000000E+00  0.00000000E+00  0.00000000E+00  0.00000000E+00  0.00000000E+00
  0.00000000E+00  0.00000000E+00  0.00000000E+00  0.00000000E+00  6.64768100E-34
 -1.52789274E-34 -1.90617651E-34 -1.34336700E-34 -7.17173675E-36  0.00000000E+00
  0.00000000E+00  0.00000000E+00  0.00000000E+00  0.00000000E+00  0.00000000E+00
  0.00000000E+00  0.00000000E+00  0.00000000E+00  9.12111604E-51  4.15557941E-65
  1.87193903E-35  2.33540360E-35  1.64586234E-35  8.78664685E-37  0.00000000E+00
  0.00000000E+00  0.00000000E+00  0.00000000E+00  0.00000000E+00  0.00000000E+00
  0.00000000E+00  0.00000000E+00  0.00000000E+00 -1.61386864E-51 -2.48805224E-66
  3.36511091E-65 -1.14900071E-33 -8.98815072E-34 -4.86472075E-34 -3.18523383E-35
  0.00000000E+00  0.00000000E+00  0.00000000E+00  0.00000000E+00  0.00000000E+00
  0.00000000E+00  0.00000000E+00  0.00000000E+00  0.00000000E+00  9.65183838E-50
 -4.80746899E-51 -7.81134978E-51  6.64768100E-34 -5.34680224E-34 -6.67059183E-34
 -4.70106146E-34 -2.50972186E-35  0.00000000E+00  0.00000000E+00  0.00000000E+00
  0.00000000E+00  0.00000000E+00  0.00000000E+00  0.00000000E+00  0.00000000E+00
  0.00000000E+00 -2.25714151E-51  1.88124791E-67 -3.22122715E-82  3.91143579E-50
  3.38049475E-65  2.26189772E-32 -7.27573535E-34  2.00697950E-32 -5.01544256E-37
  0.00000000E+00  0.00000000E+00  0.00000000E+00  0.00000000E+00  0.00000000E+00
  0.00000000E+00  0.00000000E+00  0.00000000E+00  0.00000000E+00  1.06815002E-32
  1.45503789E-49 -2.34736068E-50  1.33568915E-49 -1.10560396E-49  1.77017677E-31
 -2.68629902E-33 -3.35138715E-33 -2.36187094E-33 -1.26091504E-34  0.00000000E+00
  0.00000000E+00  0.00000000E+00  0.00000000E+00  0.00000000E+00  0.00000000E+00