 Entering Gaussian System, Link 0=g16
 Input=He.com
 Output=He.log
 Initial command:
 /usr/site/hpc/x86_64/glibc-2.17/broadwell/gaussian/g16_a.03/pgi-16.5/g16/l1.exe "/home/c744/c7441090/data/Gau-3758222.inp" -scrdir="/home/c744/c7441090/data/"
 Entering Link 1 = /usr/site/hpc/x86_64/glibc-2.17/broadwell/gaussian/g16_a.03/pgi-16.5/g16/l1.exe PID=   3758223.
  
 Copyright (c) 1988,1990,1992,1993,1995,1998,2003,2009,2016,
            Gaussian, Inc.  All Rights Reserved.
  
 This is part of the Gaussian(R) 16 program.  It is based on
 the Gaussian(R) 09 system (copyright 2009, Gaussian, Inc.),
 the Gaussian(R) 03 system (copyright 2003, Gaussian, Inc.),
 the Gaussian(R) 98 system (copyright 1998, Gaussian, Inc.),
 the Gaussian(R) 94 system (copyright 1995, Gaussian, Inc.),
 the Gaussian 92(TM) system (copyright 1992, Gaussian, Inc.),
 the Gaussian 90(TM) system (copyright 1990, Gaussian, Inc.),
 the Gaussian 88(TM) system (copyright 1988, Gaussian, Inc.),
 the Gaussian 86(TM) system (copyright 1986, Carnegie Mellon
 University), and the Gaussian 82(TM) system (copyright 1983,
 Carnegie Mellon University). Gaussian is a federally registered
 trademark of Gaussian, Inc.
  
 This software contains proprietary and confidential information,
 including trade secrets, belonging to Gaussian, Inc.
  
 This software is provided under written license and may be
 used, copied, transmitted, or stored only in accord with that
 written license.
  
 The following legend is applicable only to US Government
 contracts under FAR:
  
                    RESTRICTED RIGHTS LEGEND
  
 Use, reproduction and disclosure by the US Government is
 subject to restrictions as set forth in subparagraphs (a)
 and (c) of the Commercial Computer Software - Restricted
 Rights clause in FAR 52.227-19.
  
 Gaussian, Inc.
 340 Quinnipiac St., Bldg. 40, Wallingford CT 06492
  
  
 ---------------------------------------------------------------
 Warning -- This program may not be used in any manner that
 competes with the business of Gaussian, Inc. or will provide
 assistance to any competitor of Gaussian, Inc.  The licensee
 of this program is prohibited from giving any competitor of
 Gaussian, Inc. access to this program.  By using this program,
 the user acknowledges that Gaussian, Inc. is engaged in the
 business of creating and licensing software in the field of
 computational chemistry and represents and warrants to the
 licensee that it is not a competitor of Gaussian, Inc. and that
 it will not use this program in any manner prohibited above.
 ---------------------------------------------------------------
  

 Cite this work as:
 Gaussian 16, Revision A.03,
 M. J. Frisch, G. W. Trucks, H. B. Schlegel, G. E. Scuseria, 
 M. A. Robb, J. R. Cheeseman, G. Scalmani, V. Barone, 
 G. A. Petersson, H. Nakatsuji, X. Li, M. Caricato, A. V. Marenich, 
 J. Bloino, B. G. Janesko, R. Gomperts, B. Mennucci, H. P. Hratchian, 
 J. V. Ortiz, A. F. Izmaylov, J. L. Sonnenberg, D. Williams-Young, 
 F. Ding, F. Lipparini, F. Egidi, J. Goings, B. Peng, A. Petrone, 
 T. Henderson, D. Ranasinghe, V. G. Zakrzewski, J. Gao, N. Rega, 
 G. Zheng, W. Liang, M. Hada, M. Ehara, K. Toyota, R. Fukuda, 
 J. Hasegawa, M. Ishida, T. Nakajima, Y. Honda, O. Kitao, H. Nakai, 
 T. Vreven, K. Throssell, J. A. Montgomery, Jr., J. E. Peralta, 
 F. Ogliaro, M. J. Bearpark, J. J. Heyd, E. N. Brothers, K. N. Kudin, 
 V. N. Staroverov, T. A. Keith, R. Kobayashi, J. Normand, 
 K. Raghavachari, A. P. Rendell, J. C. Burant, S. S. Iyengar, 
 J. Tomasi, M. Cossi, J. M. Millam, M. Klene, C. Adamo, R. Cammi, 
 J. W. Ochterski, R. L. Martin, K. Morokuma, O. Farkas, 
 J. B. Foresman, and D. J. Fox, Gaussian, Inc., Wallingford CT, 2016.
 
 ******************************************
 Gaussian 16:  ES64L-G16RevA.03 25-Dec-2016
                20-Nov-2023 
 ******************************************
 %NProcShared=4
 Will use up to    4 processors via shared memory.
 %Mem=1GB
 %Chk=He.chk
 ----------------------------------------------------
 # B3LYP/aug-cc-pVTZ EmpiricalDispersion=GD3 Pop=Full
 ----------------------------------------------------
 1/38=1,172=1/1;
 2/12=2,17=6,18=5,40=1/2;
 3/5=16,6=1,7=10,11=2,25=1,30=1,74=-5,124=31/1,2,3;
 4//1;
 5/5=2,38=5/2;
 6/7=3,28=1/1;
 99/5=1,9=1/99;
 ------
 Helium
 ------
 Symbolic Z-matrix:
 Charge =  0 Multiplicity = 1
 He                    0.        0.        0. 
 
                          Input orientation:                          
 ---------------------------------------------------------------------
 Center     Atomic      Atomic             Coordinates (Angstroms)
 Number     Number       Type             X           Y           Z
 ---------------------------------------------------------------------
      1          2           0        0.000000    0.000000    0.000000
 ---------------------------------------------------------------------
 Stoichiometry    He
 Framework group  OH[O(He)]
 Deg. of freedom     0
 Full point group                 OH      NOp  48
 Largest Abelian subgroup         D2H     NOp   8
 Largest concise Abelian subgroup C1      NOp   1
                         Standard orientation:                         
 ---------------------------------------------------------------------
 Center     Atomic      Atomic             Coordinates (Angstroms)
 Number     Number       Type             X           Y           Z
 ---------------------------------------------------------------------
      1          2           0        0.000000    0.000000    0.000000
 ---------------------------------------------------------------------
 Standard basis: Aug-CC-pVTZ (5D, 7F)
 There are    10 symmetry adapted cartesian basis functions of AG  symmetry.
 There are     2 symmetry adapted cartesian basis functions of B1G symmetry.
 There are     2 symmetry adapted cartesian basis functions of B2G symmetry.
 There are     2 symmetry adapted cartesian basis functions of B3G symmetry.
 There are     0 symmetry adapted cartesian basis functions of AU  symmetry.
 There are     3 symmetry adapted cartesian basis functions of B1U symmetry.
 There are     3 symmetry adapted cartesian basis functions of B2U symmetry.
 There are     3 symmetry adapted cartesian basis functions of B3U symmetry.
 There are     8 symmetry adapted basis functions of AG  symmetry.
 There are     2 symmetry adapted basis functions of B1G symmetry.
 There are     2 symmetry adapted basis functions of B2G symmetry.
 There are     2 symmetry adapted basis functions of B3G symmetry.
 There are     0 symmetry adapted basis functions of AU  symmetry.
 There are     3 symmetry adapted basis functions of B1U symmetry.
 There are     3 symmetry adapted basis functions of B2U symmetry.
 There are     3 symmetry adapted basis functions of B3U symmetry.
    23 basis functions,    28 primitive gaussians,    25 cartesian basis functions
     1 alpha electrons        1 beta electrons
       nuclear repulsion energy         0.0000000000 Hartrees.
 NAtoms=    1 NActive=    1 NUniq=    1 SFac= 1.00D+00 NAtFMM=   60 NAOKFM=F Big=F
 Integral buffers will be    131072 words long.
 Raffenetti 2 integral format.
 Two-electron integral symmetry is turned on.
 Nuclear repulsion after empirical dispersion term =        0.0000000000 Hartrees.
 One-electron integrals computed using PRISM.
 NBasis=    23 RedAO= T EigKep=  7.01D-02  NBF=     8     2     2     2     0     3     3     3
 NBsUse=    23 1.00D-06 EigRej= -1.00D+00 NBFU=     8     2     2     2     0     3     3     3
 ExpMin= 5.14D-02 ExpMax= 2.34D+02 ExpMxC= 3.52D+01 IAcc=3 IRadAn=         5 AccDes= 0.00D+00
 Harris functional with IExCor=  402 and IRadAn=       5 diagonalized for initial guess.
 HarFok:  IExCor=  402 AccDes= 0.00D+00 IRadAn=         5 IDoV= 1 UseB2=F ITyADJ=14
 ICtDFT=  3500011 ScaDFX=  1.000000  1.000000  1.000000  1.000000
 FoFCou: FMM=F IPFlag=           0 FMFlag=      100000 FMFlg1=           0
         NFxFlg=           0 DoJE=T BraDBF=F KetDBF=T FulRan=T
         wScrn=  0.000000 ICntrl=       500 IOpCl=  0 I1Cent=   200000004 NGrid=           0
         NMat0=    1 NMatS0=      1 NMatT0=    0 NMatD0=    1 NMtDS0=    0 NMtDT0=    0
 Petite list used in FoFCou.
 Initial guess orbital symmetries:
       Occupied  (A1G)
       Virtual   (A1G) (T1U) (T1U) (T1U) (A1G) (T2G) (T2G) (T2G)
                 (EG) (EG) (T1U) (T1U) (T1U) (A1G) (T2G) (T2G)
                 (T2G) (EG) (EG) (T1U) (T1U) (T1U)
 The electronic state of the initial guess is 1-A1G.
 Keep R1 ints in memory in symmetry-blocked form, NReq=3490121.
 Requested convergence on RMS density matrix=1.00D-08 within 128 cycles.
 Requested convergence on MAX density matrix=1.00D-06.
 Requested convergence on             energy=1.00D-06.
 No special actions if energy rises.
 Integral accuracy reduced to 1.0D-05 until final iterations.
 Initial convergence to 1.0D-05 achieved.  Increase integral accuracy.
 SCF Done:  E(RB3LYP) =  -2.91469381767     A.U. after    6 cycles
            NFock=  6  Conv=0.41D-08     -V/T= 2.0174

 **********************************************************************

            Population analysis using the SCF density.

 **********************************************************************

 Orbital symmetries:
       Occupied  (A1G)
       Virtual   (A1G) (T1U) (T1U) (T1U) (A1G) (T2G) (T2G) (T2G)
                 (EG) (EG) (T1U) (T1U) (T1U) (A1G) (T2G) (T2G)
                 (T2G) (EG) (EG) (T1U) (T1U) (T1U)
 The electronic state is 1-A1G.
 Alpha  occ. eigenvalues --   -0.66144
 Alpha virt. eigenvalues --    0.05666   0.29407   0.29407   0.29407   0.67535
 Alpha virt. eigenvalues --    1.32849   1.32849   1.32849   1.32849   1.32849
 Alpha virt. eigenvalues --    1.70163   1.70163   1.70163   4.32126   6.67788
 Alpha virt. eigenvalues --    6.67788   6.67788   6.67788   6.67788   7.69284
 Alpha virt. eigenvalues --    7.69284   7.69284
     Molecular Orbital Coefficients:
                           1         2         3         4         5
                       (A1G)--O  (A1G)--V  (T1U)--V  (T1U)--V  (T1U)--V
     Eigenvalues --    -0.66144   0.05666   0.29407   0.29407   0.29407
   1 1   He 1S          0.36325  -0.10682   0.00000   0.00000   0.00000
   2        2S          0.45318  -0.09173   0.00000   0.00000   0.00000
   3        3S          0.31938  -0.51108   0.00000   0.00000   0.00000
   4        4S          0.01705   1.28434   0.00000   0.00000   0.00000
   5        5PX         0.00000   0.00000   0.00000   0.00000   0.02823
   6        5PY         0.00000   0.00000   0.00000   0.02823   0.00000
   7        5PZ         0.00000   0.00000   0.02823   0.00000   0.00000
   8        6PX         0.00000   0.00000   0.00000   0.00000  -0.06248
   9        6PY         0.00000   0.00000   0.00000  -0.06248   0.00000
  10        6PZ         0.00000   0.00000  -0.06248   0.00000   0.00000
  11        7PX         0.00000   0.00000   0.00000   0.00000   1.03180
  12        7PY         0.00000   0.00000   0.00000   1.03180   0.00000
  13        7PZ         0.00000   0.00000   1.03180   0.00000   0.00000
  14        8D 0        0.00000  -0.00000   0.00000   0.00000   0.00000
  15        8D+1        0.00000   0.00000   0.00000   0.00000   0.00000
  16        8D-1        0.00000   0.00000   0.00000   0.00000   0.00000
  17        8D+2        0.00000  -0.00000   0.00000   0.00000   0.00000
  18        8D-2        0.00000   0.00000   0.00000   0.00000   0.00000
  19        9D 0        0.00000   0.00000   0.00000   0.00000   0.00000
  20        9D+1        0.00000   0.00000   0.00000   0.00000   0.00000
  21        9D-1        0.00000   0.00000   0.00000   0.00000   0.00000
  22        9D+2        0.00000   0.00000   0.00000   0.00000   0.00000
  23        9D-2        0.00000   0.00000   0.00000   0.00000   0.00000
                           6         7         8         9        10
                       (A1G)--V  (T2G)--V  (T2G)--V  (T2G)--V   (EG)--V
     Eigenvalues --     0.67535   1.32849   1.32849   1.32849   1.32849
   1 1   He 1S         -0.19960   0.00000   0.00000   0.00000   0.00000
   2        2S         -1.26043   0.00000   0.00000   0.00000   0.00000
   3        3S          2.17993   0.00000   0.00000   0.00000  -0.00000
   4        4S         -0.89928   0.00000   0.00000   0.00000   0.00000
   5        5PX         0.00000   0.00000   0.00000   0.00000   0.00000
   6        5PY         0.00000   0.00000   0.00000   0.00000   0.00000
   7        5PZ         0.00000   0.00000   0.00000   0.00000   0.00000
   8        6PX         0.00000   0.00000   0.00000   0.00000   0.00000
   9        6PY         0.00000   0.00000   0.00000   0.00000   0.00000
  10        6PZ         0.00000   0.00000   0.00000   0.00000   0.00000
  11        7PX         0.00000   0.00000   0.00000   0.00000   0.00000
  12        7PY         0.00000   0.00000   0.00000   0.00000   0.00000
  13        7PZ         0.00000   0.00000   0.00000   0.00000   0.00000
  14        8D 0       -0.00000   0.00000   0.00000   0.00000  -0.05819
  15        8D+1        0.00000  -0.06206   0.00000   0.00000   0.00000
  16        8D-1        0.00000   0.00000  -0.06206   0.00000   0.00000
  17        8D+2        0.00000   0.00000   0.00000   0.00000  -0.02156
  18        8D-2        0.00000   0.00000   0.00000  -0.06206   0.00000
  19        9D 0       -0.00000   0.00000   0.00000   0.00000   0.96101
  20        9D+1        0.00000   1.02487   0.00000   0.00000   0.00000
  21        9D-1        0.00000   0.00000   1.02487   0.00000   0.00000
  22        9D+2        0.00000   0.00000   0.00000   0.00000   0.35611
  23        9D-2        0.00000   0.00000   0.00000   1.02487   0.00000
                          11        12        13        14        15
                        (EG)--V  (T1U)--V  (T1U)--V  (T1U)--V  (A1G)--V
     Eigenvalues --     1.32849   1.70163   1.70163   1.70163   4.32126
   1 1   He 1S          0.00000   0.00000   0.00000   0.00000  -1.51355
   2        2S          0.00000   0.00000   0.00000   0.00000   2.20593
   3        3S         -0.00000   0.00000   0.00000   0.00000  -1.31802
   4        4S          0.00000   0.00000   0.00000   0.00000   0.36437
   5        5PX         0.00000   0.00000  -0.04539   0.00000   0.00000
   6        5PY         0.00000  -0.04539   0.00000   0.00000   0.00000
   7        5PZ         0.00000   0.00000   0.00000  -0.04539   0.00000
   8        6PX         0.00000   0.00000   1.27513   0.00000   0.00000
   9        6PY         0.00000   1.27513   0.00000   0.00000   0.00000
  10        6PZ         0.00000   0.00000   0.00000   1.27513   0.00000
  11        7PX         0.00000   0.00000  -0.71606   0.00000   0.00000
  12        7PY         0.00000  -0.71606   0.00000   0.00000   0.00000
  13        7PZ         0.00000   0.00000   0.00000  -0.71606   0.00000
  14        8D 0        0.02156   0.00000   0.00000   0.00000  -0.00000
  15        8D+1        0.00000   0.00000   0.00000   0.00000   0.00000
  16        8D-1        0.00000   0.00000   0.00000   0.00000   0.00000
  17        8D+2       -0.05819   0.00000   0.00000   0.00000   0.00000
  18        8D-2        0.00000   0.00000   0.00000   0.00000   0.00000
  19        9D 0       -0.35611   0.00000   0.00000   0.00000   0.00000
  20        9D+1        0.00000   0.00000   0.00000   0.00000   0.00000
  21        9D-1        0.00000   0.00000   0.00000   0.00000   0.00000
  22        9D+2        0.96101   0.00000   0.00000   0.00000  -0.00000
  23        9D-2        0.00000   0.00000   0.00000   0.00000   0.00000
                          16        17        18        19        20
                       (T2G)--V  (T2G)--V  (T2G)--V   (EG)--V   (EG)--V
     Eigenvalues --     6.67788   6.67788   6.67788   6.67788   6.67788
   1 1   He 1S          0.00000   0.00000   0.00000   0.00000  -0.00000
   2        2S          0.00000   0.00000   0.00000  -0.00000   0.00000
   3        3S          0.00000   0.00000   0.00000   0.00000  -0.00000
   4        4S          0.00000   0.00000   0.00000  -0.00000   0.00000
   5        5PX         0.00000   0.00000   0.00000   0.00000   0.00000
   6        5PY         0.00000   0.00000   0.00000   0.00000   0.00000
   7        5PZ         0.00000   0.00000   0.00000   0.00000   0.00000
   8        6PX         0.00000   0.00000   0.00000   0.00000   0.00000
   9        6PY         0.00000   0.00000   0.00000   0.00000   0.00000
  10        6PZ         0.00000   0.00000   0.00000   0.00000   0.00000
  11        7PX         0.00000   0.00000   0.00000   0.00000   0.00000
  12        7PY         0.00000   0.00000   0.00000   0.00000   0.00000
  13        7PZ         0.00000   0.00000   0.00000   0.00000   0.00000
  14        8D 0        0.00000   0.00000   0.00000  -0.04191   1.10282
  15        8D+1        0.00000   1.10362   0.00000   0.00000   0.00000
  16        8D-1        1.10362   0.00000   0.00000   0.00000   0.00000
  17        8D+2        0.00000   0.00000   0.00000   1.10282   0.04191
  18        8D-2        0.00000   0.00000   1.10362   0.00000   0.00000
  19        9D 0        0.00000   0.00000   0.00000   0.01573  -0.41380
  20        9D+1        0.00000  -0.41410   0.00000   0.00000   0.00000
  21        9D-1       -0.41410   0.00000   0.00000   0.00000   0.00000
  22        9D+2        0.00000   0.00000   0.00000  -0.41380  -0.01573
  23        9D-2        0.00000   0.00000  -0.41410   0.00000   0.00000
                          21        22        23
                       (T1U)--V  (T1U)--V  (T1U)--V
     Eigenvalues --     7.69284   7.69284   7.69284
   1 1   He 1S          0.00000   0.00000   0.00000
   2        2S          0.00000   0.00000   0.00000
   3        3S          0.00000   0.00000   0.00000
   4        4S          0.00000   0.00000   0.00000
   5        5PX         0.00000   0.00000   1.26419
   6        5PY         1.26419   0.00000   0.00000
   7        5PZ         0.00000   1.26419   0.00000
   8        6PX         0.00000   0.00000  -0.88413
   9        6PY        -0.88413   0.00000   0.00000
  10        6PZ         0.00000  -0.88413   0.00000
  11        7PX         0.00000   0.00000   0.30214
  12        7PY         0.30214   0.00000   0.00000
  13        7PZ         0.00000   0.30214   0.00000
  14        8D 0        0.00000   0.00000   0.00000
  15        8D+1        0.00000   0.00000   0.00000
  16        8D-1        0.00000   0.00000   0.00000
  17        8D+2        0.00000   0.00000   0.00000
  18        8D-2        0.00000   0.00000   0.00000
  19        9D 0        0.00000   0.00000   0.00000
  20        9D+1        0.00000   0.00000   0.00000
  21        9D-1        0.00000   0.00000   0.00000
  22        9D+2        0.00000   0.00000   0.00000
  23        9D-2        0.00000   0.00000   0.00000
     Density Matrix:
                           1         2         3         4         5
   1 1   He 1S          0.26390
   2        2S          0.32923   0.41075
   3        3S          0.23203   0.28947   0.20400
   4        4S          0.01239   0.01545   0.01089   0.00058
   5        5PX         0.00000   0.00000   0.00000   0.00000   0.00000
   6        5PY         0.00000   0.00000   0.00000   0.00000   0.00000
   7        5PZ         0.00000   0.00000   0.00000   0.00000   0.00000
   8        6PX         0.00000   0.00000   0.00000   0.00000   0.00000
   9        6PY         0.00000   0.00000   0.00000   0.00000   0.00000
  10        6PZ         0.00000   0.00000   0.00000   0.00000   0.00000
  11        7PX         0.00000   0.00000   0.00000   0.00000   0.00000
  12        7PY         0.00000   0.00000   0.00000   0.00000   0.00000
  13        7PZ         0.00000   0.00000   0.00000   0.00000   0.00000
  14        8D 0        0.00000  -0.00000   0.00000  -0.00000   0.00000
  15        8D+1       -0.00000  -0.00000  -0.00000  -0.00000   0.00000
  16        8D-1        0.00000   0.00000   0.00000   0.00000   0.00000
  17        8D+2       -0.00000  -0.00000  -0.00000  -0.00000   0.00000
  18        8D-2       -0.00000  -0.00000  -0.00000  -0.00000   0.00000
  19        9D 0        0.00000  -0.00000   0.00000  -0.00000   0.00000
  20        9D+1       -0.00000  -0.00000  -0.00000  -0.00000   0.00000
  21        9D-1        0.00000   0.00000   0.00000   0.00000   0.00000
  22        9D+2       -0.00000  -0.00000  -0.00000  -0.00000   0.00000
  23        9D-2       -0.00000  -0.00000  -0.00000  -0.00000   0.00000
                           6         7         8         9        10
   6        5PY         0.00000
   7        5PZ         0.00000   0.00000
   8        6PX         0.00000   0.00000   0.00000
   9        6PY         0.00000   0.00000   0.00000   0.00000
  10        6PZ         0.00000   0.00000   0.00000   0.00000   0.00000
  11        7PX         0.00000   0.00000   0.00000   0.00000   0.00000
  12        7PY         0.00000   0.00000   0.00000   0.00000   0.00000
  13        7PZ         0.00000   0.00000   0.00000   0.00000   0.00000
  14        8D 0        0.00000   0.00000   0.00000   0.00000   0.00000
  15        8D+1        0.00000   0.00000   0.00000   0.00000   0.00000
  16        8D-1        0.00000   0.00000   0.00000   0.00000   0.00000
  17        8D+2        0.00000   0.00000   0.00000   0.00000   0.00000
  18        8D-2        0.00000   0.00000   0.00000   0.00000   0.00000
  19        9D 0        0.00000   0.00000   0.00000   0.00000   0.00000
  20        9D+1        0.00000   0.00000   0.00000   0.00000   0.00000
  21        9D-1        0.00000   0.00000   0.00000   0.00000   0.00000
  22        9D+2        0.00000   0.00000   0.00000   0.00000   0.00000
  23        9D-2        0.00000   0.00000   0.00000   0.00000   0.00000
                          11        12        13        14        15
  11        7PX         0.00000
  12        7PY         0.00000   0.00000
  13        7PZ         0.00000   0.00000   0.00000
  14        8D 0        0.00000   0.00000   0.00000   0.00000
  15        8D+1        0.00000   0.00000   0.00000   0.00000   0.00000
  16        8D-1        0.00000   0.00000   0.00000  -0.00000  -0.00000
  17        8D+2        0.00000   0.00000   0.00000   0.00000  -0.00000
  18        8D-2        0.00000   0.00000   0.00000  -0.00000   0.00000
  19        9D 0        0.00000   0.00000   0.00000   0.00000   0.00000
  20        9D+1        0.00000   0.00000   0.00000   0.00000   0.00000
  21        9D-1        0.00000   0.00000   0.00000  -0.00000  -0.00000
  22        9D+2        0.00000   0.00000   0.00000   0.00000  -0.00000
  23        9D-2        0.00000   0.00000   0.00000   0.00000   0.00000
                          16        17        18        19        20
  16        8D-1        0.00000
  17        8D+2       -0.00000   0.00000
  18        8D-2       -0.00000   0.00000   0.00000
  19        9D 0       -0.00000   0.00000  -0.00000   0.00000
  20        9D+1       -0.00000  -0.00000   0.00000   0.00000   0.00000
  21        9D-1        0.00000  -0.00000   0.00000  -0.00000  -0.00000
  22        9D+2       -0.00000   0.00000   0.00000  -0.00000  -0.00000
  23        9D-2        0.00000   0.00000   0.00000   0.00000   0.00000
                          21        22        23
  21        9D-1        0.00000
  22        9D+2       -0.00000   0.00000
  23        9D-2        0.00000   0.00000   0.00000
    Full Mulliken population analysis:
                           1         2         3         4         5
   1 1   He 1S          0.26390
   2        2S          0.23118   0.41075
   3        3S          0.08619   0.22779   0.20400
   4        4S          0.00176   0.00572   0.00774   0.00058
   5        5PX         0.00000   0.00000   0.00000   0.00000   0.00000
   6        5PY         0.00000   0.00000   0.00000   0.00000   0.00000
   7        5PZ         0.00000   0.00000   0.00000   0.00000   0.00000
   8        6PX         0.00000   0.00000   0.00000   0.00000   0.00000
   9        6PY         0.00000   0.00000   0.00000   0.00000   0.00000
  10        6PZ         0.00000   0.00000   0.00000   0.00000   0.00000
  11        7PX         0.00000   0.00000   0.00000   0.00000   0.00000
  12        7PY         0.00000   0.00000   0.00000   0.00000   0.00000
  13        7PZ         0.00000   0.00000   0.00000   0.00000   0.00000
  14        8D 0        0.00000   0.00000   0.00000   0.00000   0.00000
  15        8D+1        0.00000   0.00000   0.00000   0.00000   0.00000
  16        8D-1        0.00000   0.00000   0.00000  -0.00000   0.00000
  17        8D+2       -0.00000   0.00000  -0.00000  -0.00000   0.00000
  18        8D-2        0.00000   0.00000   0.00000   0.00000   0.00000
  19        9D 0        0.00000  -0.00000   0.00000   0.00000   0.00000
  20        9D+1        0.00000   0.00000   0.00000   0.00000   0.00000
  21        9D-1        0.00000   0.00000   0.00000   0.00000   0.00000
  22        9D+2       -0.00000   0.00000  -0.00000   0.00000   0.00000
  23        9D-2        0.00000   0.00000  -0.00000   0.00000   0.00000
                           6         7         8         9        10
   6        5PY         0.00000
   7        5PZ         0.00000   0.00000
   8        6PX         0.00000   0.00000   0.00000
   9        6PY         0.00000   0.00000   0.00000   0.00000
  10        6PZ         0.00000   0.00000   0.00000   0.00000   0.00000
  11        7PX         0.00000   0.00000   0.00000   0.00000   0.00000
  12        7PY         0.00000   0.00000   0.00000   0.00000   0.00000
  13        7PZ         0.00000   0.00000   0.00000   0.00000   0.00000
  14        8D 0        0.00000   0.00000   0.00000   0.00000   0.00000
  15        8D+1        0.00000   0.00000   0.00000   0.00000   0.00000
  16        8D-1        0.00000   0.00000   0.00000   0.00000   0.00000
  17        8D+2        0.00000   0.00000   0.00000   0.00000   0.00000
  18        8D-2        0.00000   0.00000   0.00000   0.00000   0.00000
  19        9D 0        0.00000   0.00000   0.00000   0.00000   0.00000
  20        9D+1        0.00000   0.00000   0.00000   0.00000   0.00000
  21        9D-1        0.00000   0.00000   0.00000   0.00000   0.00000
  22        9D+2        0.00000   0.00000   0.00000   0.00000   0.00000
  23        9D-2        0.00000   0.00000   0.00000   0.00000   0.00000
                          11        12        13        14        15
  11        7PX         0.00000
  12        7PY         0.00000   0.00000
  13        7PZ         0.00000   0.00000   0.00000
  14        8D 0        0.00000   0.00000   0.00000   0.00000
  15        8D+1        0.00000   0.00000   0.00000   0.00000   0.00000
  16        8D-1        0.00000   0.00000   0.00000  -0.00000  -0.00000
  17        8D+2        0.00000   0.00000   0.00000  -0.00000  -0.00000
  18        8D-2        0.00000   0.00000   0.00000  -0.00000   0.00000
  19        9D 0        0.00000   0.00000   0.00000   0.00000  -0.00000
  20        9D+1        0.00000   0.00000   0.00000  -0.00000   0.00000
  21        9D-1        0.00000   0.00000   0.00000   0.00000  -0.00000
  22        9D+2        0.00000   0.00000   0.00000   0.00000  -0.00000
  23        9D-2        0.00000   0.00000   0.00000   0.00000   0.00000
                          16        17        18        19        20
  16        8D-1        0.00000
  17        8D+2        0.00000   0.00000
  18        8D-2        0.00000  -0.00000   0.00000
  19        9D 0       -0.00000   0.00000  -0.00000   0.00000
  20        9D+1        0.00000   0.00000   0.00000   0.00000   0.00000
  21        9D-1        0.00000   0.00000   0.00000   0.00000  -0.00000
  22        9D+2        0.00000   0.00000   0.00000  -0.00000   0.00000
  23        9D-2        0.00000   0.00000   0.00000   0.00000   0.00000
                          21        22        23
  21        9D-1        0.00000
  22        9D+2        0.00000   0.00000
  23        9D-2       -0.00000   0.00000   0.00000
     Gross orbital populations:
                           1
   1 1   He 1S          0.58303
   2        2S          0.87544
   3        3S          0.52573
   4        4S          0.01580
   5        5PX         0.00000
   6        5PY         0.00000
   7        5PZ         0.00000
   8        6PX         0.00000
   9        6PY         0.00000
  10        6PZ         0.00000
  11        7PX         0.00000
  12        7PY         0.00000
  13        7PZ         0.00000
  14        8D 0        0.00000
  15        8D+1        0.00000
  16        8D-1        0.00000
  17        8D+2        0.00000
  18        8D-2        0.00000
  19        9D 0        0.00000
  20        9D+1        0.00000
  21        9D-1        0.00000
  22        9D+2        0.00000
  23        9D-2        0.00000
          Condensed to atoms (all electrons):
               1
     1  He   2.000000
 Mulliken charges:
               1
     1  He   0.000000
 Sum of Mulliken charges =   0.00000
 Mulliken charges with hydrogens summed into heavy atoms:
               1
     1  He   0.000000
 Electronic spatial extent (au):  <R**2>=              2.4767
 Charge=              0.0000 electrons
 Dipole moment (field-independent basis, Debye):
    X=              0.0000    Y=              0.0000    Z=              0.0000  Tot=              0.0000
 Quadrupole moment (field-independent basis, Debye-Ang):
   XX=             -1.1104   YY=             -1.1104   ZZ=             -1.1104
   XY=              0.0000   XZ=              0.0000   YZ=             -0.0000
 Traceless Quadrupole moment (field-independent basis, Debye-Ang):
   XX=              0.0000   YY=              0.0000   ZZ=              0.0000
   XY=              0.0000   XZ=              0.0000   YZ=             -0.0000
 Octapole moment (field-independent basis, Debye-Ang**2):
  XXX=              0.0000  YYY=              0.0000  ZZZ=              0.0000  XYY=              0.0000
  XXY=              0.0000  XXZ=              0.0000  XZZ=              0.0000  YZZ=              0.0000
  YYZ=              0.0000  XYZ=              0.0000
 Hexadecapole moment (field-independent basis, Debye-Ang**3):
 XXXX=             -0.6730 YYYY=             -0.6730 ZZZZ=             -0.6730 XXXY=              0.0000
 XXXZ=              0.0000 YYYX=              0.0000 YYYZ=             -0.0000 ZZZX=              0.0000
 ZZZY=             -0.0000 XXYY=             -0.2243 XXZZ=             -0.2243 YYZZ=             -0.2243
 XXYZ=             -0.0000 YYXZ=              0.0000 ZZXY=              0.0000
 N-N= 0.000000000000D+00 E-N=-6.742211199929D+00  KE= 2.864902256549D+00
 Symmetry AG   KE= 2.864902256549D+00
 Symmetry B1G  KE= 1.589511741589D-62
 Symmetry B2G  KE= 1.798910317676D-62
 Symmetry B3G  KE= 1.747035703536D-62
 Symmetry AU   KE= 0.000000000000D+00
 Symmetry B1U  KE= 0.000000000000D+00
 Symmetry B2U  KE= 0.000000000000D+00
 Symmetry B3U  KE= 0.000000000000D+00
 Orbital energies and kinetic energies (alpha):
                                 1                 2
   1         (A1G)--O         -0.661440          1.432451
   2         (A1G)--V          0.056659          0.221881
   3         (T1U)--V          0.294070          0.486056
   4         (T1U)--V          0.294070          0.486056
   5         (T1U)--V          0.294070          0.486056
   6         (A1G)--V          0.675354          1.435426
   7         (T2G)--V          1.328485          1.573388
   8         (T2G)--V          1.328485          1.573388
   9         (T2G)--V          1.328485          1.573388
  10         (EG)--V           1.328485          1.573388
  11         (EG)--V           1.328485          1.573388
  12         (T1U)--V          1.701625          2.305393
  13         (T1U)--V          1.701625          2.305393
  14         (T1U)--V          1.701625          2.305393
  15         (A1G)--V          4.321257          8.229021
  16         (T2G)--V          6.677883          7.637503
  17         (T2G)--V          6.677883          7.637503
  18         (T2G)--V          6.677883          7.637503
  19         (EG)--V           6.677883          7.637503
  20         (EG)--V           6.677883          7.637503
  21         (T1U)--V          7.692843          9.681289
  22         (T1U)--V          7.692843          9.681289
  23         (T1U)--V          7.692843          9.681289
 Total kinetic energy from orbitals= 2.864902256549D+00
 1\1\GINC-LOGIN\SP\RB3LYP\Aug-CC-pVTZ\He1\C7441090\20-Nov-2023\0\\# B3L
 YP/aug-cc-pVTZ EmpiricalDispersion=GD3 Pop=Full\\Helium\\0,1\He,0,0.,0
 .,0.\\Version=ES64L-G16RevA.03\State=1-A1G\HF=-2.9146938\RMSD=4.144e-0
 9\Dipole=0.,0.,0.\Quadrupole=0.,0.,0.,0.,0.,0.\PG=OH [O(He1)]\\@


 CHARLIE BROWN.."I CAN'T GET THAT STUPID KITE IN THE
 AIR... I CAN'T... I C A N N O T..."
 LUCY.."OH COME NOW CHARLIE BROWN...THAT'S NO WAY TO TALK...
 THE TROUBLE WITH YOU IS YOU DON'T BELIEVE IN YOURSELF... YOU
 DON'T BELIEVE IN YOUR OWN ABILITIES...  YOU'VE GOT TO SAY TO
 YOURSELF...'I BELIEVE I CAN FLY THIS KITE.'... GO AHEAD SAY
 IT...."
 CHARLIE BROWN.."I BELIEVE THAT I CAN FLY THIS STUPID
 KITE.....I BELIEVE THAT I CAN FLY THIS KITE........
 I  A C T U A L L Y  B E L I E V E  T H A T  I  C A N ******"
 LUCY.."I'LL BET YOU TEN-TO-ONE YOU'RE WRONG......."    SCHULZ
 Job cpu time:       0 days  0 hours  0 minutes  6.7 seconds.
 Elapsed time:       0 days  0 hours  0 minutes  3.3 seconds.
 File lengths (MBytes):  RWF=      5 Int=      0 D2E=      0 Chk=      1 Scr=      1
 Normal termination of Gaussian 16 at Mon Nov 20 21:43:00 2023.
