 Entering Gaussian System, Link 0=g16
 Input=P.com
 Output=P.log
 Initial command:
 /usr/site/hpc/x86_64/glibc-2.17/broadwell/gaussian/g16_a.03/pgi-16.5/g16/l1.exe "/home/c744/c7441090/data/Gau-3758692.inp" -scrdir="/home/c744/c7441090/data/"
 Entering Link 1 = /usr/site/hpc/x86_64/glibc-2.17/broadwell/gaussian/g16_a.03/pgi-16.5/g16/l1.exe PID=   3758693.
  
 Copyright (c) 1988,1990,1992,1993,1995,1998,2003,2009,2016,
            Gaussian, Inc.  All Rights Reserved.
  
 This is part of the Gaussian(R) 16 program.  It is based on
 the Gaussian(R) 09 system (copyright 2009, Gaussian, Inc.),
 the Gaussian(R) 03 system (copyright 2003, Gaussian, Inc.),
 the Gaussian(R) 98 system (copyright 1998, Gaussian, Inc.),
 the Gaussian(R) 94 system (copyright 1995, Gaussian, Inc.),
 the Gaussian 92(TM) system (copyright 1992, Gaussian, Inc.),
 the Gaussian 90(TM) system (copyright 1990, Gaussian, Inc.),
 the Gaussian 88(TM) system (copyright 1988, Gaussian, Inc.),
 the Gaussian 86(TM) system (copyright 1986, Carnegie Mellon
 University), and the Gaussian 82(TM) system (copyright 1983,
 Carnegie Mellon University). Gaussian is a federally registered
 trademark of Gaussian, Inc.
  
 This software contains proprietary and confidential information,
 including trade secrets, belonging to Gaussian, Inc.
  
 This software is provided under written license and may be
 used, copied, transmitted, or stored only in accord with that
 written license.
  
 The following legend is applicable only to US Government
 contracts under FAR:
  
                    RESTRICTED RIGHTS LEGEND
  
 Use, reproduction and disclosure by the US Government is
 subject to restrictions as set forth in subparagraphs (a)
 and (c) of the Commercial Computer Software - Restricted
 Rights clause in FAR 52.227-19.
  
 Gaussian, Inc.
 340 Quinnipiac St., Bldg. 40, Wallingford CT 06492
  
  
 ---------------------------------------------------------------
 Warning -- This program may not be used in any manner that
 competes with the business of Gaussian, Inc. or will provide
 assistance to any competitor of Gaussian, Inc.  The licensee
 of this program is prohibited from giving any competitor of
 Gaussian, Inc. access to this program.  By using this program,
 the user acknowledges that Gaussian, Inc. is engaged in the
 business of creating and licensing software in the field of
 computational chemistry and represents and warrants to the
 licensee that it is not a competitor of Gaussian, Inc. and that
 it will not use this program in any manner prohibited above.
 ---------------------------------------------------------------
  

 Cite this work as:
 Gaussian 16, Revision A.03,
 M. J. Frisch, G. W. Trucks, H. B. Schlegel, G. E. Scuseria, 
 M. A. Robb, J. R. Cheeseman, G. Scalmani, V. Barone, 
 G. A. Petersson, H. Nakatsuji, X. Li, M. Caricato, A. V. Marenich, 
 J. Bloino, B. G. Janesko, R. Gomperts, B. Mennucci, H. P. Hratchian, 
 J. V. Ortiz, A. F. Izmaylov, J. L. Sonnenberg, D. Williams-Young, 
 F. Ding, F. Lipparini, F. Egidi, J. Goings, B. Peng, A. Petrone, 
 T. Henderson, D. Ranasinghe, V. G. Zakrzewski, J. Gao, N. Rega, 
 G. Zheng, W. Liang, M. Hada, M. Ehara, K. Toyota, R. Fukuda, 
 J. Hasegawa, M. Ishida, T. Nakajima, Y. Honda, O. Kitao, H. Nakai, 
 T. Vreven, K. Throssell, J. A. Montgomery, Jr., J. E. Peralta, 
 F. Ogliaro, M. J. Bearpark, J. J. Heyd, E. N. Brothers, K. N. Kudin, 
 V. N. Staroverov, T. A. Keith, R. Kobayashi, J. Normand, 
 K. Raghavachari, A. P. Rendell, J. C. Burant, S. S. Iyengar, 
 J. Tomasi, M. Cossi, J. M. Millam, M. Klene, C. Adamo, R. Cammi, 
 J. W. Ochterski, R. L. Martin, K. Morokuma, O. Farkas, 
 J. B. Foresman, and D. J. Fox, Gaussian, Inc., Wallingford CT, 2016.
 
 ******************************************
 Gaussian 16:  ES64L-G16RevA.03 25-Dec-2016
                20-Nov-2023 
 ******************************************
 %NProcShared=4
 Will use up to    4 processors via shared memory.
 %Mem=1GB
 %Chk=P.chk
 ------------------------------------------------
 # B3LYP/CEP-31G EmpiricalDispersion=GD3 Pop=Full
 ------------------------------------------------
 1/38=1,172=1/1;
 2/12=2,17=6,18=5,40=1/2;
 3/5=9,6=1,11=2,25=1,30=1,74=-5,124=31/1,2,3;
 4//1;
 5/5=2,38=5/2;
 6/7=3,28=1/1;
 99/5=1,9=1/99;
 ----------
 Phosphorus
 ----------
 Symbolic Z-matrix:
 Charge =  0 Multiplicity = 4
 P                     0.        0.        0. 
 
                          Input orientation:                          
 ---------------------------------------------------------------------
 Center     Atomic      Atomic             Coordinates (Angstroms)
 Number     Number       Type             X           Y           Z
 ---------------------------------------------------------------------
      1         15           0        0.000000    0.000000    0.000000
 ---------------------------------------------------------------------
 Stoichiometry    P(4)
 Framework group  OH[O(P)]
 Deg. of freedom     0
 Full point group                 OH      NOp  48
 Largest Abelian subgroup         D2H     NOp   8
 Largest concise Abelian subgroup C1      NOp   1
                         Standard orientation:                         
 ---------------------------------------------------------------------
 Center     Atomic      Atomic             Coordinates (Angstroms)
 Number     Number       Type             X           Y           Z
 ---------------------------------------------------------------------
      1         15           0        0.000000    0.000000    0.000000
 ---------------------------------------------------------------------
 Standard basis: CEP-31G (6D, 10F)
 There are     2 symmetry adapted cartesian basis functions of AG  symmetry.
 There are     0 symmetry adapted cartesian basis functions of B1G symmetry.
 There are     0 symmetry adapted cartesian basis functions of B2G symmetry.
 There are     0 symmetry adapted cartesian basis functions of B3G symmetry.
 There are     0 symmetry adapted cartesian basis functions of AU  symmetry.
 There are     2 symmetry adapted cartesian basis functions of B1U symmetry.
 There are     2 symmetry adapted cartesian basis functions of B2U symmetry.
 There are     2 symmetry adapted cartesian basis functions of B3U symmetry.
 There are     2 symmetry adapted basis functions of AG  symmetry.
 There are     0 symmetry adapted basis functions of B1G symmetry.
 There are     0 symmetry adapted basis functions of B2G symmetry.
 There are     0 symmetry adapted basis functions of B3G symmetry.
 There are     0 symmetry adapted basis functions of AU  symmetry.
 There are     2 symmetry adapted basis functions of B1U symmetry.
 There are     2 symmetry adapted basis functions of B2U symmetry.
 There are     2 symmetry adapted basis functions of B3U symmetry.
     8 basis functions,    16 primitive gaussians,     8 cartesian basis functions
     4 alpha electrons        1 beta electrons
       nuclear repulsion energy         0.0000000000 Hartrees.
 NAtoms=    1 NActive=    1 NUniq=    1 SFac= 1.00D+00 NAtFMM=   60 NAOKFM=F Big=F
 Integral buffers will be    131072 words long.
 Raffenetti 2 integral format.
 Two-electron integral symmetry is turned on.
 Nuclear repulsion after empirical dispersion term =        0.0000000000 Hartrees.
 One-electron integrals computed using PRISM.
  48 Symmetry operations used in ECPInt.
 ECPInt:  NShTT=       3 NPrTT=      13 LenC2=       4 LenP2D=      13.
 LDataN:  DoStor=T MaxTD1= 3 Len=   28
 NBasis=     8 RedAO= T EigKep=  1.70D-01  NBF=     2     0     0     0     0     2     2     2
 NBsUse=     8 1.00D-06 EigRej= -1.00D+00 NBFU=     2     0     0     0     0     2     2     2
 ExpMin= 8.12D-02 ExpMax= 1.46D+00 ExpMxC= 1.46D+00 IAcc=3 IRadAn=         5 AccDes= 0.00D+00
 Harris functional with IExCor=  402 and IRadAn=       5 diagonalized for initial guess.
 HarFok:  IExCor=  402 AccDes= 0.00D+00 IRadAn=         5 IDoV= 1 UseB2=F ITyADJ=14
 ICtDFT=  3500011 ScaDFX=  1.000000  1.000000  1.000000  1.000000
 FoFCou: FMM=F IPFlag=           0 FMFlag=      100000 FMFlg1=           0
         NFxFlg=           0 DoJE=T BraDBF=F KetDBF=T FulRan=T
         wScrn=  0.000000 ICntrl=       500 IOpCl=  0 I1Cent=   200000004 NGrid=           0
         NMat0=    1 NMatS0=      1 NMatT0=    0 NMatD0=    1 NMtDS0=    0 NMtDT0=    0
 Petite list used in FoFCou.
 Initial guess orbital symmetries:
 Alpha Orbitals:
       Occupied  (A1G) (T1U) (T1U) (T1U)
       Virtual   (T1U) (T1U) (T1U) (A1G)
 Beta  Orbitals:
       Occupied  (A1G)
       Virtual   (T1U) (T1U) (T1U) (T1U) (T1U) (T1U) (A1G)
 The electronic state of the initial guess is 4-A1G.
 Initial guess <Sx>= 0.0000 <Sy>= 0.0000 <Sz>= 1.5000 <S**2>= 3.7500 S= 1.5000
 Keep R1 and R2 ints in memory in symmetry-blocked form, NReq=3414433.
 Requested convergence on RMS density matrix=1.00D-08 within 128 cycles.
 Requested convergence on MAX density matrix=1.00D-06.
 Requested convergence on             energy=1.00D-06.
 No special actions if energy rises.
 Integral accuracy reduced to 1.0D-05 until final iterations.
 Initial convergence to 1.0D-05 achieved.  Increase integral accuracy.
 SCF Done:  E(UB3LYP) =  -6.43332102322     A.U. after    7 cycles
            NFock=  7  Conv=0.15D-08     -V/T= 3.7331
 <Sx>= 0.0000 <Sy>= 0.0000 <Sz>= 1.5000 <S**2>= 3.7501 S= 1.5000
 <L.S>= 0.000000000000E+00
 Annihilation of the first spin contaminant:
 S**2 before annihilation     3.7501,   after     3.7500

 **********************************************************************

            Population analysis using the SCF density.

 **********************************************************************

 Orbital symmetries:
 Alpha Orbitals:
       Occupied  (A1G) (T1U) (T1U) (T1U)
       Virtual   (T1U) (T1U) (T1U) (A1G)
 Beta  Orbitals:
       Occupied  (A1G)
       Virtual   (T1U) (T1U) (T1U) (T1U) (T1U) (T1U) (A1G)
 The electronic state is 4-A1G.
 Alpha  occ. eigenvalues --   -0.60679  -0.26068  -0.26068  -0.26068
 Alpha virt. eigenvalues --    0.20892   0.20892   0.20892   1.31021
  Beta  occ. eigenvalues --   -0.48405
  Beta virt. eigenvalues --   -0.11502  -0.11502  -0.11502   0.25001   0.25001
  Beta virt. eigenvalues --    0.25001   1.33578
     Alpha Molecular Orbital Coefficients:
                           1         2         3         4         5
                       (A1G)--O  (T1U)--O  (T1U)--O  (T1U)--O  (T1U)--V
     Eigenvalues --    -0.60679  -0.26068  -0.26068  -0.26068   0.20892
   1 1   P  1S          0.81983   0.00000   0.00000   0.00000   0.00000
   2        1PX         0.00000   0.76993   0.00000   0.00000  -1.08058
   3        1PY         0.00000   0.00000   0.00000   0.76993   0.00000
   4        1PZ         0.00000   0.00000   0.76993   0.00000   0.00000
   5        2S          0.20878   0.00000   0.00000   0.00000   0.00000
   6        2PX         0.00000   0.30838   0.00000   0.00000   1.29048
   7        2PY         0.00000   0.00000   0.00000   0.30838   0.00000
   8        2PZ         0.00000   0.00000   0.30838   0.00000   0.00000
                           6         7         8
                       (T1U)--V  (T1U)--V  (A1G)--V
     Eigenvalues --     0.20892   0.20892   1.31021
   1 1   P  1S          0.00000   0.00000  -1.59700
   2        1PX         0.00000   0.00000   0.00000
   3        1PY         0.00000  -1.08058   0.00000
   4        1PZ        -1.08058   0.00000   0.00000
   5        2S          0.00000   0.00000   1.78296
   6        2PX         0.00000   0.00000   0.00000
   7        2PY         0.00000   1.29048   0.00000
   8        2PZ         1.29048   0.00000   0.00000
     Beta Molecular Orbital Coefficients:
                           1         2         3         4         5
                       (A1G)--O  (T1U)--V  (T1U)--V  (T1U)--V  (T1U)--V
     Eigenvalues --    -0.48405  -0.11502  -0.11502  -0.11502   0.25001
   1 1   P  1S          0.80108   0.00000   0.00000   0.00000   0.00000
   2        1PX         0.00000   0.63915   0.00000   0.00000   0.00000
   3        1PY         0.00000   0.00000   0.00000   0.63915   0.00000
   4        1PZ         0.00000   0.00000   0.63915   0.00000  -1.16272
   5        2S          0.22963   0.00000   0.00000   0.00000   0.00000
   6        2PX         0.00000   0.45625   0.00000   0.00000   0.00000
   7        2PY         0.00000   0.00000   0.00000   0.45625   0.00000
   8        2PZ         0.00000   0.00000   0.45625   0.00000   1.24590
                           6         7         8
                       (T1U)--V  (T1U)--V  (A1G)--V
     Eigenvalues --     0.25001   0.25001   1.33578
   1 1   P  1S          0.00000   0.00000  -1.60649
   2        1PX        -1.16272   0.00000   0.00000
   3        1PY         0.00000  -1.16272   0.00000
   4        1PZ         0.00000   0.00000   0.00000
   5        2S          0.00000   0.00000   1.78040
   6        2PX         1.24590   0.00000   0.00000
   7        2PY         0.00000   1.24590   0.00000
   8        2PZ         0.00000   0.00000   0.00000
     Alpha Density Matrix:
                           1         2         3         4         5
   1 1   P  1S          0.67212
   2        1PX         0.00000   0.59280
   3        1PY         0.00000  -0.00000   0.59280
   4        1PZ         0.00000  -0.00000   0.00000   0.59280
   5        2S          0.17116   0.00000   0.00000   0.00000   0.04359
   6        2PX         0.00000   0.23743   0.00000   0.00000   0.00000
   7        2PY         0.00000   0.00000   0.23743  -0.00000   0.00000
   8        2PZ         0.00000   0.00000  -0.00000   0.23743   0.00000
                           6         7         8
   6        2PX         0.09510
   7        2PY         0.00000   0.09510
   8        2PZ         0.00000  -0.00000   0.09510
     Beta Density Matrix:
                           1         2         3         4         5
   1 1   P  1S          0.64173
   2        1PX         0.00000   0.00000
   3        1PY         0.00000   0.00000   0.00000
   4        1PZ         0.00000   0.00000   0.00000   0.00000
   5        2S          0.18395   0.00000   0.00000   0.00000   0.05273
   6        2PX         0.00000   0.00000   0.00000   0.00000   0.00000
   7        2PY         0.00000   0.00000   0.00000   0.00000   0.00000
   8        2PZ         0.00000   0.00000   0.00000   0.00000   0.00000
                           6         7         8
   6        2PX         0.00000
   7        2PY         0.00000   0.00000
   8        2PZ         0.00000   0.00000   0.00000
    Full Mulliken population analysis:
                           1         2         3         4         5
   1 1   P  1S          1.31386
   2        1PX         0.00000   0.59280
   3        1PY         0.00000   0.00000   0.59280
   4        1PZ         0.00000   0.00000   0.00000   0.59280
   5        2S          0.29491   0.00000   0.00000   0.00000   0.09632
   6        2PX         0.00000   0.15605  -0.00000  -0.00000   0.00000
   7        2PY         0.00000   0.00000   0.15605  -0.00000   0.00000
   8        2PZ         0.00000  -0.00000  -0.00000   0.15605   0.00000
                           6         7         8
   6        2PX         0.09510
   7        2PY        -0.00000   0.09510
   8        2PZ        -0.00000  -0.00000   0.09510
     Gross orbital populations:
                         Total     Alpha     Beta      Spin
   1 1   P  1S          1.60877   0.81427   0.79450   0.01977
   2        1PX         0.74885   0.74885   0.00000   0.74885
   3        1PY         0.74885   0.74885   0.00000   0.74885
   4        1PZ         0.74885   0.74885   0.00000   0.74885
   5        2S          0.39123   0.18573   0.20550  -0.01977
   6        2PX         0.25115   0.25115   0.00000   0.25115
   7        2PY         0.25115   0.25115   0.00000   0.25115
   8        2PZ         0.25115   0.25115   0.00000   0.25115
          Condensed to atoms (all electrons):
               1
     1  P    5.000000
          Atomic-Atomic Spin Densities.
               1
     1  P    3.000000
 Mulliken charges and spin densities:
               1          2
     1  P    0.000000   3.000000
 Sum of Mulliken charges =   0.00000   3.00000
 Mulliken charges and spin densities with hydrogens summed into heavy atoms:
               1          2
     1  P    0.000000   3.000000
 Electronic spatial extent (au):  <R**2>=             27.9557
 Charge=             -0.0000 electrons
 Dipole moment (field-independent basis, Debye):
    X=              0.0000    Y=              0.0000    Z=              0.0000  Tot=              0.0000
 Quadrupole moment (field-independent basis, Debye-Ang):
   XX=            -12.5338   YY=            -12.5338   ZZ=            -12.5338
   XY=             -0.0000   XZ=             -0.0000   YZ=              0.0000
 Traceless Quadrupole moment (field-independent basis, Debye-Ang):
   XX=              0.0000   YY=              0.0000   ZZ=              0.0000
   XY=             -0.0000   XZ=             -0.0000   YZ=              0.0000
 Octapole moment (field-independent basis, Debye-Ang**2):
  XXX=              0.0000  YYY=              0.0000  ZZZ=              0.0000  XYY=              0.0000
  XXY=              0.0000  XXZ=              0.0000  XZZ=              0.0000  YZZ=              0.0000
  YYZ=              0.0000  XYZ=              0.0000
 Hexadecapole moment (field-independent basis, Debye-Ang**3):
 XXXX=            -21.6721 YYYY=            -21.6721 ZZZZ=            -21.6721 XXXY=             -0.0000
 XXXZ=             -0.0000 YYYX=             -0.0000 YYYZ=              0.0000 ZZZX=             -0.0000
 ZZZY=              0.0000 XXYY=             -7.2240 XXZZ=             -7.2240 YYZZ=             -7.2240
 XXYZ=              0.0000 YYXZ=             -0.0000 ZZXY=             -0.0000
 N-N= 0.000000000000D+00 E-N=-1.244241108338D+01  KE= 2.353841719633D+00
 Symmetry AG   KE= 7.303476848916D-01
 Symmetry B1G  KE= 0.000000000000D+00
 Symmetry B2G  KE= 0.000000000000D+00
 Symmetry B3G  KE= 0.000000000000D+00
 Symmetry AU   KE= 0.000000000000D+00
 Symmetry B1U  KE= 5.411646782470D-01
 Symmetry B2U  KE= 5.411646782470D-01
 Symmetry B3U  KE= 5.411646782470D-01
 Symmetry AG   SP=-2.937672403292D-16
 Symmetry B1G  SP= 0.000000000000D+00
 Symmetry B2G  SP= 0.000000000000D+00
 Symmetry B3G  SP= 0.000000000000D+00
 Symmetry AU   SP= 0.000000000000D+00
 Symmetry B1U  SP= 1.000000000000D+00
 Symmetry B2U  SP= 1.000000000000D+00
 Symmetry B3U  SP= 1.000000000000D+00
 Orbital energies and kinetic energies (alpha):
                                 1                 2
   1         (A1G)--O         -0.606788          0.369838
   2         (T1U)--O         -0.260677          0.541165
   3         (T1U)--O         -0.260677          0.541165
   4         (T1U)--O         -0.260677          0.541165
   5         (T1U)--V          0.208925          0.613154
   6         (T1U)--V          0.208925          0.613154
   7         (T1U)--V          0.208925          0.613154
   8         (A1G)--V          1.310215          0.741131
 Orbital energies and kinetic energies (beta):
                                 1                 2
   1         (A1G)--O         -0.484047          0.360510
   2         (T1U)--V         -0.115019          0.453601
   3         (T1U)--V         -0.115019          0.453601
   4         (T1U)--V         -0.115019          0.453601
   5         (T1U)--V          0.250012          0.700719
   6         (T1U)--V          0.250012          0.700719
   7         (T1U)--V          0.250012          0.700719
   8         (A1G)--V          1.335776          0.750459
 Total kinetic energy from orbitals= 2.353841719633D+00
                          Isotropic Fermi Contact Couplings
        Atom                 a.u.       MegaHertz       Gauss      10(-4) cm-1
     1  P(31)              0.00001       0.00597       0.00213       0.00199
 --------------------------------------------------------
       Center         ----  Spin Dipole Couplings  ----
                      3XX-RR        3YY-RR        3ZZ-RR
 --------------------------------------------------------
     1   Atom        0.000000     -0.000000     -0.000000
 --------------------------------------------------------
                        XY            XZ            YZ
 --------------------------------------------------------
     1   Atom        0.000000      0.000000      0.000000
 --------------------------------------------------------


 ---------------------------------------------------------------------------------
              Anisotropic Spin Dipole Couplings in Principal Axis System
 ---------------------------------------------------------------------------------

       Atom             a.u.   MegaHertz   Gauss  10(-4) cm-1        Axes

              Baa    -0.0000    -0.000    -0.000    -0.000 -0.0000  1.0000  0.0000
     1 P(31)  Bbb    -0.0000    -0.000    -0.000    -0.000  0.0000  0.0000  1.0000
              Bcc     0.0000     0.000     0.000     0.000  1.0000  0.0000  0.0000
 

 ---------------------------------------------------------------------------------

 1\1\GINC-LOGIN\SP\UB3LYP\CEP-31G\P1(4)\C7441090\20-Nov-2023\0\\# B3LYP
 /CEP-31G EmpiricalDispersion=GD3 Pop=Full\\Phosphorus\\0,4\P,0,0.,0.,0
 .\\Version=ES64L-G16RevA.03\State=4-A1G\HF=-6.433321\S2=3.750137\S2-1=
 0.\S2A=3.75\RMSD=1.460e-09\Dipole=0.,0.,0.\Quadrupole=0.,0.,0.,0.,0.,0
 .\PG=OH [O(P1)]\\@


 One man practicing sportsmanship is far better than 50 preaching it.
 -- Knute K. Rockne
 Job cpu time:       0 days  0 hours  0 minutes  6.9 seconds.
 Elapsed time:       0 days  0 hours  0 minutes  3.6 seconds.
 File lengths (MBytes):  RWF=      5 Int=      0 D2E=      0 Chk=      1 Scr=      1
 Normal termination of Gaussian 16 at Mon Nov 20 21:43:32 2023.
