 Entering Gaussian System, Link 0=g16
 Input=O2_O2_238.com
 Output=O2_O2_238.log
 Initial command:
 /usr/site/hpc/x86_64/glibc-2.17/broadwell/gaussian/g16_a.03/pgi-16.5/g16/l1.exe "/gpfs/gpfs1/scratch/c7441090/Neutral/O2+O2 (2S+1=5)/Gau-200577.inp" -scrdir="/gpfs/gpfs1/scratch/c7441090/Neutral/O2+O2 (2S+1=5)/"
 Entering Link 1 = /usr/site/hpc/x86_64/glibc-2.17/broadwell/gaussian/g16_a.03/pgi-16.5/g16/l1.exe PID=    200578.
  
 Copyright (c) 1988,1990,1992,1993,1995,1998,2003,2009,2016,
            Gaussian, Inc.  All Rights Reserved.
  
 This is part of the Gaussian(R) 16 program.  It is based on
 the Gaussian(R) 09 system (copyright 2009, Gaussian, Inc.),
 the Gaussian(R) 03 system (copyright 2003, Gaussian, Inc.),
 the Gaussian(R) 98 system (copyright 1998, Gaussian, Inc.),
 the Gaussian(R) 94 system (copyright 1995, Gaussian, Inc.),
 the Gaussian 92(TM) system (copyright 1992, Gaussian, Inc.),
 the Gaussian 90(TM) system (copyright 1990, Gaussian, Inc.),
 the Gaussian 88(TM) system (copyright 1988, Gaussian, Inc.),
 the Gaussian 86(TM) system (copyright 1986, Carnegie Mellon
 University), and the Gaussian 82(TM) system (copyright 1983,
 Carnegie Mellon University). Gaussian is a federally registered
 trademark of Gaussian, Inc.
  
 This software contains proprietary and confidential information,
 including trade secrets, belonging to Gaussian, Inc.
  
 This software is provided under written license and may be
 used, copied, transmitted, or stored only in accord with that
 written license.
  
 The following legend is applicable only to US Government
 contracts under FAR:
  
                    RESTRICTED RIGHTS LEGEND
  
 Use, reproduction and disclosure by the US Government is
 subject to restrictions as set forth in subparagraphs (a)
 and (c) of the Commercial Computer Software - Restricted
 Rights clause in FAR 52.227-19.
  
 Gaussian, Inc.
 340 Quinnipiac St., Bldg. 40, Wallingford CT 06492
  
  
 ---------------------------------------------------------------
 Warning -- This program may not be used in any manner that
 competes with the business of Gaussian, Inc. or will provide
 assistance to any competitor of Gaussian, Inc.  The licensee
 of this program is prohibited from giving any competitor of
 Gaussian, Inc. access to this program.  By using this program,
 the user acknowledges that Gaussian, Inc. is engaged in the
 business of creating and licensing software in the field of
 computational chemistry and represents and warrants to the
 licensee that it is not a competitor of Gaussian, Inc. and that
 it will not use this program in any manner prohibited above.
 ---------------------------------------------------------------
  

 Cite this work as:
 Gaussian 16, Revision A.03,
 M. J. Frisch, G. W. Trucks, H. B. Schlegel, G. E. Scuseria, 
 M. A. Robb, J. R. Cheeseman, G. Scalmani, V. Barone, 
 G. A. Petersson, H. Nakatsuji, X. Li, M. Caricato, A. V. Marenich, 
 J. Bloino, B. G. Janesko, R. Gomperts, B. Mennucci, H. P. Hratchian, 
 J. V. Ortiz, A. F. Izmaylov, J. L. Sonnenberg, D. Williams-Young, 
 F. Ding, F. Lipparini, F. Egidi, J. Goings, B. Peng, A. Petrone, 
 T. Henderson, D. Ranasinghe, V. G. Zakrzewski, J. Gao, N. Rega, 
 G. Zheng, W. Liang, M. Hada, M. Ehara, K. Toyota, R. Fukuda, 
 J. Hasegawa, M. Ishida, T. Nakajima, Y. Honda, O. Kitao, H. Nakai, 
 T. Vreven, K. Throssell, J. A. Montgomery, Jr., J. E. Peralta, 
 F. Ogliaro, M. J. Bearpark, J. J. Heyd, E. N. Brothers, K. N. Kudin, 
 V. N. Staroverov, T. A. Keith, R. Kobayashi, J. Normand, 
 K. Raghavachari, A. P. Rendell, J. C. Burant, S. S. Iyengar, 
 J. Tomasi, M. Cossi, J. M. Millam, M. Klene, C. Adamo, R. Cammi, 
 J. W. Ochterski, R. L. Martin, K. Morokuma, O. Farkas, 
 J. B. Foresman, and D. J. Fox, Gaussian, Inc., Wallingford CT, 2016.
 
 ******************************************
 Gaussian 16:  ES64L-G16RevA.03 25-Dec-2016
                13-Feb-2024 
 ******************************************
 %NProcShared=4
 Will use up to    4 processors via shared memory.
 %Mem=4GB
 %Chk=O2_O2_238.chk
 --------------------
 #p ROCCSD(T)/cc-pVTZ
 --------------------
 1/38=1,172=1/1;
 2/12=2,17=6,18=5,40=1/2;
 3/5=16,6=1,11=2,25=1,30=1,116=101/1,2,3;
 4//1;
 5/5=2,38=5/2;
 8/5=-1,6=4,9=120000,10=1/1,4;
 9/5=7,14=2/13;
 6/7=2,8=2,9=2,10=2/1;
 99/5=1,9=1/99;
 Leave Link    1 at Tue Feb 13 18:47:29 2024, MaxMem=   536870912 cpu:               0.2 elap:               0.1
 (Enter /usr/site/hpc/x86_64/glibc-2.17/broadwell/gaussian/g16_a.03/pgi-16.5/g16/l101.exe)
 ---------
 O2_O2_238
 ---------
 Symbolic Z-matrix:
 Charge =  0 Multiplicity = 5
 O                    -1.16      0.        0. 
 O                     0.        0.        0. 
 O                     2.94156   2.94156   0. 
 O                     3.76181   3.76181   0. 
 
 ITRead=  0  0  0  0
 MicOpt= -1 -1 -1 -1
 NAtoms=      4 NQM=        4 NQMF=       0 NMMI=      0 NMMIF=      0
                NMic=       0 NMicF=      0.
                    Isotopes and Nuclear Properties:
 (Nuclear quadrupole moments (NQMom) in fm**2, nuclear magnetic moments (NMagM)
  in nuclear magnetons)

  Atom         1           2           3           4
 IAtWgt=          16          16          16          16
 AtmWgt=  15.9949146  15.9949146  15.9949146  15.9949146
 NucSpn=           0           0           0           0
 AtZEff=  -0.0000000  -0.0000000  -0.0000000  -0.0000000
 NQMom=    0.0000000   0.0000000   0.0000000   0.0000000
 NMagM=    0.0000000   0.0000000   0.0000000   0.0000000
 AtZNuc=   8.0000000   8.0000000   8.0000000   8.0000000
 Leave Link  101 at Tue Feb 13 18:47:29 2024, MaxMem=   536870912 cpu:               0.3 elap:               0.1
 (Enter /usr/site/hpc/x86_64/glibc-2.17/broadwell/gaussian/g16_a.03/pgi-16.5/g16/l202.exe)
                          Input orientation:                          
 ---------------------------------------------------------------------
 Center     Atomic      Atomic             Coordinates (Angstroms)
 Number     Number       Type             X           Y           Z
 ---------------------------------------------------------------------
      1          8           0       -1.160000    0.000000    0.000000
      2          8           0        0.000000    0.000000    0.000000
      3          8           0        2.941564    2.941564    0.000000
      4          8           0        3.761808    3.761808    0.000000
 ---------------------------------------------------------------------
                    Distance matrix (angstroms):
                    1          2          3          4
     1  O    0.000000
     2  O    1.160000   0.000000
     3  O    5.047339   4.160000   0.000000
     4  O    6.194788   5.320000   1.160000   0.000000
 Stoichiometry    O4(5)
 Framework group  CS[SG(O4)]
 Deg. of freedom     5
 Full point group                 CS      NOp   2
 Largest Abelian subgroup         CS      NOp   2
 Largest concise Abelian subgroup C1      NOp   1
                         Standard orientation:                         
 ---------------------------------------------------------------------
 Center     Atomic      Atomic             Coordinates (Angstroms)
 Number     Number       Type             X           Y           Z
 ---------------------------------------------------------------------
      1          8           0        0.615183   -2.985183    0.000000
      2          8           0       -0.205061   -2.164939    0.000000
      3          8           0       -0.205061    1.995061   -0.000000
      4          8           0       -0.205061    3.155061   -0.000000
 ---------------------------------------------------------------------
 Rotational constants (GHZ):         111.0325060           1.1384804           1.1269254
 Leave Link  202 at Tue Feb 13 18:47:29 2024, MaxMem=   536870912 cpu:               0.0 elap:               0.0
 (Enter /usr/site/hpc/x86_64/glibc-2.17/broadwell/gaussian/g16_a.03/pgi-16.5/g16/l301.exe)
 Standard basis: CC-pVTZ (5D, 7F)
 Ernie: Thresh=  0.10000D-02 Tol=  0.10000D-05 Strict=F.
 Ernie:  12 primitive shells out of 104 were deleted.
 There are    96 symmetry adapted cartesian basis functions of A'  symmetry.
 There are    44 symmetry adapted cartesian basis functions of A"  symmetry.
 There are    80 symmetry adapted basis functions of A'  symmetry.
 There are    40 symmetry adapted basis functions of A"  symmetry.
   120 basis functions,   208 primitive gaussians,   140 cartesian basis functions
    18 alpha electrons       14 beta electrons
       nuclear repulsion energy        85.0762047813 Hartrees.
 IExCor=    0 DFT=F Ex=HF Corr=None ExCW=0 ScaHFX=  1.000000
 ScaDFX=  1.000000  1.000000  1.000000  1.000000 ScalE2=  1.000000  1.000000
 IRadAn=      5 IRanWt=     -1 IRanGd=            0 ICorTp=0 IEmpDi=  4
 NAtoms=    4 NActive=    4 NUniq=    4 SFac= 1.00D+00 NAtFMM=   60 NAOKFM=F Big=F
 Integral buffers will be    131072 words long.
 Raffenetti 2 integral format.
 Two-electron integral symmetry is turned on.
 Leave Link  301 at Tue Feb 13 18:47:29 2024, MaxMem=   536870912 cpu:               0.2 elap:               0.1
 (Enter /usr/site/hpc/x86_64/glibc-2.17/broadwell/gaussian/g16_a.03/pgi-16.5/g16/l302.exe)
 NPDir=0 NMtPBC=     1 NCelOv=     1 NCel=       1 NClECP=     1 NCelD=      1
         NCelK=      1 NCelE2=     1 NClLst=     1 CellRange=     0.0.
 One-electron integrals computed using PRISM.
 One-electron integral symmetry used in STVInt
 NBasis=   120 RedAO= T EigKep=  3.41D-03  NBF=    80    40
 NBsUse=   120 1.00D-06 EigRej= -1.00D+00 NBFU=    80    40
 Leave Link  302 at Tue Feb 13 18:47:29 2024, MaxMem=   536870912 cpu:               0.4 elap:               0.1
 (Enter /usr/site/hpc/x86_64/glibc-2.17/broadwell/gaussian/g16_a.03/pgi-16.5/g16/l303.exe)
 DipDrv:  MaxL=1.
 Leave Link  303 at Tue Feb 13 18:47:29 2024, MaxMem=   536870912 cpu:               0.1 elap:               0.0
 (Enter /usr/site/hpc/x86_64/glibc-2.17/broadwell/gaussian/g16_a.03/pgi-16.5/g16/l401.exe)
 ExpMin= 2.14D-01 ExpMax= 1.53D+04 ExpMxC= 5.22D+02 IAcc=3 IRadAn=         5 AccDes= 0.00D+00
 Harris functional with IExCor=  205 and IRadAn=       5 diagonalized for initial guess.
 HarFok:  IExCor=  205 AccDes= 0.00D+00 IRadAn=         5 IDoV= 1 UseB2=F ITyADJ=14
 ICtDFT=  3500011 ScaDFX=  1.000000  1.000000  1.000000  1.000000
 FoFCou: FMM=F IPFlag=           0 FMFlag=      100000 FMFlg1=           0
         NFxFlg=           0 DoJE=T BraDBF=F KetDBF=T FulRan=T
         wScrn=  0.000000 ICntrl=       500 IOpCl=  0 I1Cent=   200000004 NGrid=           0
         NMat0=    1 NMatS0=      1 NMatT0=    0 NMatD0=    1 NMtDS0=    0 NMtDT0=    0
 Petite list used in FoFCou.
 Harris En= -299.202513440206    
 JPrj=0 DoOrth=F DoCkMO=F.
 Initial guess orbital symmetries:
       Occupied  (A') (A') (A') (A') (A') (A') (A') (A') (A') (A')
                 (A") (A') (A') (A") (A") (A') (A') (A")
       Virtual   (A') (A') (A') (A') (A") (A") (A') (A') (A') (A')
                 (A") (A') (A") (A') (A') (A') (A') (A") (A') (A")
                 (A') (A') (A") (A') (A") (A') (A") (A') (A") (A')
                 (A') (A') (A') (A') (A") (A') (A") (A') (A") (A')
                 (A") (A') (A') (A') (A") (A') (A") (A') (A') (A")
                 (A") (A') (A') (A") (A') (A") (A') (A') (A") (A')
                 (A") (A') (A') (A') (A") (A') (A") (A') (A') (A')
                 (A") (A") (A') (A') (A') (A") (A") (A') (A') (A")
                 (A") (A') (A") (A') (A") (A') (A") (A') (A") (A')
                 (A') (A') (A') (A') (A") (A') (A") (A') (A') (A')
                 (A') (A')
 The electronic state of the initial guess is 5-A'.
 Leave Link  401 at Tue Feb 13 18:47:29 2024, MaxMem=   536870912 cpu:               0.7 elap:               0.2
 (Enter /usr/site/hpc/x86_64/glibc-2.17/broadwell/gaussian/g16_a.03/pgi-16.5/g16/l502.exe)
 Keep R1 and R2 ints in memory in symmetry-blocked form, NReq=40113421.
 FoFCou: FMM=F IPFlag=           0 FMFlag=           0 FMFlg1=           0
         NFxFlg=           0 DoJE=F BraDBF=F KetDBF=F FulRan=T
         wScrn=  0.000000 ICntrl=       600 IOpCl=  0 I1Cent=           0 NGrid=           0
         NMat0=    1 NMatS0=   7260 NMatT0=    0 NMatD0=    1 NMtDS0=    0 NMtDT0=    0
 Petite list used in FoFCou.
 Restricted open shell SCF:
 Using DIIS extrapolation, IDIIS=  1040.
 NGot=   536870912 LenX=   510082356 LenY=   510062315
 Requested convergence on RMS density matrix=1.00D-08 within 128 cycles.
 Requested convergence on MAX density matrix=1.00D-06.
 Requested convergence on             energy=1.00D-06.
 No special actions if energy rises.

 Cycle   1  Pass 1  IDiag  1:
 E= -299.256691685531    
 DIIS: error= 5.11D-02 at cycle   1 NSaved=   1.
 NSaved= 1 IEnMin= 1 EnMin= -299.256691685531     IErMin= 1 ErrMin= 5.11D-02
 ErrMax= 5.11D-02  0.00D+00 EMaxC= 1.00D-01 BMatC= 3.39D-01 BMatP= 3.39D-01
 IDIUse=3 WtCom= 4.89D-01 WtEn= 5.11D-01
 Coeff-Com:  0.100D+01
 Coeff-En:   0.100D+01
 Coeff:      0.100D+01
 Gap=     0.560 Goal=   None    Shift=    0.000
 GapD=    0.560 DampG=2.000 DampE=0.500 DampFc=1.0000 IDamp=-1.
 RMSDP=1.47D-03 MaxDP=3.07D-02              OVMax= 3.23D-02

 Cycle   2  Pass 1  IDiag  1:
 E= -299.315834094845     Delta-E=       -0.059142409314 Rises=F Damp=F
 DIIS: error= 5.55D-03 at cycle   2 NSaved=   2.
 NSaved= 2 IEnMin= 2 EnMin= -299.315834094845     IErMin= 2 ErrMin= 5.55D-03
 ErrMax= 5.55D-03  0.00D+00 EMaxC= 1.00D-01 BMatC= 2.59D-03 BMatP= 3.39D-01
 IDIUse=3 WtCom= 9.45D-01 WtEn= 5.55D-02
 Coeff-Com: -0.361D-01 0.104D+01
 Coeff-En:   0.000D+00 0.100D+01
 Coeff:     -0.341D-01 0.103D+01
 Gap=     0.530 Goal=   None    Shift=    0.000
 RMSDP=2.39D-04 MaxDP=6.12D-03 DE=-5.91D-02 OVMax= 4.61D-03

 Cycle   3  Pass 1  IDiag  1:
 E= -299.316584140544     Delta-E=       -0.000750045698 Rises=F Damp=F
 DIIS: error= 9.17D-04 at cycle   3 NSaved=   3.
 NSaved= 3 IEnMin= 3 EnMin= -299.316584140544     IErMin= 3 ErrMin= 9.17D-04
 ErrMax= 9.17D-04  0.00D+00 EMaxC= 1.00D-01 BMatC= 7.18D-05 BMatP= 2.59D-03
 IDIUse=3 WtCom= 9.91D-01 WtEn= 9.17D-03
 Coeff-Com: -0.944D-02 0.121D+00 0.888D+00
 Coeff-En:   0.000D+00 0.000D+00 0.100D+01
 Coeff:     -0.935D-02 0.120D+00 0.889D+00
 Gap=     0.531 Goal=   None    Shift=    0.000
 RMSDP=6.02D-05 MaxDP=1.18D-03 DE=-7.50D-04 OVMax= 1.39D-03

 Cycle   4  Pass 1  IDiag  1:
 E= -299.316613148142     Delta-E=       -0.000029007598 Rises=F Damp=F
 DIIS: error= 1.56D-04 at cycle   4 NSaved=   4.
 NSaved= 4 IEnMin= 4 EnMin= -299.316613148142     IErMin= 4 ErrMin= 1.56D-04
 ErrMax= 1.56D-04  0.00D+00 EMaxC= 1.00D-01 BMatC= 2.69D-06 BMatP= 7.18D-05
 IDIUse=3 WtCom= 9.98D-01 WtEn= 1.56D-03
 Coeff-Com: -0.733D-03 0.337D-02 0.529D-01 0.944D+00
 Coeff-En:   0.000D+00 0.000D+00 0.000D+00 0.100D+01
 Coeff:     -0.731D-03 0.337D-02 0.528D-01 0.945D+00
 Gap=     0.530 Goal=   None    Shift=    0.000
 RMSDP=1.91D-05 MaxDP=3.83D-04 DE=-2.90D-05 OVMax= 5.56D-04

 Cycle   5  Pass 1  IDiag  1:
 E= -299.316614143631     Delta-E=       -0.000000995489 Rises=F Damp=F
 DIIS: error= 1.64D-04 at cycle   5 NSaved=   5.
 NSaved= 5 IEnMin= 5 EnMin= -299.316614143631     IErMin= 4 ErrMin= 1.56D-04
 ErrMax= 1.64D-04  0.00D+00 EMaxC= 1.00D-01 BMatC= 1.73D-06 BMatP= 2.69D-06
 IDIUse=3 WtCom= 9.98D-01 WtEn= 1.64D-03
 Coeff-Com:  0.463D-03-0.921D-02-0.608D-01 0.451D+00 0.619D+00
 Coeff-En:   0.000D+00 0.000D+00 0.000D+00 0.192D+00 0.808D+00
 Coeff:      0.462D-03-0.920D-02-0.607D-01 0.450D+00 0.619D+00
 Gap=     0.530 Goal=   None    Shift=    0.000
 RMSDP=5.84D-06 MaxDP=1.22D-04 DE=-9.95D-07 OVMax= 1.96D-04

 Cycle   6  Pass 1  IDiag  1:
 E= -299.316615075057     Delta-E=       -0.000000931426 Rises=F Damp=F
 DIIS: error= 5.56D-05 at cycle   6 NSaved=   6.
 NSaved= 6 IEnMin= 6 EnMin= -299.316615075057     IErMin= 6 ErrMin= 5.56D-05
 ErrMax= 5.56D-05  0.00D+00 EMaxC= 1.00D-01 BMatC= 2.07D-07 BMatP= 1.73D-06
 IDIUse=1 WtCom= 1.00D+00 WtEn= 0.00D+00
 Coeff-Com:  0.309D-03-0.490D-02-0.379D-01 0.916D-01 0.307D+00 0.644D+00
 Coeff:      0.309D-03-0.490D-02-0.379D-01 0.916D-01 0.307D+00 0.644D+00
 Gap=     0.530 Goal=   None    Shift=    0.000
 RMSDP=2.77D-06 MaxDP=5.11D-05 DE=-9.31D-07 OVMax= 7.86D-05

 Cycle   7  Pass 1  IDiag  1:
 E= -299.316615193765     Delta-E=       -0.000000118708 Rises=F Damp=F
 DIIS: error= 3.45D-06 at cycle   7 NSaved=   7.
 NSaved= 7 IEnMin= 7 EnMin= -299.316615193765     IErMin= 7 ErrMin= 3.45D-06
 ErrMax= 3.45D-06  0.00D+00 EMaxC= 1.00D-01 BMatC= 7.52D-10 BMatP= 2.07D-07
 IDIUse=1 WtCom= 1.00D+00 WtEn= 0.00D+00
 Coeff-Com: -0.427D-04 0.782D-03 0.487D-02-0.262D-01-0.361D-01-0.621D-01
 Coeff-Com:  0.112D+01
 Coeff:     -0.427D-04 0.782D-03 0.487D-02-0.262D-01-0.361D-01-0.621D-01
 Coeff:      0.112D+01
 Gap=     0.530 Goal=   None    Shift=    0.000
 RMSDP=4.23D-07 MaxDP=7.93D-06 DE=-1.19D-07 OVMax= 1.05D-05

 Cycle   8  Pass 1  IDiag  1:
 E= -299.316615194731     Delta-E=       -0.000000000967 Rises=F Damp=F
 DIIS: error= 1.97D-06 at cycle   8 NSaved=   8.
 NSaved= 8 IEnMin= 8 EnMin= -299.316615194731     IErMin= 8 ErrMin= 1.97D-06
 ErrMax= 1.97D-06  0.00D+00 EMaxC= 1.00D-01 BMatC= 2.25D-10 BMatP= 7.52D-10
 IDIUse=1 WtCom= 1.00D+00 WtEn= 0.00D+00
 Coeff-Com: -0.349D-05 0.601D-04 0.453D-03-0.141D-02 0.153D-02-0.266D-01
 Coeff-Com:  0.617D-02 0.102D+01
 Coeff:     -0.349D-05 0.601D-04 0.453D-03-0.141D-02 0.153D-02-0.266D-01
 Coeff:      0.617D-02 0.102D+01
 Gap=     0.530 Goal=   None    Shift=    0.000
 RMSDP=1.27D-07 MaxDP=2.59D-06 DE=-9.67D-10 OVMax= 3.67D-06

 Cycle   9  Pass 1  IDiag  1:
 E= -299.316615194894     Delta-E=       -0.000000000163 Rises=F Damp=F
 DIIS: error= 1.43D-06 at cycle   9 NSaved=   9.
 NSaved= 9 IEnMin= 9 EnMin= -299.316615194894     IErMin= 9 ErrMin= 1.43D-06
 ErrMax= 1.43D-06  0.00D+00 EMaxC= 1.00D-01 BMatC= 1.17D-10 BMatP= 2.25D-10
 IDIUse=1 WtCom= 1.00D+00 WtEn= 0.00D+00
 Coeff-Com:  0.777D-06-0.159D-04-0.652D-04 0.489D-03 0.527D-02-0.150D-01
 Coeff-Com: -0.514D-01 0.444D+00 0.616D+00
 Coeff:      0.777D-06-0.159D-04-0.652D-04 0.489D-03 0.527D-02-0.150D-01
 Coeff:     -0.514D-01 0.444D+00 0.616D+00
 Gap=     0.530 Goal=   None    Shift=    0.000
 RMSDP=3.66D-08 MaxDP=6.37D-07 DE=-1.63D-10 OVMax= 1.36D-06

 Cycle  10  Pass 1  IDiag  1:
 E= -299.316615194952     Delta-E=       -0.000000000057 Rises=F Damp=F
 DIIS: error= 1.14D-06 at cycle  10 NSaved=  10.
 NSaved=10 IEnMin=10 EnMin= -299.316615194952     IErMin=10 ErrMin= 1.14D-06
 ErrMax= 1.14D-06  0.00D+00 EMaxC= 1.00D-01 BMatC= 7.31D-11 BMatP= 1.17D-10
 IDIUse=1 WtCom= 1.00D+00 WtEn= 0.00D+00
 Coeff-Com:  0.117D-05-0.211D-04-0.143D-03 0.137D-03 0.439D-02-0.483D-02
 Coeff-Com: -0.746D-02-0.157D+00-0.129D+00 0.129D+01
 Coeff:      0.117D-05-0.211D-04-0.143D-03 0.137D-03 0.439D-02-0.483D-02
 Coeff:     -0.746D-02-0.157D+00-0.129D+00 0.129D+01
 Gap=     0.530 Goal=   None    Shift=    0.000
 RMSDP=4.96D-08 MaxDP=9.37D-07 DE=-5.72D-11 OVMax= 1.63D-06

 Cycle  11  Pass 1  IDiag  1:
 E= -299.316615195019     Delta-E=       -0.000000000067 Rises=F Damp=F
 DIIS: error= 7.33D-07 at cycle  11 NSaved=  11.
 NSaved=11 IEnMin=11 EnMin= -299.316615195019     IErMin=11 ErrMin= 7.33D-07
 ErrMax= 7.33D-07  0.00D+00 EMaxC= 1.00D-01 BMatC= 3.12D-11 BMatP= 7.31D-11
 IDIUse=1 WtCom= 1.00D+00 WtEn= 0.00D+00
 Coeff-Com: -0.688D-06 0.136D-04 0.651D-04-0.856D-03 0.127D-03 0.528D-03
 Coeff-Com:  0.487D-01-0.299D+00-0.919D+00 0.871D+00 0.130D+01
 Coeff:     -0.688D-06 0.136D-04 0.651D-04-0.856D-03 0.127D-03 0.528D-03
 Coeff:      0.487D-01-0.299D+00-0.919D+00 0.871D+00 0.130D+01
 Gap=     0.530 Goal=   None    Shift=    0.000
 RMSDP=6.56D-08 MaxDP=1.25D-06 DE=-6.68D-11 OVMax= 2.46D-06

 Cycle  12  Pass 1  IDiag  1:
 E= -299.316615195064     Delta-E=       -0.000000000046 Rises=F Damp=F
 DIIS: error= 1.43D-07 at cycle  12 NSaved=  12.
 NSaved=12 IEnMin=12 EnMin= -299.316615195064     IErMin=12 ErrMin= 1.43D-07
 ErrMax= 1.43D-07  0.00D+00 EMaxC= 1.00D-01 BMatC= 1.15D-12 BMatP= 3.12D-11
 IDIUse=1 WtCom= 1.00D+00 WtEn= 0.00D+00
 Coeff-Com: -0.761D-07 0.150D-05 0.163D-04 0.104D-04-0.165D-03-0.890D-03
 Coeff-Com: -0.845D-03 0.505D-01 0.115D-01-0.104D+00-0.195D+00 0.124D+01
 Coeff:     -0.761D-07 0.150D-05 0.163D-04 0.104D-04-0.165D-03-0.890D-03
 Coeff:     -0.845D-03 0.505D-01 0.115D-01-0.104D+00-0.195D+00 0.124D+01
 Gap=     0.530 Goal=   None    Shift=    0.000
 RMSDP=1.61D-08 MaxDP=3.54D-07 DE=-4.59D-11 OVMax= 5.82D-07

 Cycle  13  Pass 1  IDiag  1:
 E= -299.316615195068     Delta-E=       -0.000000000004 Rises=F Damp=F
 DIIS: error= 4.10D-08 at cycle  13 NSaved=  13.
 NSaved=13 IEnMin=13 EnMin= -299.316615195068     IErMin=13 ErrMin= 4.10D-08
 ErrMax= 4.10D-08  0.00D+00 EMaxC= 1.00D-01 BMatC= 5.09D-14 BMatP= 1.15D-12
 IDIUse=1 WtCom= 1.00D+00 WtEn= 0.00D+00
 Coeff-Com:  0.638D-07-0.128D-05-0.603D-05 0.631D-04 0.330D-04-0.502D-04
 Coeff-Com: -0.363D-02 0.200D-01 0.621D-01-0.401D-01-0.111D+00-0.765D-01
 Coeff-Com:  0.115D+01
 Coeff:      0.638D-07-0.128D-05-0.603D-05 0.631D-04 0.330D-04-0.502D-04
 Coeff:     -0.363D-02 0.200D-01 0.621D-01-0.401D-01-0.111D+00-0.765D-01
 Coeff:      0.115D+01
 Gap=     0.530 Goal=   None    Shift=    0.000
 RMSDP=6.78D-09 MaxDP=1.88D-07 DE=-3.98D-12 OVMax= 1.50D-07

 SCF Done:  E(ROHF) =  -299.316615195     A.U. after   13 cycles
            NFock= 13  Conv=0.68D-08     -V/T= 2.0004
 <Sx>= 0.0000 <Sy>= 0.0000 <Sz>= 2.0000 <S**2>= 6.0000 S= 2.0000
 <L.S>= 0.000000000000E+00
 KE= 2.991830482865D+02 PE=-8.803078412445D+02 EE= 1.967319729817D+02
 Annihilation of the first spin contaminant:
 S**2 before annihilation     6.0000,   after     6.0000
 Leave Link  502 at Tue Feb 13 18:47:31 2024, MaxMem=   536870912 cpu:               5.7 elap:               1.7
 (Enter /usr/site/hpc/x86_64/glibc-2.17/broadwell/gaussian/g16_a.03/pgi-16.5/g16/l801.exe)
 Windowed orbitals will be sorted by symmetry type.
 GenMOA:  NOpAll=  2 NOp2=2 NOpUse=  2 JSym2X=1
 FoFJK:  IHMeth= 1 ICntrl=       0 DoSepK=F KAlg= 0 I1Cent=           0 FoldK=F
 IRaf=         0 NMat=       1 IRICut=       1 DoRegI=T DoRafI=F ISym2E= 1 IDoP0=0 IntGTp=1.
 FoFCou: FMM=F IPFlag=           0 FMFlag=      100000 FMFlg1=           0
         NFxFlg=           0 DoJE=F BraDBF=F KetDBF=F FulRan=T
         wScrn=  0.000000 ICntrl=         0 IOpCl=  1 I1Cent=           0 NGrid=           0
         NMat0=    1 NMatS0=      1 NMatT0=    0 NMatD0=    1 NMtDS0=    0 NMtDT0=    0
 Petite list used in FoFCou.
 <Sx>= 0.0000 <Sy>= 0.0000 <Sz>= 2.0000 <S**2>= 6.0000 S= 2.0000
 ExpMin= 2.14D-01 ExpMax= 1.53D+04 ExpMxC= 5.22D+02 IAcc=3 IRadAn=         5 AccDes= 0.00D+00
 HarFok:  IExCor=  205 AccDes= 0.00D+00 IRadAn=         5 IDoV=-2 UseB2=F ITyADJ=14
 ICtDFT= 12500011 ScaDFX=  1.000000  1.000000  1.000000  1.000000
 Largest valence mixing into a core orbital is  1.10D-04
 Largest core mixing into a valence orbital is  1.68D-05
 Largest valence mixing into a core orbital is  1.32D-04
 Largest core mixing into a valence orbital is  3.95D-05
 Range of M.O.s used for correlation:     5   120
 NBasis=   120 NAE=    18 NBE=    14 NFC=     4 NFV=     0
 NROrb=    116 NOA=    14 NOB=    10 NVA=   102 NVB=   106
 Singles contribution to E2=   -0.2570582105D-01
 Leave Link  801 at Tue Feb 13 18:47:32 2024, MaxMem=   536870912 cpu:               1.3 elap:               0.3
 (Enter /usr/site/hpc/x86_64/glibc-2.17/broadwell/gaussian/g16_a.03/pgi-16.5/g16/l804.exe)
 Open-shell transformation, MDV=   536870912 ITran=4 ISComp=2.
 Unit  1 TFree=        727716 TCopy=        512933.
 Semi-Direct transformation.
 ModeAB=           4 MOrb=            14 LenV=     536307352
 LASXX=      5054191 LTotXX=     5054191 LenRXX=    10328025
 LTotAB=     5273834 MaxLAS=    11384240 LenRXY=           0
 NonZer=    15382216 LenScr=    23592960 LnRSAI=    11384240
 LnScr1=    17301504 LExtra=           0 Total=     62606729
 MaxDsk=          -1 SrtSym=           T ITran=            4
 DoSDTr:  NPSUse=  4
 JobTyp=1 Pass  1:  I=   1 to  14.
 (rs|ai) integrals will be sorted in core.
 Complete sort for first half transformation.
 First half transformation complete.
 Begin second half transformation for I=  10.
 Complete sort for second half transformation.
 Second half transformation complete.
 ModeAB=           4 MOrb=            10 LenV=     536307352
 LASXX=      3716564 LTotXX=     3716564 LenRXX=     6695963
 LTotAB=     2979399 MaxLAS=     8131600 LenRXY=           0
 NonZer=    10412527 LenScr=    15728640 LnRSAI=     8131600
 LnScr1=    12582912 LExtra=           0 Total=     43139115
 MaxDsk=          -1 SrtSym=           T ITran=            4
 DoSDTr:  NPSUse=  4
 JobTyp=2 Pass  1:  I=   1 to  10.
 (rs|ai) integrals will be sorted in core.
 Complete sort for first half transformation.
 First half transformation complete.
 Begin second half transformation for I=  10.
 Complete sort for second half transformation.
 Second half transformation complete.
 Spin components of T(2) and E(2):
     alpha-alpha T2 =       0.2378152214D-01 E2=     -0.1217333105D+00
     alpha-beta  T2 =       0.1447136760D+00 E2=     -0.6357484391D+00
     beta-beta   T2 =       0.5161475013D-01 E2=     -0.1391943507D+00
 ANorm=    0.1110597432D+01
 E2 =    -0.9223819214D+00 EUMP2 =    -0.30023899711644D+03
 (S**2,0)=  0.60000D+01           (S**2,1)=  0.60000D+01
 E(PUHF)=      -0.29931661520D+03        E(PMP2)=      -0.30023899712D+03
 Leave Link  804 at Tue Feb 13 18:47:35 2024, MaxMem=   536870912 cpu:              12.2 elap:               3.1
 (Enter /usr/site/hpc/x86_64/glibc-2.17/broadwell/gaussian/g16_a.03/pgi-16.5/g16/l913.exe)
 CIDS:  MDV=   536870912.
 Frozen-core window:  NFC=   4 NFV=   0.
 IFCWin=0 IBDFC=1 NFBD=     0     0 NFCmp=     0     0 NFFFC=     0     0
 Using original routines for 1st iteration.
 Using DD4UQ or CC4UQ for 2nd and later iterations.
 Keep R2 and R3 ints in memory in symmetry-blocked form, NReq=40122471.
 FoFCou: FMM=F IPFlag=           0 FMFlag=           0 FMFlg1=           0
         NFxFlg=           0 DoJE=F BraDBF=F KetDBF=F FulRan=T
         wScrn=  0.000000 ICntrl=       600 IOpCl=  0 I1Cent=           0 NGrid=           0
         NMat0=    1 NMatS0=   7260 NMatT0=    0 NMatD0=    1 NMtDS0=    0 NMtDT0=    0
 Petite list used in FoFCou.
 CIDS: In Core Option IDoMem=           1.
 CCSD(T)
 =======
 Iterations=  50 Convergence= 0.100D-06
 Produce multiple copies of IABC intergrals
 Iteration Nr.   1
 **********************
 DD1Dir will call FoFMem   1 times, MxPair=       416
 NAB=   140 NAA=    91 NBB=    45.
 DD1Dir will call FoFMem   1 times, MxPair=       416
 NAB=   140 NAA=    91 NBB=    45.
 MP4(R+Q)= -0.18325981D-01
 Maximum subspace dimension=  5
 A-vector RMS=  3.5714397D-04 Max=  5.1415788D-03 conv= 1.00D-05.
 RLE energy=       -0.9048234948
 E3=        0.35726120D-01        EROMP3=      -0.30020327100D+03
 E4(SDQ)=  -0.17688510D-01        ROMP4(SDQ)=  -0.30022095951D+03
 VARIATIONAL ENERGIES WITH THE FIRST-ORDER WAVEFUNCTION:
 DE(Corr)= -0.90445437     E(Corr)=     -300.22106956    
 NORM(A)=   0.11049558D+01
 Iteration Nr.   2
 **********************
 DD1Dir will call FoFMem   1 times, MxPair=       416
 NAB=   140 NAA=    91 NBB=    45.
 A-vector RMS=  2.2046842D-03 Max=  1.0070369D-02 conv= 1.00D-05.
 RLE energy=       -0.8950899144
 DE(Corr)= -0.86823518     E(CORR)=     -300.18485038     Delta= 3.62D-02
 NORM(A)=   0.11012525D+01
 Iteration Nr.   3
 **********************
 DD1Dir will call FoFMem   1 times, MxPair=       416
 NAB=   140 NAA=    91 NBB=    45.
 A-vector RMS=  1.4843696D-03 Max=  6.4544419D-03 conv= 1.00D-05.
 RLE energy=       -0.8988165027
 DE(Corr)= -0.87662930     E(CORR)=     -300.19324450     Delta=-8.39D-03
 NORM(A)=   0.11020474D+01
 Iteration Nr.   4
 **********************
 DD1Dir will call FoFMem   1 times, MxPair=       416
 NAB=   140 NAA=    91 NBB=    45.
 A-vector RMS=  7.8118549D-04 Max=  3.4341894D-03 conv= 1.00D-05.
 RLE energy=       -0.8974362052
 DE(Corr)= -0.88716120     E(CORR)=     -300.20377639     Delta=-1.05D-02
 NORM(A)=   0.11031635D+01
 Iteration Nr.   5
 **********************
 DD1Dir will call FoFMem   1 times, MxPair=       416
 NAB=   140 NAA=    91 NBB=    45.
 A-vector RMS=  3.3626174D-05 Max=  3.0219944D-04 conv= 1.00D-05.
 RLE energy=       -0.8979426955
 DE(Corr)= -0.89787880     E(CORR)=     -300.21449399     Delta=-1.07D-02
 NORM(A)=   0.11034868D+01
 Iteration Nr.   6
 **********************
 DD1Dir will call FoFMem   1 times, MxPair=       416
 NAB=   140 NAA=    91 NBB=    45.
 A-vector RMS=  8.5240629D-06 Max=  7.1860469D-05 conv= 1.00D-05.
 RLE energy=       -0.8978731188
 DE(Corr)= -0.89786440     E(CORR)=     -300.21447959     Delta= 1.44D-05
 NORM(A)=   0.11034915D+01
 Iteration Nr.   7
 **********************
 DD1Dir will call FoFMem   1 times, MxPair=       416
 NAB=   140 NAA=    91 NBB=    45.
 A-vector RMS=  1.9979061D-06 Max=  1.7221708D-05 conv= 1.00D-05.
 RLE energy=       -0.8978629426
 DE(Corr)= -0.89786807     E(CORR)=     -300.21448327     Delta=-3.68D-06
 NORM(A)=   0.11034903D+01
 Iteration Nr.   8
 **********************
 DD1Dir will call FoFMem   1 times, MxPair=       416
 NAB=   140 NAA=    91 NBB=    45.
 A-vector RMS=  7.3757088D-07 Max=  5.3963365D-06 conv= 1.00D-05.
 RLE energy=       -0.8978678204
 DE(Corr)= -0.89786868     E(CORR)=     -300.21448387     Delta=-6.06D-07
 NORM(A)=   0.11034911D+01
 Iteration Nr.   9
 **********************
 DD1Dir will call FoFMem   1 times, MxPair=       416
 NAB=   140 NAA=    91 NBB=    45.
 A-vector RMS=  2.0078094D-07 Max=  1.0866583D-06 conv= 1.00D-05.
 RLE energy=       -0.8978665512
 DE(Corr)= -0.89786675     E(CORR)=     -300.21448194     Delta= 1.93D-06
 NORM(A)=   0.11034909D+01
 Iteration Nr.  10
 **********************
 DD1Dir will call FoFMem   1 times, MxPair=       416
 NAB=   140 NAA=    91 NBB=    45.
 A-vector RMS=  7.8879273D-08 Max=  5.0261510D-07 conv= 1.00D-05.
 RLE energy=       -0.8978671542
 DE(Corr)= -0.89786720     E(CORR)=     -300.21448240     Delta=-4.54D-07
 NORM(A)=   0.11034911D+01
 Iteration Nr.  11
 **********************
 DD1Dir will call FoFMem   1 times, MxPair=       416
 NAB=   140 NAA=    91 NBB=    45.
 A-vector RMS=  3.6926208D-08 Max=  2.8747462D-07 conv= 1.00D-05.
 RLE energy=       -0.8978671257
 DE(Corr)= -0.89786710     E(CORR)=     -300.21448229     Delta= 1.06D-07
 NORM(A)=   0.11034911D+01
 Iteration Nr.  12
 **********************
 DD1Dir will call FoFMem   1 times, MxPair=       416
 NAB=   140 NAA=    91 NBB=    45.
 A-vector RMS=  1.5186030D-08 Max=  1.3443452D-07 conv= 1.00D-05.
 RLE energy=       -0.8978671386
 DE(Corr)= -0.89786714     E(CORR)=     -300.21448234     Delta=-4.78D-08
 NORM(A)=   0.11034912D+01
 CI/CC converged in   12 iterations to DelEn=-4.78D-08 Conv= 1.00D-07 ErrA1= 1.52D-08 Conv= 1.00D-05
 Wavefunction amplitudes converged. E(Corr)=     -300.21448234    
 Largest amplitude= 4.99D-02
 Time for triples=      324.12 seconds.
 T4(CCSD)= -0.34589050D-01
 T5(CCSD)= -0.68411401D-03
 CCSD(T)= -0.30024975550D+03
 Discarding MO integrals.
 Leave Link  913 at Tue Feb 13 18:49:30 2024, MaxMem=   536870912 cpu:             458.3 elap:             115.1
 (Enter /usr/site/hpc/x86_64/glibc-2.17/broadwell/gaussian/g16_a.03/pgi-16.5/g16/l601.exe)
 Copying SCF densities to generalized density rwf, IOpCl= 0 IROHF=1.

 **********************************************************************

            Population analysis using the SCF density.

 **********************************************************************

 Orbital symmetries:
       Occupied  (A') (A') (A') (A') (A') (A') (A') (A') (A') (A')
                 (A") (A') (A") (A') (A") (A') (A') (A")
       Virtual   (A') (A') (A') (A") (A') (A") (A') (A') (A') (A')
                 (A") (A') (A") (A') (A') (A') (A') (A') (A") (A')
                 (A") (A') (A') (A") (A") (A') (A") (A') (A") (A')
                 (A') (A') (A') (A') (A") (A') (A") (A') (A") (A')
                 (A") (A') (A') (A') (A") (A') (A") (A') (A") (A')
                 (A') (A") (A") (A') (A') (A") (A') (A') (A") (A')
                 (A") (A') (A') (A') (A") (A') (A") (A') (A') (A')
                 (A") (A') (A") (A') (A") (A') (A") (A') (A") (A')
                 (A") (A') (A") (A') (A") (A') (A') (A") (A") (A')
                 (A') (A') (A') (A') (A") (A') (A") (A') (A') (A')
                 (A') (A')
 The electronic state is 5-A'.
 Alpha  occ. eigenvalues --  -20.74031 -20.74013 -20.73955 -20.73935  -1.74531
 Alpha  occ. eigenvalues --   -1.74510  -1.17078  -1.17049  -0.83811  -0.83811
 Alpha  occ. eigenvalues --   -0.83790  -0.83788  -0.78180  -0.78108  -0.51010
 Alpha  occ. eigenvalues --   -0.51007  -0.50981  -0.50981
 Alpha virt. eigenvalues --    0.39300   0.43183   0.67473   0.67890   0.67995
 Alpha virt. eigenvalues --    0.68115   0.70222   0.73407   0.76807   0.78582
 Alpha virt. eigenvalues --    0.79430   0.79866   0.80156   0.82154   0.87050
 Alpha virt. eigenvalues --    0.87150   1.40553   1.43205   1.43205   1.43207
 Alpha virt. eigenvalues --    1.43227   1.44151   1.56337   1.56337   1.56357
 Alpha virt. eigenvalues --    1.56365   1.88091   1.88091   1.88113   1.88115
 Alpha virt. eigenvalues --    2.41363   2.43016   2.45046   2.47889   2.48325
 Alpha virt. eigenvalues --    2.48518   2.48572   2.50869   3.87039   3.87069
 Alpha virt. eigenvalues --    3.87181   3.87204   4.07849   4.09469   4.17691
 Alpha virt. eigenvalues --    4.17797   4.17963   4.18079   4.95315   4.95315
 Alpha virt. eigenvalues --    4.95336   4.95336   5.07694   5.07695   5.07713
 Alpha virt. eigenvalues --    5.07720   5.18941   5.19973   5.28529   5.28529
 Alpha virt. eigenvalues --    5.28550   5.28550   5.41123   5.41284   5.59035
 Alpha virt. eigenvalues --    5.59035   5.59056   5.59056   6.09587   6.12693
 Alpha virt. eigenvalues --    6.23041   6.23041   6.23061   6.23062   6.50119
 Alpha virt. eigenvalues --    6.50119   6.50139   6.50140   6.72733   6.72733
 Alpha virt. eigenvalues --    6.72753   6.72754   6.81956   6.81980   6.82053
 Alpha virt. eigenvalues --    6.82082   6.94829   6.94829   6.94848   6.94850
 Alpha virt. eigenvalues --    7.32809   7.32994   7.62126   7.62170   7.81022
 Alpha virt. eigenvalues --    7.81026   7.81059   7.81070   8.06638   8.07321
 Alpha virt. eigenvalues --   14.01639  14.04131
          Condensed to atoms (all electrons):
               1          2          3          4
     1  O    7.840301   0.160125  -0.000001  -0.000000
     2  O    0.160125   7.839286   0.000100   0.000002
     3  O   -0.000001   0.000100   7.840205   0.159538
     4  O   -0.000000   0.000002   0.159538   7.840680
          Atomic-Atomic Spin Densities.
               1          2          3          4
     1  O    1.361257  -0.361817  -0.000002  -0.000000
     2  O   -0.361817   1.362307   0.000030   0.000001
     3  O   -0.000002   0.000030   1.362521  -0.362138
     4  O   -0.000000   0.000001  -0.362138   1.361767
 Mulliken charges and spin densities:
               1          2
     1  O   -0.000425   0.999438
     2  O    0.000487   1.000521
     3  O    0.000157   1.000411
     4  O   -0.000220   0.999629
 Sum of Mulliken charges =  -0.00000   4.00000
 Mulliken charges and spin densities with hydrogens summed into heavy atoms:
               1          2
     1  O   -0.000425   0.999438
     2  O    0.000487   1.000521
     3  O    0.000157   1.000411
     4  O   -0.000220   0.999629
 Electronic spatial extent (au):  <R**2>=            845.7046
 Charge=             -0.0000 electrons
 Dipole moment (field-independent basis, Debye):
    X=             -0.0027    Y=             -0.0006    Z=             -0.0000  Tot=              0.0028
 Quadrupole moment (field-independent basis, Debye-Ang):
   XX=            -19.9390   YY=            -20.5634   ZZ=            -19.6384
   XY=              0.3044   XZ=              0.0000   YZ=              0.0000
 Traceless Quadrupole moment (field-independent basis, Debye-Ang):
   XX=              0.1079   YY=             -0.5165   ZZ=              0.4086
   XY=              0.3044   XZ=              0.0000   YZ=              0.0000
 Octapole moment (field-independent basis, Debye-Ang**2):
  XXX=             -0.1880  YYY=             -2.3146  ZZZ=             -0.0000  XYY=             -1.5012
  XXY=              0.8986  XXZ=             -0.0000  XZZ=             -0.0011  YZZ=             -0.0002
  YYZ=              0.0000  XYZ=              0.0000
 Hexadecapole moment (field-independent basis, Debye-Ang**3):
 XXXX=            -28.5520 YYYY=           -860.8528 ZZZZ=            -13.3098 XXXY=             36.5804
 XXXZ=             -0.0000 YYYX=             43.5055 YYYZ=              0.0000 ZZZX=             -0.0000
 ZZZY=              0.0000 XXYY=           -144.8633 XXZZ=             -7.0158 YYZZ=           -139.9264
 XXYZ=              0.0000 YYXZ=             -0.0000 ZZXY=             12.1253
 N-N= 8.507620478128D+01 E-N=-8.803078411779D+02  KE= 2.991830482865D+02
 Symmetry A'   KE= 2.842573385372D+02
 Symmetry A"   KE= 1.492570974926D+01
 Symmetry A'   SP= 2.000000000000D+00
 Symmetry A"   SP= 2.000000000000D+00
                          Isotropic Fermi Contact Couplings
        Atom                 a.u.       MegaHertz       Gauss      10(-4) cm-1
     1  O(17)              0.00000      -0.00000      -0.00000      -0.00000
     2  O(17)              0.00000      -0.00003      -0.00001      -0.00001
     3  O(17)              0.00002      -0.00317      -0.00113      -0.00106
     4  O(17)              0.00000      -0.00030      -0.00011      -0.00010
 --------------------------------------------------------
       Center         ----  Spin Dipole Couplings  ----
                      3XX-RR        3YY-RR        3ZZ-RR
 --------------------------------------------------------
     1   Atom       -0.551885     -0.546835      1.098719
     2   Atom       -0.554324     -0.544923      1.099247
     3   Atom        1.098508     -2.197127      1.098619
     4   Atom        1.099295     -2.198407      1.099112
 --------------------------------------------------------
                        XY            XZ            YZ
 --------------------------------------------------------
     1   Atom        1.650082      0.000000     -0.000000
     2   Atom        1.652690      0.000000     -0.000000
     3   Atom       -0.000296      0.000000     -0.000000
     4   Atom       -0.000129      0.000000     -0.000000
 --------------------------------------------------------


 ---------------------------------------------------------------------------------
              Anisotropic Spin Dipole Couplings in Principal Axis System
 ---------------------------------------------------------------------------------

       Atom             a.u.   MegaHertz   Gauss  10(-4) cm-1        Axes

              Baa    -2.1994   159.150    56.789    53.087  0.7076 -0.7066  0.0000
     1 O(17)  Bbb     1.0987   -79.503   -28.368   -26.519  0.0000  0.0000  1.0000
              Bcc     1.1007   -79.648   -28.420   -26.568  0.7066  0.7076 -0.0000
 
              Baa    -2.2023   159.358    56.863    53.156  0.7081 -0.7061  0.0000
     2 O(17)  Bbb     1.0992   -79.541   -28.382   -26.532  0.0000  0.0000  1.0000
              Bcc     1.1031   -79.818   -28.481   -26.624  0.7061  0.7081 -0.0000
 
              Baa    -2.1971   158.983    56.729    53.031  0.0001  1.0000 -0.0000
     3 O(17)  Bbb     1.0985   -79.487   -28.363   -26.514  1.0000 -0.0001  0.0000
              Bcc     1.0986   -79.495   -28.366   -26.517  0.0000  0.0000  1.0000
 
              Baa    -2.1984   159.075    56.762    53.062  0.0000  1.0000 -0.0000
     4 O(17)  Bbb     1.0991   -79.531   -28.379   -26.529  0.0000  0.0000  1.0000
              Bcc     1.0993   -79.544   -28.383   -26.533  1.0000 -0.0000  0.0000
 

 ---------------------------------------------------------------------------------

 No NMR shielding tensors so no spin-rotation constants.
 Leave Link  601 at Tue Feb 13 18:49:30 2024, MaxMem=   536870912 cpu:               0.7 elap:               0.2
 (Enter /usr/site/hpc/x86_64/glibc-2.17/broadwell/gaussian/g16_a.03/pgi-16.5/g16/l9999.exe)
 1\1\GINC-N030\SP\ROCCSD(T)-FC\CC-pVTZ\O4(5)\ROOT\13-Feb-2024\0\\#p ROC
 CSD(T)/cc-pVTZ\\O2_O2_238\\0,5\O,0,-1.16,0.,0.\O,0,0.,0.,0.\O,0,2.9415
 64,2.941564,0.\O,0,3.761808,3.761808,0.\\Version=ES64L-G16RevA.03\Stat
 e=5-A'\HF=-299.3166152\MP2=-300.2389971\MP3=-300.203271\PUHF=-299.3166
 152\PMP2-0=-300.2389971\MP4SDQ=-300.2209595\CCSD=-300.2144823\CCSD(T)=
 -300.2497555\RMSD=6.777e-09\PG=CS [SG(O4)]\\@


 "THE ACADEMIC HIERARCHY"


 THE PRESIDENT:
   LEAPS TALL BUILDINGS IN A SINGLE BOUND,
     IS MORE POWERFUL THAN A LOCOMOTIVE,
       IS FASTER THAN A SPEEDING BULLET,
         WALKS ON WATER,
           GIVES POLICY TO GOD.

 THE VICE PRESIDENT FOR ACADEMIC AFFAIRS:
   LEAPS SHORT BUILDINGS IN A SINGLE BOUND,
     IS MORE POWERFUL THAN A SWITCH ENGINE,
       IS JUST AS FAST AS A SPEEDING BULLET,
         WALKS ON WATER IF SEA IS CALM,
           TALKS WITH GOD.

 PROFESSOR:
   LEAPS SHORT BUILDINGS WITH A RUNNING START AND FAVORABLE WINDS,
     IS ALMOST AS POWERFUL AS A SWITCH ENGINE,
       CAN FIRE A SPEEDING BULLET,
         WALKS ON WATER IN AN INDOOR SWIMMING POOL,
          TALKS WITH GOD IF SPECIAL REQUEST IS APPROVED.

 ASSOCIATE PROFESSOR:
   BARELY CLEARS A QUONSET HUT,
     LOSES TUG OF WAR WITH LOCOMOTIVE,
       MISFIRES FREQUENTLY,
         SWIMS WELL,
           IS OCCASIONALLY ADDRESSED BY GOD.

 ASSISTANT PROFESSOR:
   MAKES HIGH MARKS ON WALLS WHEN TRYING TO LEAP TALL BUILDINGS,
     IS RUN OVER BY LOCOMOTIVES,
       CAN SOMETIMES HANDLE A GUN WITHOUT INFLICTING SELF INJURY,
         DOG PADDLES,
           TALKS TO ANIMALS.

 GRADUATE STUDENT:
   RUNS INTO BUILDINGS,
     RECOGNIZES LOCOMOTIVES TWO OUT OF THREE TIMES,
       IS NOT ISSUED AMMUNITION,
         CAN STAY AFLOAT WITH A LIFE JACKET,
           TALKS TO WALLS.

 UNDERGRADUATE AND WORK STUDY STUDENT:
   FALLS OVER DOORSTEP WHEN TRYING TO ENTER BUILDINGS,
     SAYS, "LOOK AT THE CHOO-CHOO,"
       WETS HIMSELF WITH A WATER PISTOL,
        PLAYS IN MUD PUDDLES,
          MUMBLES TO HIMSELF.

 DEPARTMENT SECRETARY:
   LIFTS TALL BUILDINGS AND WALKS UNDER THEM,
     KICKS LOCOMOTIVES OFF THE TRACKS,
       CATCHES SPEEDING BULLETS IN HER TEETH AND EATS THEM,
         FREEZES WATER WITH A SINGLE GLANCE,
           IS GOD.
 Job cpu time:       0 days  0 hours  8 minutes  0.4 seconds.
 Elapsed time:       0 days  0 hours  2 minutes  1.1 seconds.
 File lengths (MBytes):  RWF=   1016 Int=      0 D2E=      0 Chk=      8 Scr=      8
 Normal termination of Gaussian 16 at Tue Feb 13 18:49:30 2024.
