 Entering Gaussian System, Link 0=g16
 Input=H2O.com
 Output=H2O.log
 Initial command:
 /usr/site/hpc/x86_64/glibc-2.17/broadwell/gaussian/g16_a.03/pgi-16.5/g16/l1.exe "/home/c744/c7441090/Gau-3886537.inp" -scrdir="/home/c744/c7441090/"
 Entering Link 1 = /usr/site/hpc/x86_64/glibc-2.17/broadwell/gaussian/g16_a.03/pgi-16.5/g16/l1.exe PID=   3886538.
  
 Copyright (c) 1988,1990,1992,1993,1995,1998,2003,2009,2016,
            Gaussian, Inc.  All Rights Reserved.
  
 This is part of the Gaussian(R) 16 program.  It is based on
 the Gaussian(R) 09 system (copyright 2009, Gaussian, Inc.),
 the Gaussian(R) 03 system (copyright 2003, Gaussian, Inc.),
 the Gaussian(R) 98 system (copyright 1998, Gaussian, Inc.),
 the Gaussian(R) 94 system (copyright 1995, Gaussian, Inc.),
 the Gaussian 92(TM) system (copyright 1992, Gaussian, Inc.),
 the Gaussian 90(TM) system (copyright 1990, Gaussian, Inc.),
 the Gaussian 88(TM) system (copyright 1988, Gaussian, Inc.),
 the Gaussian 86(TM) system (copyright 1986, Carnegie Mellon
 University), and the Gaussian 82(TM) system (copyright 1983,
 Carnegie Mellon University). Gaussian is a federally registered
 trademark of Gaussian, Inc.
  
 This software contains proprietary and confidential information,
 including trade secrets, belonging to Gaussian, Inc.
  
 This software is provided under written license and may be
 used, copied, transmitted, or stored only in accord with that
 written license.
  
 The following legend is applicable only to US Government
 contracts under FAR:
  
                    RESTRICTED RIGHTS LEGEND
  
 Use, reproduction and disclosure by the US Government is
 subject to restrictions as set forth in subparagraphs (a)
 and (c) of the Commercial Computer Software - Restricted
 Rights clause in FAR 52.227-19.
  
 Gaussian, Inc.
 340 Quinnipiac St., Bldg. 40, Wallingford CT 06492
  
  
 ---------------------------------------------------------------
 Warning -- This program may not be used in any manner that
 competes with the business of Gaussian, Inc. or will provide
 assistance to any competitor of Gaussian, Inc.  The licensee
 of this program is prohibited from giving any competitor of
 Gaussian, Inc. access to this program.  By using this program,
 the user acknowledges that Gaussian, Inc. is engaged in the
 business of creating and licensing software in the field of
 computational chemistry and represents and warrants to the
 licensee that it is not a competitor of Gaussian, Inc. and that
 it will not use this program in any manner prohibited above.
 ---------------------------------------------------------------
  

 Cite this work as:
 Gaussian 16, Revision A.03,
 M. J. Frisch, G. W. Trucks, H. B. Schlegel, G. E. Scuseria, 
 M. A. Robb, J. R. Cheeseman, G. Scalmani, V. Barone, 
 G. A. Petersson, H. Nakatsuji, X. Li, M. Caricato, A. V. Marenich, 
 J. Bloino, B. G. Janesko, R. Gomperts, B. Mennucci, H. P. Hratchian, 
 J. V. Ortiz, A. F. Izmaylov, J. L. Sonnenberg, D. Williams-Young, 
 F. Ding, F. Lipparini, F. Egidi, J. Goings, B. Peng, A. Petrone, 
 T. Henderson, D. Ranasinghe, V. G. Zakrzewski, J. Gao, N. Rega, 
 G. Zheng, W. Liang, M. Hada, M. Ehara, K. Toyota, R. Fukuda, 
 J. Hasegawa, M. Ishida, T. Nakajima, Y. Honda, O. Kitao, H. Nakai, 
 T. Vreven, K. Throssell, J. A. Montgomery, Jr., J. E. Peralta, 
 F. Ogliaro, M. J. Bearpark, J. J. Heyd, E. N. Brothers, K. N. Kudin, 
 V. N. Staroverov, T. A. Keith, R. Kobayashi, J. Normand, 
 K. Raghavachari, A. P. Rendell, J. C. Burant, S. S. Iyengar, 
 J. Tomasi, M. Cossi, J. M. Millam, M. Klene, C. Adamo, R. Cammi, 
 J. W. Ochterski, R. L. Martin, K. Morokuma, O. Farkas, 
 J. B. Foresman, and D. J. Fox, Gaussian, Inc., Wallingford CT, 2016.
 
 ******************************************
 Gaussian 16:  ES64L-G16RevA.03 25-Dec-2016
                22-Nov-2023 
 ******************************************
 %NProcShared=4
 Will use up to    4 processors via shared memory.
 %Mem=4GB
 %Chk=H2O.chk
 ------------------
 #p CCSD(T)/CEP-31G
 ------------------
 1/38=1,172=1/1;
 2/12=2,17=6,18=5,40=1/2;
 3/5=9,6=1,11=9,25=1,30=1/1,2,3;
 4//1;
 5/5=2,38=5/2;
 8/6=4,9=120000,10=1/1,4;
 9/5=7,14=2/13;
 6/7=2,8=2,9=2,10=2/1;
 99/5=1,9=1/99;
 Leave Link    1 at Wed Nov 22 18:30:02 2023, MaxMem=   536870912 cpu:               0.1 elap:               0.0
 (Enter /usr/site/hpc/x86_64/glibc-2.17/broadwell/gaussian/g16_a.03/pgi-16.5/g16/l101.exe)
 ---
 H2O
 ---
 Symbolic Z-matrix:
 Charge =  0 Multiplicity = 1
 O                     0.       -0.00983   0. 
 H                    -0.79957  -0.58097   0. 
 H                     0.79957  -0.58097   0. 
 
 ITRead=  0  0  0
 MicOpt= -1 -1 -1
 NAtoms=      3 NQM=        3 NQMF=       0 NMMI=      0 NMMIF=      0
                NMic=       0 NMicF=      0.
                    Isotopes and Nuclear Properties:
 (Nuclear quadrupole moments (NQMom) in fm**2, nuclear magnetic moments (NMagM)
  in nuclear magnetons)

  Atom         1           2           3
 IAtWgt=          16           1           1
 AtmWgt=  15.9949146   1.0078250   1.0078250
 NucSpn=           0           1           1
 AtZEff=  -0.0000000  -0.0000000  -0.0000000
 NQMom=    0.0000000   0.0000000   0.0000000
 NMagM=    0.0000000   2.7928460   2.7928460
 AtZNuc=   8.0000000   1.0000000   1.0000000
 Leave Link  101 at Wed Nov 22 18:30:02 2023, MaxMem=   536870912 cpu:               0.2 elap:               0.1
 (Enter /usr/site/hpc/x86_64/glibc-2.17/broadwell/gaussian/g16_a.03/pgi-16.5/g16/l202.exe)
                          Input orientation:                          
 ---------------------------------------------------------------------
 Center     Atomic      Atomic             Coordinates (Angstroms)
 Number     Number       Type             X           Y           Z
 ---------------------------------------------------------------------
      1          8           0        0.000000   -0.009833    0.000000
      2          1           0       -0.799571   -0.580965    0.000000
      3          1           0        0.799571   -0.580965    0.000000
 ---------------------------------------------------------------------
                    Distance matrix (angstroms):
                    1          2          3
     1  O    0.000000
     2  H    0.982601   0.000000
     3  H    0.982601   1.599142   0.000000
 Stoichiometry    H2O
 Framework group  C2V[C2(O),SGV(H2)]
 Deg. of freedom     2
 Full point group                 C2V     NOp   4
 Largest Abelian subgroup         C2V     NOp   4
 Largest concise Abelian subgroup C2      NOp   2
                         Standard orientation:                         
 ---------------------------------------------------------------------
 Center     Atomic      Atomic             Coordinates (Angstroms)
 Number     Number       Type             X           Y           Z
 ---------------------------------------------------------------------
      1          8           0        0.000000   -0.000000    0.114226
      2          1           0        0.000000    0.799571   -0.456906
      3          1           0       -0.000000   -0.799571   -0.456906
 ---------------------------------------------------------------------
 Rotational constants (GHZ):         865.5147557         392.1823031         269.8897703
 Leave Link  202 at Wed Nov 22 18:30:02 2023, MaxMem=   536870912 cpu:               0.1 elap:               0.1
 (Enter /usr/site/hpc/x86_64/glibc-2.17/broadwell/gaussian/g16_a.03/pgi-16.5/g16/l301.exe)
 Standard basis: CEP-31G (6D, 10F)
 Ernie: Thresh=  0.10000D-02 Tol=  0.10000D-05 Strict=F.
 There are     6 symmetry adapted cartesian basis functions of A1  symmetry.
 There are     0 symmetry adapted cartesian basis functions of A2  symmetry.
 There are     2 symmetry adapted cartesian basis functions of B1  symmetry.
 There are     4 symmetry adapted cartesian basis functions of B2  symmetry.
 There are     6 symmetry adapted basis functions of A1  symmetry.
 There are     0 symmetry adapted basis functions of A2  symmetry.
 There are     2 symmetry adapted basis functions of B1  symmetry.
 There are     4 symmetry adapted basis functions of B2  symmetry.
    12 basis functions,    24 primitive gaussians,    12 cartesian basis functions
     4 alpha electrons        4 beta electrons
       nuclear repulsion energy         6.7934792288 Hartrees.
 IExCor=    0 DFT=F Ex=HF Corr=None ExCW=0 ScaHFX=  1.000000
 ScaDFX=  1.000000  1.000000  1.000000  1.000000 ScalE2=  1.000000  1.000000
 IRadAn=      5 IRanWt=     -1 IRanGd=            0 ICorTp=0 IEmpDi=  4
 NAtoms=    3 NActive=    3 NUniq=    2 SFac= 2.25D+00 NAtFMM=   60 NAOKFM=F Big=F
 Integral buffers will be    131072 words long.
 Raffenetti 1 integral format.
 Two-electron integral symmetry is turned on.
 Leave Link  301 at Wed Nov 22 18:30:02 2023, MaxMem=   536870912 cpu:               0.1 elap:               0.0
 (Enter /usr/site/hpc/x86_64/glibc-2.17/broadwell/gaussian/g16_a.03/pgi-16.5/g16/l302.exe)
 NPDir=0 NMtPBC=     1 NCelOv=     1 NCel=       1 NClECP=     1 NCelD=      1
         NCelK=      1 NCelE2=     1 NClLst=     1 CellRange=     0.0.
 One-electron integrals computed using PRISM.
 One-electron integral symmetry used in STVInt
   4 Symmetry operations used in ECPInt.
 ECPInt:  NShTT=      21 NPrTT=      87 LenC2=      22 LenP2D=      86.
 LDataN:  DoStor=T MaxTD1= 2 Len=   12
 NBasis=    12 RedAO= T EigKep=  3.86D-02  NBF=     6     0     2     4
 NBsUse=    12 1.00D-06 EigRej= -1.00D+00 NBFU=     6     0     2     4
 Leave Link  302 at Wed Nov 22 18:30:02 2023, MaxMem=   536870912 cpu:               0.2 elap:               0.1
 (Enter /usr/site/hpc/x86_64/glibc-2.17/broadwell/gaussian/g16_a.03/pgi-16.5/g16/l303.exe)
 DipDrv:  MaxL=1.
 Leave Link  303 at Wed Nov 22 18:30:02 2023, MaxMem=   536870912 cpu:               0.1 elap:               0.0
 (Enter /usr/site/hpc/x86_64/glibc-2.17/broadwell/gaussian/g16_a.03/pgi-16.5/g16/l401.exe)
 ExpMin= 1.78D-01 ExpMax= 1.92D+01 ExpMxC= 1.92D+01 IAcc=3 IRadAn=         5 AccDes= 0.00D+00
 Harris functional with IExCor=  205 and IRadAn=       5 diagonalized for initial guess.
 HarFok:  IExCor=  205 AccDes= 0.00D+00 IRadAn=         5 IDoV= 1 UseB2=F ITyADJ=14
 ICtDFT=  3500011 ScaDFX=  1.000000  1.000000  1.000000  1.000000
 FoFCou: FMM=F IPFlag=           0 FMFlag=      100000 FMFlg1=           0
         NFxFlg=           0 DoJE=T BraDBF=F KetDBF=T FulRan=T
         wScrn=  0.000000 ICntrl=       500 IOpCl=  0 I1Cent=   200000004 NGrid=           0
         NMat0=    1 NMatS0=      1 NMatT0=    0 NMatD0=    1 NMtDS0=    0 NMtDT0=    0
 Petite list used in FoFCou.
 Harris En= -17.2381865558330    
 JPrj=0 DoOrth=F DoCkMO=F.
 Initial guess orbital symmetries:
       Occupied  (A1) (B2) (A1) (B1)
       Virtual   (A1) (B2) (B1) (A1) (B2) (A1) (B2) (A1)
 The electronic state of the initial guess is 1-A1.
 Leave Link  401 at Wed Nov 22 18:30:02 2023, MaxMem=   536870912 cpu:               0.3 elap:               0.1
 (Enter /usr/site/hpc/x86_64/glibc-2.17/broadwell/gaussian/g16_a.03/pgi-16.5/g16/l502.exe)
 Keep R1 ints in memory in symmetry-blocked form, NReq=806224.
 FoFCou: FMM=F IPFlag=           0 FMFlag=           0 FMFlg1=           0
         NFxFlg=           0 DoJE=F BraDBF=F KetDBF=F FulRan=T
         wScrn=  0.000000 ICntrl=       600 IOpCl=  0 I1Cent=           0 NGrid=           0
         NMat0=    1 NMatS0=     78 NMatT0=    0 NMatD0=    1 NMtDS0=    0 NMtDT0=    0
 Petite list used in FoFCou.
 Closed shell SCF:
 Using DIIS extrapolation, IDIIS=  1040.
 NGot=   536870912 LenX=   536867902 LenY=   536867020
 Requested convergence on RMS density matrix=1.00D-08 within 128 cycles.
 Requested convergence on MAX density matrix=1.00D-06.
 Requested convergence on             energy=1.00D-06.
 No special actions if energy rises.

 Cycle   1  Pass 1  IDiag  1:
 E= -16.7787754131089    
 DIIS: error= 6.88D-02 at cycle   1 NSaved=   1.
 NSaved= 1 IEnMin= 1 EnMin= -16.7787754131089     IErMin= 1 ErrMin= 6.88D-02
 ErrMax= 6.88D-02  0.00D+00 EMaxC= 1.00D-01 BMatC= 5.10D-02 BMatP= 5.10D-02
 IDIUse=3 WtCom= 3.12D-01 WtEn= 6.88D-01
 Coeff-Com:  0.100D+01
 Coeff-En:   0.100D+01
 Coeff:      0.100D+01
 Gap=     0.607 Goal=   None    Shift=    0.000
 GapD=    0.607 DampG=2.000 DampE=0.500 DampFc=1.0000 IDamp=-1.
 RMSDP=2.10D-02 MaxDP=1.17D-01              OVMax= 9.91D-02

 Cycle   2  Pass 1  IDiag  1:
 E= -16.8101880100730     Delta-E=       -0.031412596964 Rises=F Damp=F
 DIIS: error= 3.73D-02 at cycle   2 NSaved=   2.
 NSaved= 2 IEnMin= 2 EnMin= -16.8101880100730     IErMin= 2 ErrMin= 3.73D-02
 ErrMax= 3.73D-02  0.00D+00 EMaxC= 1.00D-01 BMatC= 1.91D-02 BMatP= 5.10D-02
 IDIUse=3 WtCom= 6.27D-01 WtEn= 3.73D-01
 Coeff-Com:  0.377D+00 0.623D+00
 Coeff-En:   0.109D+00 0.891D+00
 Coeff:      0.277D+00 0.723D+00
 Gap=     0.709 Goal=   None    Shift=    0.000
 RMSDP=9.05D-03 MaxDP=5.42D-02 DE=-3.14D-02 OVMax= 3.57D-02

 Cycle   3  Pass 1  IDiag  1:
 E= -16.8254668809489     Delta-E=       -0.015278870876 Rises=F Damp=F
 DIIS: error= 7.18D-03 at cycle   3 NSaved=   3.
 NSaved= 3 IEnMin= 3 EnMin= -16.8254668809489     IErMin= 3 ErrMin= 7.18D-03
 ErrMax= 7.18D-03  0.00D+00 EMaxC= 1.00D-01 BMatC= 4.51D-04 BMatP= 1.91D-02
 IDIUse=3 WtCom= 9.28D-01 WtEn= 7.18D-02
 Coeff-Com: -0.114D+00-0.164D-01 0.113D+01
 Coeff-En:   0.000D+00 0.000D+00 0.100D+01
 Coeff:     -0.106D+00-0.152D-01 0.112D+01
 Gap=     0.702 Goal=   None    Shift=    0.000
 RMSDP=1.52D-03 MaxDP=9.27D-03 DE=-1.53D-02 OVMax= 8.08D-03

 Cycle   4  Pass 1  IDiag  1:
 E= -16.8259167319158     Delta-E=       -0.000449850967 Rises=F Damp=F
 DIIS: error= 7.54D-04 at cycle   4 NSaved=   4.
 NSaved= 4 IEnMin= 4 EnMin= -16.8259167319158     IErMin= 4 ErrMin= 7.54D-04
 ErrMax= 7.54D-04  0.00D+00 EMaxC= 1.00D-01 BMatC= 2.95D-06 BMatP= 4.51D-04
 IDIUse=3 WtCom= 9.92D-01 WtEn= 7.54D-03
 Coeff-Com:  0.438D-01-0.175D-01-0.526D+00 0.150D+01
 Coeff-En:   0.000D+00 0.000D+00 0.000D+00 0.100D+01
 Coeff:      0.435D-01-0.174D-01-0.522D+00 0.150D+01
 Gap=     0.703 Goal=   None    Shift=    0.000
 RMSDP=3.33D-04 MaxDP=2.02D-03 DE=-4.50D-04 OVMax= 9.55D-04

 Cycle   5  Pass 1  IDiag  1:
 E= -16.8259232768863     Delta-E=       -0.000006544971 Rises=F Damp=F
 DIIS: error= 5.01D-05 at cycle   5 NSaved=   5.
 NSaved= 5 IEnMin= 5 EnMin= -16.8259232768863     IErMin= 5 ErrMin= 5.01D-05
 ErrMax= 5.01D-05  0.00D+00 EMaxC= 1.00D-01 BMatC= 1.92D-08 BMatP= 2.95D-06
 IDIUse=1 WtCom= 1.00D+00 WtEn= 0.00D+00
 Coeff-Com: -0.710D-02 0.319D-02 0.863D-01-0.294D+00 0.121D+01
 Coeff:     -0.710D-02 0.319D-02 0.863D-01-0.294D+00 0.121D+01
 Gap=     0.703 Goal=   None    Shift=    0.000
 RMSDP=2.23D-05 MaxDP=1.48D-04 DE=-6.54D-06 OVMax= 1.00D-04

 Cycle   6  Pass 1  IDiag  1:
 E= -16.8259233245660     Delta-E=       -0.000000047680 Rises=F Damp=F
 DIIS: error= 1.09D-05 at cycle   6 NSaved=   6.
 NSaved= 6 IEnMin= 6 EnMin= -16.8259233245660     IErMin= 6 ErrMin= 1.09D-05
 ErrMax= 1.09D-05  0.00D+00 EMaxC= 1.00D-01 BMatC= 1.07D-09 BMatP= 1.92D-08
 IDIUse=1 WtCom= 1.00D+00 WtEn= 0.00D+00
 Coeff-Com:  0.132D-02-0.477D-03-0.156D-01 0.596D-01-0.417D+00 0.137D+01
 Coeff:      0.132D-02-0.477D-03-0.156D-01 0.596D-01-0.417D+00 0.137D+01
 Gap=     0.703 Goal=   None    Shift=    0.000
 RMSDP=5.56D-06 MaxDP=3.87D-05 DE=-4.77D-08 OVMax= 3.36D-05

 Cycle   7  Pass 1  IDiag  1:
 E= -16.8259233275396     Delta-E=       -0.000000002974 Rises=F Damp=F
 DIIS: error= 2.13D-06 at cycle   7 NSaved=   7.
 NSaved= 7 IEnMin= 7 EnMin= -16.8259233275396     IErMin= 7 ErrMin= 2.13D-06
 ErrMax= 2.13D-06  0.00D+00 EMaxC= 1.00D-01 BMatC= 4.67D-11 BMatP= 1.07D-09
 IDIUse=1 WtCom= 1.00D+00 WtEn= 0.00D+00
 Coeff-Com:  0.239D-04-0.697D-04-0.479D-03-0.956D-03 0.729D-01-0.451D+00
 Coeff-Com:  0.138D+01
 Coeff:      0.239D-04-0.697D-04-0.479D-03-0.956D-03 0.729D-01-0.451D+00
 Coeff:      0.138D+01
 Gap=     0.703 Goal=   None    Shift=    0.000
 RMSDP=1.51D-06 MaxDP=7.97D-06 DE=-2.97D-09 OVMax= 8.11D-06

 Cycle   8  Pass 1  IDiag  1:
 E= -16.8259233276747     Delta-E=       -0.000000000135 Rises=F Damp=F
 DIIS: error= 3.29D-07 at cycle   8 NSaved=   8.
 NSaved= 8 IEnMin= 8 EnMin= -16.8259233276747     IErMin= 8 ErrMin= 3.29D-07
 ErrMax= 3.29D-07  0.00D+00 EMaxC= 1.00D-01 BMatC= 1.18D-12 BMatP= 4.67D-11
 IDIUse=1 WtCom= 1.00D+00 WtEn= 0.00D+00
 Coeff-Com:  0.709D-05 0.183D-04 0.199D-05 0.962D-03-0.311D-01 0.187D+00
 Coeff-Com: -0.624D+00 0.147D+01
 Coeff:      0.709D-05 0.183D-04 0.199D-05 0.962D-03-0.311D-01 0.187D+00
 Coeff:     -0.624D+00 0.147D+01
 Gap=     0.703 Goal=   None    Shift=    0.000
 RMSDP=3.15D-07 MaxDP=1.03D-06 DE=-1.35D-10 OVMax= 1.49D-06

 Cycle   9  Pass 1  IDiag  1:
 E= -16.8259233276779     Delta-E=       -0.000000000003 Rises=F Damp=F
 DIIS: error= 1.83D-08 at cycle   9 NSaved=   9.
 NSaved= 9 IEnMin= 9 EnMin= -16.8259233276779     IErMin= 9 ErrMin= 1.83D-08
 ErrMax= 1.83D-08  0.00D+00 EMaxC= 1.00D-01 BMatC= 5.88D-15 BMatP= 1.18D-12
 IDIUse=1 WtCom= 1.00D+00 WtEn= 0.00D+00
 Coeff-Com:  0.301D-06-0.507D-05-0.253D-04-0.154D-03 0.736D-02-0.459D-01
 Coeff-Com:  0.155D+00-0.420D+00 0.130D+01
 Coeff:      0.301D-06-0.507D-05-0.253D-04-0.154D-03 0.736D-02-0.459D-01
 Coeff:      0.155D+00-0.420D+00 0.130D+01
 Gap=     0.703 Goal=   None    Shift=    0.000
 RMSDP=3.46D-08 MaxDP=1.14D-07 DE=-3.14D-12 OVMax= 1.43D-07

 Cycle  10  Pass 1  IDiag  1:
 E= -16.8259233276779     Delta-E=       -0.000000000000 Rises=F Damp=F
 DIIS: error= 7.34D-10 at cycle  10 NSaved=  10.
 NSaved=10 IEnMin=10 EnMin= -16.8259233276779     IErMin=10 ErrMin= 7.34D-10
 ErrMax= 7.34D-10  0.00D+00 EMaxC= 1.00D-01 BMatC= 8.50D-18 BMatP= 5.88D-15
 IDIUse=1 WtCom= 1.00D+00 WtEn= 0.00D+00
 Coeff-Com: -0.186D-06 0.876D-06 0.577D-05 0.213D-04-0.124D-02 0.782D-02
 Coeff-Com: -0.265D-01 0.737D-01-0.247D+00 0.119D+01
 Coeff:     -0.186D-06 0.876D-06 0.577D-05 0.213D-04-0.124D-02 0.782D-02
 Coeff:     -0.265D-01 0.737D-01-0.247D+00 0.119D+01
 Gap=     0.703 Goal=   None    Shift=    0.000
 RMSDP=6.68D-10 MaxDP=1.93D-09 DE=-3.20D-14 OVMax= 1.85D-09

 SCF Done:  E(RHF) =  -16.8259233277     A.U. after   10 cycles
            NFock= 10  Conv=0.67D-09     -V/T= 2.2569
 KE= 1.338664140204D+01 PE=-5.437489814631D+01 EE= 1.736885418778D+01
 Leave Link  502 at Wed Nov 22 18:30:02 2023, MaxMem=   536870912 cpu:               0.2 elap:               0.1
 (Enter /usr/site/hpc/x86_64/glibc-2.17/broadwell/gaussian/g16_a.03/pgi-16.5/g16/l801.exe)
 Windowed orbitals will be sorted by symmetry type.
 Range of M.O.s used for correlation:     1    12
 NBasis=    12 NAE=     4 NBE=     4 NFC=     0 NFV=     0
 NROrb=     12 NOA=     4 NOB=     4 NVA=     8 NVB=     8
 Leave Link  801 at Wed Nov 22 18:30:02 2023, MaxMem=   536870912 cpu:               0.1 elap:               0.0
 (Enter /usr/site/hpc/x86_64/glibc-2.17/broadwell/gaussian/g16_a.03/pgi-16.5/g16/l804.exe)
 Closed-shell transformation, MDV=   536870912 ITran=4 ISComp=2.
 Unit  1 TFree=          6907 TCopy=        211456.
 Semi-Direct transformation.
 ModeAB=           4 MOrb=             4 LenV=     536749932
 LASXX=          660 LTotXX=         660 LenRXX=        1566
 LTotAB=         906 MaxLAS=        3360 LenRXY=           0
 NonZer=        2226 LenScr=      778240 LnRSAI=        3360
 LnScr1=      778240 LExtra=           0 Total=      1561406
 MaxDsk=          -1 SrtSym=           T ITran=            4
 DoSDTr:  NPSUse=  4
 JobTyp=0 Pass  1:  I=   1 to   4.
 (rs|ai) integrals will be sorted in core.
 Complete sort for first half transformation.
 First half transformation complete.
 Complete sort for second half transformation.
 Second half transformation complete.
 Spin components of T(2) and E(2):
     alpha-alpha T2 =       0.4533008677D-02 E2=     -0.1294439940D-01
     alpha-beta  T2 =       0.2996595497D-01 E2=     -0.8829543081D-01
     beta-beta   T2 =       0.4533008677D-02 E2=     -0.1294439940D-01
 ANorm=    0.1019329178D+01
 E2 =    -0.1141842296D+00 EUMP2 =    -0.16940107557285D+02
 Leave Link  804 at Wed Nov 22 18:30:02 2023, MaxMem=   536870912 cpu:               0.1 elap:               0.0
 (Enter /usr/site/hpc/x86_64/glibc-2.17/broadwell/gaussian/g16_a.03/pgi-16.5/g16/l913.exe)
 CIDS:  MDV=   536870912.
 IFCWin=0 IBDFC=1 NFBD=     0     0 NFCmp=     0     0 NFFFC=     0     0
 Using DD3R+UMP44R for 1st iteration.
 Using DD4RQ for 2nd and later iterations.
 Keep R2 and R3 ints in memory in symmetry-blocked form, NReq=808666.
 FoFCou: FMM=F IPFlag=           0 FMFlag=           0 FMFlg1=           0
         NFxFlg=           0 DoJE=F BraDBF=F KetDBF=F FulRan=T
         wScrn=  0.000000 ICntrl=       600 IOpCl=  0 I1Cent=           0 NGrid=           0
         NMat0=    1 NMatS0=     78 NMatT0=    0 NMatD0=    1 NMtDS0=    0 NMtDT0=    0
 Petite list used in FoFCou.
 CIDS: In Core Option IDoMem=           1.
 CCSD(T)
 =======
 Iterations=  50 Convergence= 0.100D-06
 Produce multiple copies of IABC intergrals
 Iteration Nr.   1
 **********************
 DD1Dir will call FoFMem   1 times, MxPair=        20
 NAB=    10 NAA=     0 NBB=     0.
 MP4(R+Q)= -0.37050767D-03
 Maximum subspace dimension=  5
 A-vector RMS=  9.3261936D-03 Max=  1.3214577D-02 conv= 1.00D-05.
 RLE energy=       -0.1172177118
 E3=       -0.27218256D-02        EUMP3=      -0.16942829383D+02
 E4(DQ)=   -0.29559326D-02        UMP4(DQ)=   -0.16945785315D+02
 E4(SDQ)=  -0.39696382D-02        UMP4(SDQ)=  -0.16946799021D+02
 VARIATIONAL ENERGIES WITH THE FIRST-ORDER WAVEFUNCTION:
 DE(Corr)= -0.11713938     E(Corr)=     -16.943062706    
 NORM(A)=   0.10210818D+01
 Iteration Nr.   2
 **********************
 DD1Dir will call FoFMem   1 times, MxPair=        20
 NAB=    10 NAA=     0 NBB=     0.
 A-vector RMS=  1.7358254D-03 Max=  2.7358778D-03 conv= 1.00D-05.
 RLE energy=       -0.1211058955
 DE(Corr)= -0.12013334     E(CORR)=     -16.946056667     Delta=-2.99D-03
 NORM(A)=   0.10230203D+01
 Iteration Nr.   3
 **********************
 DD1Dir will call FoFMem   1 times, MxPair=        20
 NAB=    10 NAA=     0 NBB=     0.
 A-vector RMS=  6.4711665D-04 Max=  1.1574359D-03 conv= 1.00D-05.
 RLE energy=       -0.1213812249
 DE(Corr)= -0.12115728     E(CORR)=     -16.947080606     Delta=-1.02D-03
 NORM(A)=   0.10233076D+01
 Iteration Nr.   4
 **********************
 DD1Dir will call FoFMem   1 times, MxPair=        20
 NAB=    10 NAA=     0 NBB=     0.
 A-vector RMS=  1.5106406D-04 Max=  2.5022099D-04 conv= 1.00D-05.
 RLE energy=       -0.1214046709
 DE(Corr)= -0.12138668     E(CORR)=     -16.947310004     Delta=-2.29D-04
 NORM(A)=   0.10233457D+01
 Iteration Nr.   5
 **********************
 DD1Dir will call FoFMem   1 times, MxPair=        20
 NAB=    10 NAA=     0 NBB=     0.
 A-vector RMS=  6.2404536D-05 Max=  1.5254425D-04 conv= 1.00D-05.
 RLE energy=       -0.1214037779
 DE(Corr)= -0.12140277     E(CORR)=     -16.947326099     Delta=-1.61D-05
 NORM(A)=   0.10233511D+01
 Iteration Nr.   6
 **********************
 DD1Dir will call FoFMem   1 times, MxPair=        20
 NAB=    10 NAA=     0 NBB=     0.
 A-vector RMS=  1.7427888D-05 Max=  4.0465386D-05 conv= 1.00D-05.
 RLE energy=       -0.1214033577
 DE(Corr)= -0.12140386     E(CORR)=     -16.947327183     Delta=-1.08D-06
 NORM(A)=   0.10233529D+01
 Iteration Nr.   7
 **********************
 DD1Dir will call FoFMem   1 times, MxPair=        20
 NAB=    10 NAA=     0 NBB=     0.
 A-vector RMS=  5.0792747D-06 Max=  1.1953184D-05 conv= 1.00D-05.
 RLE energy=       -0.1214038162
 DE(Corr)= -0.12140354     E(CORR)=     -16.947326873     Delta= 3.10D-07
 NORM(A)=   0.10233537D+01
 Iteration Nr.   8
 **********************
 DD1Dir will call FoFMem   1 times, MxPair=        20
 NAB=    10 NAA=     0 NBB=     0.
 A-vector RMS=  8.9789215D-07 Max=  1.7449224D-06 conv= 1.00D-05.
 RLE energy=       -0.1214035715
 DE(Corr)= -0.12140357     E(CORR)=     -16.947326901     Delta=-2.82D-08
 NORM(A)=   0.10233537D+01
 CI/CC converged in    8 iterations to DelEn=-2.82D-08 Conv= 1.00D-07 ErrA1= 8.98D-07 Conv= 1.00D-05
 Wavefunction amplitudes converged. E(Corr)=     -16.947326901    
 Largest amplitude= 5.86D-02
 IPart=  3 IA=    2   25.00% done.
 IPart=  4 IA=    3   46.43% done.
 IPart=  2 IA=    4   64.29% done.
 IPart=  2 IA=    5   78.57% done.
 IPart=  4 IA=    6   89.29% done.
 IPart=  3 IA=    7   96.43% done.
 Time for triples=        0.04 seconds.
 T4(CCSD)= -0.15434205D-02
 T5(CCSD)=  0.26308995D-03
 CCSD(T)= -0.16948607231D+02
 Discarding MO integrals.
 Leave Link  913 at Wed Nov 22 18:30:03 2023, MaxMem=   536870912 cpu:               0.3 elap:               0.1
 (Enter /usr/site/hpc/x86_64/glibc-2.17/broadwell/gaussian/g16_a.03/pgi-16.5/g16/l601.exe)
 Copying SCF densities to generalized density rwf, IOpCl= 0 IROHF=0.

 **********************************************************************

            Population analysis using the SCF density.

 **********************************************************************

 Orbital symmetries:
       Occupied  (A1) (B2) (A1) (B1)
       Virtual   (A1) (B2) (B1) (A1) (B2) (A1) (B2) (A1)
 The electronic state is 1-A1.
 Alpha  occ. eigenvalues --   -1.35646  -0.71279  -0.55383  -0.50219
 Alpha virt. eigenvalues --    0.20129   0.30369   0.80331   0.83356   0.86466
 Alpha virt. eigenvalues --    1.17258   1.21716   2.57273
          Condensed to atoms (all electrons):
               1          2          3
     1  O    6.214503   0.263413   0.263413
     2  H    0.263413   0.389454  -0.023533
     3  H    0.263413  -0.023533   0.389454
 Mulliken charges:
               1
     1  O   -0.741330
     2  H    0.370665
     3  H    0.370665
 Sum of Mulliken charges =   0.00000
 Mulliken charges with hydrogens summed into heavy atoms:
               1
     1  O    0.000000
 Electronic spatial extent (au):  <R**2>=             19.6931
 Charge=              0.0000 electrons
 Dipole moment (field-independent basis, Debye):
    X=             -0.0000    Y=              0.0000    Z=             -2.6441  Tot=              2.6441
 Quadrupole moment (field-independent basis, Debye-Ang):
   XX=             -7.4942   YY=             -4.0094   ZZ=             -6.4613
   XY=              0.0000   XZ=              0.0000   YZ=              0.0000
 Traceless Quadrupole moment (field-independent basis, Debye-Ang):
   XX=             -1.5059   YY=              1.9789   ZZ=             -0.4730
   XY=              0.0000   XZ=              0.0000   YZ=              0.0000
 Octapole moment (field-independent basis, Debye-Ang**2):
  XXX=              0.0000  YYY=             -0.0000  ZZZ=             -1.6801  XYY=             -0.0000
  XXY=             -0.0000  XXZ=             -0.4972  XZZ=             -0.0000  YZZ=             -0.0000
  YYZ=             -1.4173  XYZ=             -0.0000
 Hexadecapole moment (field-independent basis, Debye-Ang**3):
 XXXX=             -6.1104 YYYY=             -5.9703 ZZZZ=             -7.0557 XXXY=             -0.0000
 XXXZ=             -0.0000 YYYX=              0.0000 YYYZ=             -0.0000 ZZZX=             -0.0000
 ZZZY=              0.0000 XXYY=             -2.3069 XXZZ=             -2.2373 YYZZ=             -1.8978
 XXYZ=              0.0000 YYXZ=              0.0000 ZZXY=              0.0000
 N-N= 6.793479228814D+00 E-N=-5.437489815347D+01  KE= 1.338664140204D+01
 Symmetry A1   KE= 5.535060845060D+00
 Symmetry A2   KE= 0.000000000000D+00
 Symmetry B1   KE= 4.441660900953D+00
 Symmetry B2   KE= 3.409919656024D+00
 Leave Link  601 at Wed Nov 22 18:30:03 2023, MaxMem=   536870912 cpu:               0.1 elap:               0.0
 (Enter /usr/site/hpc/x86_64/glibc-2.17/broadwell/gaussian/g16_a.03/pgi-16.5/g16/l9999.exe)
 1\1\GINC-LOGIN\SP\RCCSD(T)-FC\CEP-31G\H2O1\C7441090\22-Nov-2023\0\\#p 
 CCSD(T)/CEP-31G\\H2O\\0,1\O,0,0.,-0.009833,0.\H,0,-0.799571,-0.580965,
 0.\H,0,0.799571,-0.580965,0.\\Version=ES64L-G16RevA.03\State=1-A1\HF=-
 16.8259233\MP2=-16.9401076\MP3=-16.9428294\MP4D=-16.9454148\MP4DQ=-16.
 9457853\MP4SDQ=-16.946799\CCSD=-16.9473269\CCSD(T)=-16.9486072\RMSD=6.
 677e-10\PG=C02V [C2(O1),SGV(H2)]\\@


 I DO NOT KNOW WHAT I MAY APPEAR TO THE WORLD; BUT TO MYSELF
 I SEEM TO HAVE BEEN ONLY LIKE A BOY PLAYING ON THE SEASHORE,
 AND DIVERTING MYSELF IN NOW AND THEN FINDING A SMOOTHER PEBBLE
 OR A PRETTIER SHELL THAN ORDINARY, WHILST THE GREAT OCEAN OF
 TRUTH LAY ALL UNDISCOVERED BEFORE ME.
                                          -- NEWTON (1642-1726)
 Job cpu time:       0 days  0 hours  0 minutes  2.0 seconds.
 Elapsed time:       0 days  0 hours  0 minutes  0.7 seconds.
 File lengths (MBytes):  RWF=     19 Int=      0 D2E=      0 Chk=      1 Scr=      1
 Normal termination of Gaussian 16 at Wed Nov 22 18:30:03 2023.
