 Entering Gaussian System, Link 0=g16
 Input=H2O_H2O_1649.com
 Output=H2O_H2O_1649.log
 Initial command:
 /usr/site/hpc/x86_64/glibc-2.17/broadwell/gaussian/g16_a.03/pgi-16.5/g16/l1.exe "/gpfs/gpfs1/scratch/c7441090/OH Coord/Gau-1687243.inp" -scrdir="/gpfs/gpfs1/scratch/c7441090/OH Coord/"
 Entering Link 1 = /usr/site/hpc/x86_64/glibc-2.17/broadwell/gaussian/g16_a.03/pgi-16.5/g16/l1.exe PID=   1687244.
  
 Copyright (c) 1988,1990,1992,1993,1995,1998,2003,2009,2016,
            Gaussian, Inc.  All Rights Reserved.
  
 This is part of the Gaussian(R) 16 program.  It is based on
 the Gaussian(R) 09 system (copyright 2009, Gaussian, Inc.),
 the Gaussian(R) 03 system (copyright 2003, Gaussian, Inc.),
 the Gaussian(R) 98 system (copyright 1998, Gaussian, Inc.),
 the Gaussian(R) 94 system (copyright 1995, Gaussian, Inc.),
 the Gaussian 92(TM) system (copyright 1992, Gaussian, Inc.),
 the Gaussian 90(TM) system (copyright 1990, Gaussian, Inc.),
 the Gaussian 88(TM) system (copyright 1988, Gaussian, Inc.),
 the Gaussian 86(TM) system (copyright 1986, Carnegie Mellon
 University), and the Gaussian 82(TM) system (copyright 1983,
 Carnegie Mellon University). Gaussian is a federally registered
 trademark of Gaussian, Inc.
  
 This software contains proprietary and confidential information,
 including trade secrets, belonging to Gaussian, Inc.
  
 This software is provided under written license and may be
 used, copied, transmitted, or stored only in accord with that
 written license.
  
 The following legend is applicable only to US Government
 contracts under FAR:
  
                    RESTRICTED RIGHTS LEGEND
  
 Use, reproduction and disclosure by the US Government is
 subject to restrictions as set forth in subparagraphs (a)
 and (c) of the Commercial Computer Software - Restricted
 Rights clause in FAR 52.227-19.
  
 Gaussian, Inc.
 340 Quinnipiac St., Bldg. 40, Wallingford CT 06492
  
  
 ---------------------------------------------------------------
 Warning -- This program may not be used in any manner that
 competes with the business of Gaussian, Inc. or will provide
 assistance to any competitor of Gaussian, Inc.  The licensee
 of this program is prohibited from giving any competitor of
 Gaussian, Inc. access to this program.  By using this program,
 the user acknowledges that Gaussian, Inc. is engaged in the
 business of creating and licensing software in the field of
 computational chemistry and represents and warrants to the
 licensee that it is not a competitor of Gaussian, Inc. and that
 it will not use this program in any manner prohibited above.
 ---------------------------------------------------------------
  

 Cite this work as:
 Gaussian 16, Revision A.03,
 M. J. Frisch, G. W. Trucks, H. B. Schlegel, G. E. Scuseria, 
 M. A. Robb, J. R. Cheeseman, G. Scalmani, V. Barone, 
 G. A. Petersson, H. Nakatsuji, X. Li, M. Caricato, A. V. Marenich, 
 J. Bloino, B. G. Janesko, R. Gomperts, B. Mennucci, H. P. Hratchian, 
 J. V. Ortiz, A. F. Izmaylov, J. L. Sonnenberg, D. Williams-Young, 
 F. Ding, F. Lipparini, F. Egidi, J. Goings, B. Peng, A. Petrone, 
 T. Henderson, D. Ranasinghe, V. G. Zakrzewski, J. Gao, N. Rega, 
 G. Zheng, W. Liang, M. Hada, M. Ehara, K. Toyota, R. Fukuda, 
 J. Hasegawa, M. Ishida, T. Nakajima, Y. Honda, O. Kitao, H. Nakai, 
 T. Vreven, K. Throssell, J. A. Montgomery, Jr., J. E. Peralta, 
 F. Ogliaro, M. J. Bearpark, J. J. Heyd, E. N. Brothers, K. N. Kudin, 
 V. N. Staroverov, T. A. Keith, R. Kobayashi, J. Normand, 
 K. Raghavachari, A. P. Rendell, J. C. Burant, S. S. Iyengar, 
 J. Tomasi, M. Cossi, J. M. Millam, M. Klene, C. Adamo, R. Cammi, 
 J. W. Ochterski, R. L. Martin, K. Morokuma, O. Farkas, 
 J. B. Foresman, and D. J. Fox, Gaussian, Inc., Wallingford CT, 2016.
 
 ******************************************
 Gaussian 16:  ES64L-G16RevA.03 25-Dec-2016
                10-Dec-2023 
 ******************************************
 %NProcShared=4
 Will use up to    4 processors via shared memory.
 %Mem=4GB
 %Chk=H2O_H2O_1649.chk
 ------------------
 #p CCSD(T)/CEP-31G
 ------------------
 1/38=1,172=1/1;
 2/12=2,17=6,18=5,40=1/2;
 3/5=9,6=1,11=9,25=1,30=1/1,2,3;
 4//1;
 5/5=2,38=5/2;
 8/6=4,9=120000,10=1/1,4;
 9/5=7,14=2/13;
 6/7=2,8=2,9=2,10=2/1;
 99/5=1,9=1/99;
 Leave Link    1 at Sun Dec 10 06:50:01 2023, MaxMem=   536870912 cpu:               0.2 elap:               0.1
 (Enter /usr/site/hpc/x86_64/glibc-2.17/broadwell/gaussian/g16_a.03/pgi-16.5/g16/l101.exe)
 ------------
 H2O_H2O_1649
 ------------
 Symbolic Z-matrix:
 Charge =  0 Multiplicity = 1
 O                     0.       -0.00983   0. 
 H                    -0.79957  -0.58097   0. 
 H                     0.79957  -0.58097   0. 
 O                    -2.7255   -1.93979   0. 
 H                    -3.29663  -1.14022   0. 
 H                    -3.29663  -2.73936   0. 
 
 ITRead=  0  0  0  0  0  0
 MicOpt= -1 -1 -1 -1 -1 -1
 NAtoms=      6 NQM=        6 NQMF=       0 NMMI=      0 NMMIF=      0
                NMic=       0 NMicF=      0.
                    Isotopes and Nuclear Properties:
 (Nuclear quadrupole moments (NQMom) in fm**2, nuclear magnetic moments (NMagM)
  in nuclear magnetons)

  Atom         1           2           3           4           5           6
 IAtWgt=          16           1           1          16           1           1
 AtmWgt=  15.9949146   1.0078250   1.0078250  15.9949146   1.0078250   1.0078250
 NucSpn=           0           1           1           0           1           1
 AtZEff=  -0.0000000  -0.0000000  -0.0000000  -0.0000000  -0.0000000  -0.0000000
 NQMom=    0.0000000   0.0000000   0.0000000   0.0000000   0.0000000   0.0000000
 NMagM=    0.0000000   2.7928460   2.7928460   0.0000000   2.7928460   2.7928460
 AtZNuc=   8.0000000   1.0000000   1.0000000   8.0000000   1.0000000   1.0000000
 Leave Link  101 at Sun Dec 10 06:50:01 2023, MaxMem=   536870912 cpu:               0.3 elap:               0.1
 (Enter /usr/site/hpc/x86_64/glibc-2.17/broadwell/gaussian/g16_a.03/pgi-16.5/g16/l202.exe)
                          Input orientation:                          
 ---------------------------------------------------------------------
 Center     Atomic      Atomic             Coordinates (Angstroms)
 Number     Number       Type             X           Y           Z
 ---------------------------------------------------------------------
      1          8           0        0.000000   -0.009833    0.000000
      2          1           0       -0.799571   -0.580965    0.000000
      3          1           0        0.799571   -0.580965    0.000000
      4          8           0       -2.725496   -1.939792    0.000000
      5          1           0       -3.296628   -1.140221    0.000000
      6          1           0       -3.296628   -2.739363    0.000000
 ---------------------------------------------------------------------
                    Distance matrix (angstroms):
                    1          2          3          4          5
     1  O    0.000000
     2  H    0.982601   0.000000
     3  H    0.982601   1.599142   0.000000
     4  O    3.339621   2.357032   3.777897   0.000000
     5  H    3.485044   2.558918   4.134200   0.982601   0.000000
     6  H    4.279964   3.300602   4.630068   0.982601   1.599142
                    6
     6  H    0.000000
 Stoichiometry    H4O2
 Framework group  CS[SG(H4O2)]
 Deg. of freedom     9
 Full point group                 CS      NOp   2
 Largest Abelian subgroup         CS      NOp   2
 Largest concise Abelian subgroup C1      NOp   1
                         Standard orientation:                         
 ---------------------------------------------------------------------
 Center     Atomic      Atomic             Coordinates (Angstroms)
 Number     Number       Type             X           Y           Z
 ---------------------------------------------------------------------
      1          8           0        0.013605   -1.749427    0.000000
      2          1           0        0.009569   -0.766834    0.000000
      3          1           0       -0.914571   -2.071908    0.000000
      4          8           0        0.013605    1.590194    0.000000
      5          1           0        0.996198    1.594230    0.000000
      6          1           0       -0.308877    2.518371    0.000000
 ---------------------------------------------------------------------
 Rotational constants (GHZ):         269.8897703           4.8924142           4.8053063
 Leave Link  202 at Sun Dec 10 06:50:01 2023, MaxMem=   536870912 cpu:               0.0 elap:               0.0
 (Enter /usr/site/hpc/x86_64/glibc-2.17/broadwell/gaussian/g16_a.03/pgi-16.5/g16/l301.exe)
 Standard basis: CEP-31G (6D, 10F)
 Ernie: Thresh=  0.10000D-02 Tol=  0.10000D-05 Strict=F.
 There are    20 symmetry adapted cartesian basis functions of A'  symmetry.
 There are     4 symmetry adapted cartesian basis functions of A"  symmetry.
 There are    20 symmetry adapted basis functions of A'  symmetry.
 There are     4 symmetry adapted basis functions of A"  symmetry.
    24 basis functions,    48 primitive gaussians,    24 cartesian basis functions
     8 alpha electrons        8 beta electrons
       nuclear repulsion energy        23.7411167160 Hartrees.
 IExCor=    0 DFT=F Ex=HF Corr=None ExCW=0 ScaHFX=  1.000000
 ScaDFX=  1.000000  1.000000  1.000000  1.000000 ScalE2=  1.000000  1.000000
 IRadAn=      5 IRanWt=     -1 IRanGd=            0 ICorTp=0 IEmpDi=  4
 NAtoms=    6 NActive=    6 NUniq=    6 SFac= 1.00D+00 NAtFMM=   60 NAOKFM=F Big=F
 Integral buffers will be    131072 words long.
 Raffenetti 1 integral format.
 Two-electron integral symmetry is turned on.
 Leave Link  301 at Sun Dec 10 06:50:01 2023, MaxMem=   536870912 cpu:               0.2 elap:               0.1
 (Enter /usr/site/hpc/x86_64/glibc-2.17/broadwell/gaussian/g16_a.03/pgi-16.5/g16/l302.exe)
 NPDir=0 NMtPBC=     1 NCelOv=     1 NCel=       1 NClECP=     1 NCelD=      1
         NCelK=      1 NCelE2=     1 NClLst=     1 CellRange=     0.0.
 One-electron integrals computed using PRISM.
 One-electron integral symmetry used in STVInt
   2 Symmetry operations used in ECPInt.
 ECPInt:  NShTT=      78 NPrTT=     318 LenC2=      79 LenP2D=     286.
 LDataN:  DoStor=T MaxTD1= 2 Len=   12
 NBasis=    24 RedAO= T EigKep=  2.58D-02  NBF=    20     4
 NBsUse=    24 1.00D-06 EigRej= -1.00D+00 NBFU=    20     4
 Leave Link  302 at Sun Dec 10 06:50:01 2023, MaxMem=   536870912 cpu:               0.3 elap:               0.1
 (Enter /usr/site/hpc/x86_64/glibc-2.17/broadwell/gaussian/g16_a.03/pgi-16.5/g16/l303.exe)
 DipDrv:  MaxL=1.
 Leave Link  303 at Sun Dec 10 06:50:01 2023, MaxMem=   536870912 cpu:               0.1 elap:               0.0
 (Enter /usr/site/hpc/x86_64/glibc-2.17/broadwell/gaussian/g16_a.03/pgi-16.5/g16/l401.exe)
 ExpMin= 1.78D-01 ExpMax= 1.92D+01 ExpMxC= 1.92D+01 IAcc=3 IRadAn=         5 AccDes= 0.00D+00
 Harris functional with IExCor=  205 and IRadAn=       5 diagonalized for initial guess.
 HarFok:  IExCor=  205 AccDes= 0.00D+00 IRadAn=         5 IDoV= 1 UseB2=F ITyADJ=14
 ICtDFT=  3500011 ScaDFX=  1.000000  1.000000  1.000000  1.000000
 FoFCou: FMM=F IPFlag=           0 FMFlag=      100000 FMFlg1=           0
         NFxFlg=           0 DoJE=T BraDBF=F KetDBF=T FulRan=T
         wScrn=  0.000000 ICntrl=       500 IOpCl=  0 I1Cent=   200000004 NGrid=           0
         NMat0=    1 NMatS0=      1 NMatT0=    0 NMatD0=    1 NMtDS0=    0 NMtDT0=    0
 Petite list used in FoFCou.
 Harris En= -34.4787803685926    
 JPrj=0 DoOrth=F DoCkMO=F.
 Initial guess orbital symmetries:
       Occupied  (A') (A') (A') (A') (A') (A') (A") (A")
       Virtual   (A') (A') (A') (A') (A") (A') (A") (A') (A') (A')
                 (A') (A') (A') (A') (A') (A')
 The electronic state of the initial guess is 1-A'.
 Leave Link  401 at Sun Dec 10 06:50:01 2023, MaxMem=   536870912 cpu:               0.4 elap:               0.1
 (Enter /usr/site/hpc/x86_64/glibc-2.17/broadwell/gaussian/g16_a.03/pgi-16.5/g16/l502.exe)
 Keep R1 ints in memory in symmetry-blocked form, NReq=852520.
 FoFCou: FMM=F IPFlag=           0 FMFlag=           0 FMFlg1=           0
         NFxFlg=           0 DoJE=F BraDBF=F KetDBF=F FulRan=T
         wScrn=  0.000000 ICntrl=       600 IOpCl=  0 I1Cent=           0 NGrid=           0
         NMat0=    1 NMatS0=    300 NMatT0=    0 NMatD0=    1 NMtDS0=    0 NMtDT0=    0
 Petite list used in FoFCou.
 Closed shell SCF:
 Using DIIS extrapolation, IDIIS=  1040.
 NGot=   536870912 LenX=   536840576 LenY=   536839559
 Requested convergence on RMS density matrix=1.00D-08 within 128 cycles.
 Requested convergence on MAX density matrix=1.00D-06.
 Requested convergence on             energy=1.00D-06.
 No special actions if energy rises.

 Cycle   1  Pass 1  IDiag  1:
 E= -33.5722689062314    
 DIIS: error= 6.57D-02 at cycle   1 NSaved=   1.
 NSaved= 1 IEnMin= 1 EnMin= -33.5722689062314     IErMin= 1 ErrMin= 6.57D-02
 ErrMax= 6.57D-02  0.00D+00 EMaxC= 1.00D-01 BMatC= 9.64D-02 BMatP= 9.64D-02
 IDIUse=3 WtCom= 3.43D-01 WtEn= 6.57D-01
 Coeff-Com:  0.100D+01
 Coeff-En:   0.100D+01
 Coeff:      0.100D+01
 Gap=     0.586 Goal=   None    Shift=    0.000
 GapD=    0.586 DampG=2.000 DampE=0.500 DampFc=1.0000 IDamp=-1.
 RMSDP=1.42D-02 MaxDP=1.17D-01              OVMax= 9.63D-02

 Cycle   2  Pass 1  IDiag  1:
 E= -33.6311076251868     Delta-E=       -0.058838718955 Rises=F Damp=F
 DIIS: error= 3.54D-02 at cycle   2 NSaved=   2.
 NSaved= 2 IEnMin= 2 EnMin= -33.6311076251868     IErMin= 2 ErrMin= 3.54D-02
 ErrMax= 3.54D-02  0.00D+00 EMaxC= 1.00D-01 BMatC= 3.47D-02 BMatP= 9.64D-02
 IDIUse=3 WtCom= 6.46D-01 WtEn= 3.54D-01
 Coeff-Com:  0.372D+00 0.628D+00
 Coeff-En:   0.995D-01 0.900D+00
 Coeff:      0.276D+00 0.724D+00
 Gap=     0.660 Goal=   None    Shift=    0.000
 RMSDP=6.08D-03 MaxDP=5.24D-02 DE=-5.88D-02 OVMax= 3.43D-02

 Cycle   3  Pass 1  IDiag  1:
 E= -33.6588409531777     Delta-E=       -0.027733327991 Rises=F Damp=F
 DIIS: error= 6.68D-03 at cycle   3 NSaved=   3.
 NSaved= 3 IEnMin= 3 EnMin= -33.6588409531777     IErMin= 3 ErrMin= 6.68D-03
 ErrMax= 6.68D-03  0.00D+00 EMaxC= 1.00D-01 BMatC= 8.02D-04 BMatP= 3.47D-02
 IDIUse=3 WtCom= 9.33D-01 WtEn= 6.68D-02
 Coeff-Com: -0.113D+00-0.198D-01 0.113D+01
 Coeff-En:   0.000D+00 0.000D+00 0.100D+01
 Coeff:     -0.105D+00-0.185D-01 0.112D+01
 Gap=     0.653 Goal=   None    Shift=    0.000
 RMSDP=1.00D-03 MaxDP=8.41D-03 DE=-2.77D-02 OVMax= 7.65D-03

 Cycle   4  Pass 1  IDiag  1:
 E= -33.6596277496560     Delta-E=       -0.000786796478 Rises=F Damp=F
 DIIS: error= 6.40D-04 at cycle   4 NSaved=   4.
 NSaved= 4 IEnMin= 4 EnMin= -33.6596277496560     IErMin= 4 ErrMin= 6.40D-04
 ErrMax= 6.40D-04  0.00D+00 EMaxC= 1.00D-01 BMatC= 4.76D-06 BMatP= 8.02D-04
 IDIUse=3 WtCom= 9.94D-01 WtEn= 6.40D-03
 Coeff-Com:  0.416D-01-0.153D-01-0.511D+00 0.148D+01
 Coeff-En:   0.000D+00 0.000D+00 0.000D+00 0.100D+01
 Coeff:      0.413D-01-0.152D-01-0.508D+00 0.148D+01
 Gap=     0.654 Goal=   None    Shift=    0.000
 RMSDP=2.25D-04 MaxDP=1.71D-03 DE=-7.87D-04 OVMax= 1.14D-03

 Cycle   5  Pass 1  IDiag  1:
 E= -33.6596388405044     Delta-E=       -0.000011090848 Rises=F Damp=F
 DIIS: error= 5.25D-05 at cycle   5 NSaved=   5.
 NSaved= 5 IEnMin= 5 EnMin= -33.6596388405044     IErMin= 5 ErrMin= 5.25D-05
 ErrMax= 5.25D-05  0.00D+00 EMaxC= 1.00D-01 BMatC= 4.12D-08 BMatP= 4.76D-06
 IDIUse=1 WtCom= 1.00D+00 WtEn= 0.00D+00
 Coeff-Com: -0.466D-02 0.197D-02 0.588D-01-0.222D+00 0.117D+01
 Coeff:     -0.466D-02 0.197D-02 0.588D-01-0.222D+00 0.117D+01
 Gap=     0.655 Goal=   None    Shift=    0.000
 RMSDP=1.70D-05 MaxDP=1.79D-04 DE=-1.11D-05 OVMax= 1.12D-04

 Cycle   6  Pass 1  IDiag  1:
 E= -33.6596389284618     Delta-E=       -0.000000087957 Rises=F Damp=F
 DIIS: error= 1.21D-05 at cycle   6 NSaved=   6.
 NSaved= 6 IEnMin= 6 EnMin= -33.6596389284618     IErMin= 6 ErrMin= 1.21D-05
 ErrMax= 1.21D-05  0.00D+00 EMaxC= 1.00D-01 BMatC= 5.83D-09 BMatP= 4.12D-08
 IDIUse=1 WtCom= 1.00D+00 WtEn= 0.00D+00
 Coeff-Com: -0.294D-02 0.121D-02 0.368D-01-0.120D+00 0.290D+00 0.795D+00
 Coeff:     -0.294D-02 0.121D-02 0.368D-01-0.120D+00 0.290D+00 0.795D+00
 Gap=     0.654 Goal=   None    Shift=    0.000
 RMSDP=3.44D-06 MaxDP=3.27D-05 DE=-8.80D-08 OVMax= 3.08D-05

 Cycle   7  Pass 1  IDiag  1:
 E= -33.6596389359105     Delta-E=       -0.000000007449 Rises=F Damp=F
 DIIS: error= 4.48D-06 at cycle   7 NSaved=   7.
 NSaved= 7 IEnMin= 7 EnMin= -33.6596389359105     IErMin= 7 ErrMin= 4.48D-06
 ErrMax= 4.48D-06  0.00D+00 EMaxC= 1.00D-01 BMatC= 5.02D-10 BMatP= 5.83D-09
 IDIUse=1 WtCom= 1.00D+00 WtEn= 0.00D+00
 Coeff-Com:  0.920D-03-0.356D-03-0.115D-01 0.414D-01-0.183D+00-0.802D-01
 Coeff-Com:  0.123D+01
 Coeff:      0.920D-03-0.356D-03-0.115D-01 0.414D-01-0.183D+00-0.802D-01
 Coeff:      0.123D+01
 Gap=     0.654 Goal=   None    Shift=    0.000
 RMSDP=1.86D-06 MaxDP=1.14D-05 DE=-7.45D-09 OVMax= 1.74D-05

 Cycle   8  Pass 1  IDiag  1:
 E= -33.6596389371315     Delta-E=       -0.000000001221 Rises=F Damp=F
 DIIS: error= 9.28D-07 at cycle   8 NSaved=   8.
 NSaved= 8 IEnMin= 8 EnMin= -33.6596389371315     IErMin= 8 ErrMin= 9.28D-07
 ErrMax= 9.28D-07  0.00D+00 EMaxC= 1.00D-01 BMatC= 1.80D-11 BMatP= 5.02D-10
 IDIUse=1 WtCom= 1.00D+00 WtEn= 0.00D+00
 Coeff-Com: -0.198D-05-0.179D-04-0.508D-05-0.670D-03 0.208D-01-0.262D-01
 Coeff-Com: -0.267D+00 0.127D+01
 Coeff:     -0.198D-05-0.179D-04-0.508D-05-0.670D-03 0.208D-01-0.262D-01
 Coeff:     -0.267D+00 0.127D+01
 Gap=     0.654 Goal=   None    Shift=    0.000
 RMSDP=4.31D-07 MaxDP=2.63D-06 DE=-1.22D-09 OVMax= 3.47D-06

 Cycle   9  Pass 1  IDiag  1:
 E= -33.6596389371810     Delta-E=       -0.000000000049 Rises=F Damp=F
 DIIS: error= 1.31D-07 at cycle   9 NSaved=   9.
 NSaved= 9 IEnMin= 9 EnMin= -33.6596389371810     IErMin= 9 ErrMin= 1.31D-07
 ErrMax= 1.31D-07  0.00D+00 EMaxC= 1.00D-01 BMatC= 5.14D-13 BMatP= 1.80D-11
 IDIUse=1 WtCom= 1.00D+00 WtEn= 0.00D+00
 Coeff-Com:  0.659D-05 0.367D-05-0.632D-04 0.384D-03-0.737D-02 0.985D-02
 Coeff-Com:  0.945D-01-0.516D+00 0.142D+01
 Coeff:      0.659D-05 0.367D-05-0.632D-04 0.384D-03-0.737D-02 0.985D-02
 Coeff:      0.945D-01-0.516D+00 0.142D+01
 Gap=     0.654 Goal=   None    Shift=    0.000
 RMSDP=1.00D-07 MaxDP=4.76D-07 DE=-4.95D-11 OVMax= 7.00D-07

 Cycle  10  Pass 1  IDiag  1:
 E= -33.6596389371824     Delta-E=       -0.000000000001 Rises=F Damp=F
 DIIS: error= 1.37D-08 at cycle  10 NSaved=  10.
 NSaved=10 IEnMin=10 EnMin= -33.6596389371824     IErMin=10 ErrMin= 1.37D-08
 ErrMax= 1.37D-08  0.00D+00 EMaxC= 1.00D-01 BMatC= 6.22D-15 BMatP= 5.14D-13
 IDIUse=1 WtCom= 1.00D+00 WtEn= 0.00D+00
 Coeff-Com:  0.110D-06-0.129D-05-0.551D-05-0.761D-05 0.120D-02-0.222D-02
 Coeff-Com: -0.174D-01 0.103D+00-0.376D+00 0.129D+01
 Coeff:      0.110D-06-0.129D-05-0.551D-05-0.761D-05 0.120D-02-0.222D-02
 Coeff:     -0.174D-01 0.103D+00-0.376D+00 0.129D+01
 Gap=     0.654 Goal=   None    Shift=    0.000
 RMSDP=1.47D-08 MaxDP=6.48D-08 DE=-1.48D-12 OVMax= 9.22D-08

 Cycle  11  Pass 1  IDiag  1:
 E= -33.6596389371824     Delta-E=        0.000000000000 Rises=F Damp=F
 DIIS: error= 1.01D-09 at cycle  11 NSaved=  11.
 NSaved=11 IEnMin=10 EnMin= -33.6596389371824     IErMin=11 ErrMin= 1.01D-09
 ErrMax= 1.01D-09  0.00D+00 EMaxC= 1.00D-01 BMatC= 3.67D-17 BMatP= 6.22D-15
 IDIUse=1 WtCom= 1.00D+00 WtEn= 0.00D+00
 Coeff-Com: -0.102D-06 0.267D-06 0.199D-05-0.219D-05-0.213D-03 0.430D-03
 Coeff-Com:  0.323D-02-0.196D-01 0.740D-01-0.299D+00 0.124D+01
 Coeff:     -0.102D-06 0.267D-06 0.199D-05-0.219D-05-0.213D-03 0.430D-03
 Coeff:      0.323D-02-0.196D-01 0.740D-01-0.299D+00 0.124D+01
 Gap=     0.654 Goal=   None    Shift=    0.000
 RMSDP=9.68D-10 MaxDP=5.45D-09 DE= 0.00D+00 OVMax= 5.65D-09

 SCF Done:  E(RHF) =  -33.6596389372     A.U. after   11 cycles
            NFock= 11  Conv=0.97D-09     -V/T= 2.2561
 KE= 2.679615336176D+01 PE=-1.291123229102D+02 EE= 4.491541389530D+01
 Leave Link  502 at Sun Dec 10 06:50:01 2023, MaxMem=   536870912 cpu:               0.3 elap:               0.1
 (Enter /usr/site/hpc/x86_64/glibc-2.17/broadwell/gaussian/g16_a.03/pgi-16.5/g16/l801.exe)
 Windowed orbitals will be sorted by symmetry type.
 Range of M.O.s used for correlation:     1    24
 NBasis=    24 NAE=     8 NBE=     8 NFC=     0 NFV=     0
 NROrb=     24 NOA=     8 NOB=     8 NVA=    16 NVB=    16
 Leave Link  801 at Sun Dec 10 06:50:01 2023, MaxMem=   536870912 cpu:               0.1 elap:               0.0
 (Enter /usr/site/hpc/x86_64/glibc-2.17/broadwell/gaussian/g16_a.03/pgi-16.5/g16/l804.exe)
 Closed-shell transformation, MDV=   536870912 ITran=4 ISComp=2.
 Unit  1 TFree=       1025975 TCopy=        210600.
 Semi-Direct transformation.
 ModeAB=           2 MOrb=             8 LenV=     536741760
 LASXX=        22470 LTotXX=       22470 LenRXX=       22470
 LTotAB=       26208 MaxLAS=       57600 LenRXY=       57600
 NonZer=       62208 LenScr=      524288 LnRSAI=           0
 LnScr1=           0 LExtra=           0 Total=       604358
 MaxDsk=          -1 SrtSym=           F ITran=            4
 DoSDTr:  NPSUse=  4
 JobTyp=0 Pass  1:  I=   1 to   8.
 (rs|ai) integrals will be sorted in core.
 Complete sort for first half transformation.
 First half transformation complete.
 Complete sort for second half transformation.
 Second half transformation complete.
 Spin components of T(2) and E(2):
     alpha-alpha T2 =       0.9077887588D-02 E2=     -0.2604591202D-01
     alpha-beta  T2 =       0.5954125776D-01 E2=     -0.1765520170D+00
     beta-beta   T2 =       0.9077887588D-02 E2=     -0.2604591202D-01
 ANorm=    0.1038121878D+01
 E2 =    -0.2286438410D+00 EUMP2 =    -0.33888282778195D+02
 Leave Link  804 at Sun Dec 10 06:50:01 2023, MaxMem=   536870912 cpu:               0.2 elap:               0.1
 (Enter /usr/site/hpc/x86_64/glibc-2.17/broadwell/gaussian/g16_a.03/pgi-16.5/g16/l913.exe)
 CIDS:  MDV=   536870912.
 IFCWin=0 IBDFC=1 NFBD=     0     0 NFCmp=     0     0 NFFFC=     0     0
 Using DD3R+UMP44R for 1st iteration.
 Using DD4RQ for 2nd and later iterations.
 Keep R2 and R3 ints in memory in symmetry-blocked form, NReq=865128.
 FoFCou: FMM=F IPFlag=           0 FMFlag=           0 FMFlg1=           0
         NFxFlg=           0 DoJE=F BraDBF=F KetDBF=F FulRan=T
         wScrn=  0.000000 ICntrl=       600 IOpCl=  0 I1Cent=           0 NGrid=           0
         NMat0=    1 NMatS0=    300 NMatT0=    0 NMatD0=    1 NMtDS0=    0 NMtDT0=    0
 Petite list used in FoFCou.
 CIDS: In Core Option IDoMem=           1.
 CCSD(T)
 =======
 Iterations=  50 Convergence= 0.100D-06
 Produce multiple copies of IABC intergrals
 Iteration Nr.   1
 **********************
 DD1Dir will call FoFMem   1 times, MxPair=        72
 NAB=    36 NAA=     0 NBB=     0.
 MP4(R+Q)= -0.73674205D-03
 Maximum subspace dimension=  5
 A-vector RMS=  5.8735731D-03 Max=  1.2649482D-02 conv= 1.00D-05.
 RLE energy=       -0.2345189483
 E3=       -0.52670585D-02        EUMP3=      -0.33893549837D+02
 E4(DQ)=   -0.58461198D-02        UMP4(DQ)=   -0.33899395956D+02
 E4(SDQ)=  -0.79532191D-02        UMP4(SDQ)=  -0.33901503056D+02
 VARIATIONAL ENERGIES WITH THE FIRST-ORDER WAVEFUNCTION:
 DE(Corr)= -0.23437211     E(Corr)=     -33.894011045    
 NORM(A)=   0.10414991D+01
 Iteration Nr.   2
 **********************
 DD1Dir will call FoFMem   1 times, MxPair=        72
 NAB=    36 NAA=     0 NBB=     0.
 A-vector RMS=  9.6649086D-04 Max=  2.6627087D-03 conv= 1.00D-05.
 RLE energy=       -0.2422849691
 DE(Corr)= -0.24037041     E(CORR)=     -33.900009346     Delta=-6.00D-03
 NORM(A)=   0.10452677D+01
 Iteration Nr.   3
 **********************
 DD1Dir will call FoFMem   1 times, MxPair=        72
 NAB=    36 NAA=     0 NBB=     0.
 A-vector RMS=  3.8252937D-04 Max=  8.1998926D-04 conv= 1.00D-05.
 RLE energy=       -0.2428304732
 DE(Corr)= -0.24238317     E(CORR)=     -33.902022106     Delta=-2.01D-03
 NORM(A)=   0.10458171D+01
 Iteration Nr.   4
 **********************
 DD1Dir will call FoFMem   1 times, MxPair=        72
 NAB=    36 NAA=     0 NBB=     0.
 A-vector RMS=  9.0914140D-05 Max=  2.2494166D-04 conv= 1.00D-05.
 RLE energy=       -0.2428785129
 DE(Corr)= -0.24284346     E(CORR)=     -33.902482399     Delta=-4.60D-04
 NORM(A)=   0.10458849D+01
 Iteration Nr.   5
 **********************
 DD1Dir will call FoFMem   1 times, MxPair=        72
 NAB=    36 NAA=     0 NBB=     0.
 A-vector RMS=  3.9117943D-05 Max=  1.2489059D-04 conv= 1.00D-05.
 RLE energy=       -0.2428780252
 DE(Corr)= -0.24287518     E(CORR)=     -33.902514120     Delta=-3.17D-05
 NORM(A)=   0.10458932D+01
 Iteration Nr.   6
 **********************
 DD1Dir will call FoFMem   1 times, MxPair=        72
 NAB=    36 NAA=     0 NBB=     0.
 A-vector RMS=  1.4303449D-05 Max=  4.8582427D-05 conv= 1.00D-05.
 RLE energy=       -0.2428751594
 DE(Corr)= -0.24287780     E(CORR)=     -33.902516739     Delta=-2.62D-06
 NORM(A)=   0.10458952D+01
 Iteration Nr.   7
 **********************
 DD1Dir will call FoFMem   1 times, MxPair=        72
 NAB=    36 NAA=     0 NBB=     0.
 A-vector RMS=  5.1146951D-06 Max=  1.7043984D-05 conv= 1.00D-05.
 RLE energy=       -0.2428769124
 DE(Corr)= -0.24287741     E(CORR)=     -33.902516352     Delta= 3.87D-07
 NORM(A)=   0.10458967D+01
 Iteration Nr.   8
 **********************
 DD1Dir will call FoFMem   1 times, MxPair=        72
 NAB=    36 NAA=     0 NBB=     0.
 A-vector RMS=  1.7156164D-06 Max=  6.4820312D-06 conv= 1.00D-05.
 RLE energy=       -0.2428769771
 DE(Corr)= -0.24287711     E(CORR)=     -33.902516046     Delta= 3.06D-07
 NORM(A)=   0.10458972D+01
 Iteration Nr.   9
 **********************
 DD1Dir will call FoFMem   1 times, MxPair=        72
 NAB=    36 NAA=     0 NBB=     0.
 A-vector RMS=  4.9771080D-07 Max=  1.9601922D-06 conv= 1.00D-05.
 RLE energy=       -0.2428771777
 DE(Corr)= -0.24287722     E(CORR)=     -33.902516162     Delta=-1.16D-07
 NORM(A)=   0.10458975D+01
 Iteration Nr.  10
 **********************
 DD1Dir will call FoFMem   1 times, MxPair=        72
 NAB=    36 NAA=     0 NBB=     0.
 A-vector RMS=  1.3646919D-07 Max=  4.7913866D-07 conv= 1.00D-05.
 RLE energy=       -0.2428773340
 DE(Corr)= -0.24287731     E(CORR)=     -33.902516243     Delta=-8.12D-08
 NORM(A)=   0.10458976D+01
 CI/CC converged in   10 iterations to DelEn=-8.12D-08 Conv= 1.00D-07 ErrA1= 1.36D-07 Conv= 1.00D-05
 Wavefunction amplitudes converged. E(Corr)=     -33.902516243    
 Largest amplitude= 5.04D-02
 IPart=  3 IA=    2   12.50% done.
 IPart=  2 IA=    3   24.17% done.
 IPart=  4 IA=    4   35.00% done.
 IPart=  4 IA=    5   45.00% done.
 IPart=  3 IA=    6   54.17% done.
 IPart=  2 IA=    7   62.50% done.
 IPart=  1 IA=    8   70.00% done.
 IPart=  1 IA=   10   82.50% done.
 IPart=  4 IA=   12   91.67% done.
 Time for triples=        0.24 seconds.
 T4(CCSD)= -0.31908479D-02
 T5(CCSD)=  0.53997540D-03
 CCSD(T)= -0.33905167116D+02
 Discarding MO integrals.
 Leave Link  913 at Sun Dec 10 06:50:02 2023, MaxMem=   536870912 cpu:               1.0 elap:               0.3
 (Enter /usr/site/hpc/x86_64/glibc-2.17/broadwell/gaussian/g16_a.03/pgi-16.5/g16/l601.exe)
 Copying SCF densities to generalized density rwf, IOpCl= 0 IROHF=0.

 **********************************************************************

            Population analysis using the SCF density.

 **********************************************************************

 Orbital symmetries:
       Occupied  (A') (A') (A') (A') (A') (A') (A") (A")
       Virtual   (A') (A') (A') (A') (A") (A') (A") (A') (A') (A')
                 (A') (A') (A') (A') (A') (A')
 The electronic state is 1-A'.
 Alpha  occ. eigenvalues --   -1.37729  -1.33086  -0.73485  -0.68817  -0.58065
 Alpha  occ. eigenvalues --   -0.52927  -0.52390  -0.47769
 Alpha virt. eigenvalues --    0.17679   0.24751   0.28754   0.37112   0.77482
 Alpha virt. eigenvalues --    0.81210   0.83464   0.86120   0.88306   1.00553
 Alpha virt. eigenvalues --    1.15729   1.18854   1.21168   1.37532   2.51823
 Alpha virt. eigenvalues --    3.01171
          Condensed to atoms (all electrons):
               1          2          3          4          5          6
     1  O    6.239299   0.273444   0.264864  -0.002218   0.000208   0.000033
     2  H    0.273444   0.342790  -0.023126   0.001212  -0.000211   0.000121
     3  H    0.264864  -0.023126   0.391681   0.000181  -0.000004  -0.000002
     4  O   -0.002218   0.001212   0.000181   6.241699   0.264333   0.270446
     5  H    0.000208  -0.000211  -0.000004   0.264333   0.372767  -0.021707
     6  H    0.000033   0.000121  -0.000002   0.270446  -0.021707   0.356615
 Mulliken charges:
               1
     1  O   -0.775630
     2  H    0.405771
     3  H    0.366406
     4  O   -0.775653
     5  H    0.384613
     6  H    0.394493
 Sum of Mulliken charges =  -0.00000
 Mulliken charges with hydrogens summed into heavy atoms:
               1
     1  O   -0.003454
     4  O    0.003454
 Electronic spatial extent (au):  <R**2>=            200.5630
 Charge=             -0.0000 electrons
 Dipole moment (field-independent basis, Debye):
    X=             -0.6096    Y=              3.9911    Z=              0.0000  Tot=              4.0374
 Quadrupole moment (field-independent basis, Debye-Ang):
   XX=             -9.8530   YY=             -8.4626   ZZ=            -15.0038
   XY=              6.2653   XZ=              0.0000   YZ=              0.0000
 Traceless Quadrupole moment (field-independent basis, Debye-Ang):
   XX=              1.2534   YY=              2.6438   ZZ=             -3.8973
   XY=              6.2653   XZ=              0.0000   YZ=              0.0000
 Octapole moment (field-independent basis, Debye-Ang**2):
  XXX=              0.1653  YYY=             33.8056  ZZZ=              0.0000  XYY=             -9.2881
  XXY=              1.3702  XXZ=              0.0000  XZZ=             -0.1139  YZZ=              0.8111
  YYZ=              0.0000  XYZ=              0.0000
 Hexadecapole moment (field-independent basis, Debye-Ang**3):
 XXXX=            -11.3013 YYYY=           -177.0880 ZZZZ=            -12.2513 XXXY=              3.2096
 XXXZ=              0.0000 YYYX=             14.7363 YYYZ=              0.0000 ZZZX=              0.0000
 ZZZY=              0.0000 XXYY=            -30.3663 XXZZ=             -4.5265 YYZZ=            -46.6990
 XXYZ=              0.0000 YYXZ=              0.0000 ZZXY=             -0.8218
 N-N= 2.374111671596D+01 E-N=-1.291123229086D+02  KE= 2.679615336176D+01
 Symmetry A'   KE= 1.793164548667D+01
 Symmetry A"   KE= 8.864507875099D+00
 Leave Link  601 at Sun Dec 10 06:50:02 2023, MaxMem=   536870912 cpu:               0.1 elap:               0.0
 (Enter /usr/site/hpc/x86_64/glibc-2.17/broadwell/gaussian/g16_a.03/pgi-16.5/g16/l9999.exe)
 1\1\GINC-N044\SP\RCCSD(T)-FC\CEP-31G\H4O2\ROOT\10-Dec-2023\0\\#p CCSD(
 T)/CEP-31G\\H2O_H2O_1649\\0,1\O,0,0.,-0.009833,0.\H,0,-0.799571,-0.580
 965,0.\H,0,0.799571,-0.580965,0.\O,0,-2.725496,-1.939792,0.\H,0,-3.296
 628,-1.140221,0.\H,0,-3.296628,-2.739363,0.\\Version=ES64L-G16RevA.03\
 State=1-A'\HF=-33.6596389\MP2=-33.8882828\MP3=-33.8935498\MP4D=-33.898
 6592\MP4DQ=-33.899396\MP4SDQ=-33.9015031\CCSD=-33.9025162\CCSD(T)=-33.
 9051671\RMSD=9.679e-10\PG=CS [SG(H4O2)]\\@


 HONESTY IN A LAWYER IS LIKE A HEN'S HIND LEGS.
  -- MAGNUS OLESON, LAKE WOBEGON PATRIARCH, C.1875
 Job cpu time:       0 days  0 hours  0 minutes  3.4 seconds.
 Elapsed time:       0 days  0 hours  0 minutes  1.1 seconds.
 File lengths (MBytes):  RWF=     72 Int=      0 D2E=      0 Chk=      8 Scr=      8
 Normal termination of Gaussian 16 at Sun Dec 10 06:50:02 2023.
