 Entering Gaussian System, Link 0=g16
 Input=H2O_H2O_4860.com
 Output=H2O_H2O_4860.log
 Initial command:
 /usr/site/hpc/x86_64/glibc-2.17/broadwell/gaussian/g16_a.03/pgi-16.5/g16/l1.exe "/gpfs/gpfs1/scratch/c7441090/OH Coord/Gau-1330578.inp" -scrdir="/gpfs/gpfs1/scratch/c7441090/OH Coord/"
 Entering Link 1 = /usr/site/hpc/x86_64/glibc-2.17/broadwell/gaussian/g16_a.03/pgi-16.5/g16/l1.exe PID=   1330579.
  
 Copyright (c) 1988,1990,1992,1993,1995,1998,2003,2009,2016,
            Gaussian, Inc.  All Rights Reserved.
  
 This is part of the Gaussian(R) 16 program.  It is based on
 the Gaussian(R) 09 system (copyright 2009, Gaussian, Inc.),
 the Gaussian(R) 03 system (copyright 2003, Gaussian, Inc.),
 the Gaussian(R) 98 system (copyright 1998, Gaussian, Inc.),
 the Gaussian(R) 94 system (copyright 1995, Gaussian, Inc.),
 the Gaussian 92(TM) system (copyright 1992, Gaussian, Inc.),
 the Gaussian 90(TM) system (copyright 1990, Gaussian, Inc.),
 the Gaussian 88(TM) system (copyright 1988, Gaussian, Inc.),
 the Gaussian 86(TM) system (copyright 1986, Carnegie Mellon
 University), and the Gaussian 82(TM) system (copyright 1983,
 Carnegie Mellon University). Gaussian is a federally registered
 trademark of Gaussian, Inc.
  
 This software contains proprietary and confidential information,
 including trade secrets, belonging to Gaussian, Inc.
  
 This software is provided under written license and may be
 used, copied, transmitted, or stored only in accord with that
 written license.
  
 The following legend is applicable only to US Government
 contracts under FAR:
  
                    RESTRICTED RIGHTS LEGEND
  
 Use, reproduction and disclosure by the US Government is
 subject to restrictions as set forth in subparagraphs (a)
 and (c) of the Commercial Computer Software - Restricted
 Rights clause in FAR 52.227-19.
  
 Gaussian, Inc.
 340 Quinnipiac St., Bldg. 40, Wallingford CT 06492
  
  
 ---------------------------------------------------------------
 Warning -- This program may not be used in any manner that
 competes with the business of Gaussian, Inc. or will provide
 assistance to any competitor of Gaussian, Inc.  The licensee
 of this program is prohibited from giving any competitor of
 Gaussian, Inc. access to this program.  By using this program,
 the user acknowledges that Gaussian, Inc. is engaged in the
 business of creating and licensing software in the field of
 computational chemistry and represents and warrants to the
 licensee that it is not a competitor of Gaussian, Inc. and that
 it will not use this program in any manner prohibited above.
 ---------------------------------------------------------------
  

 Cite this work as:
 Gaussian 16, Revision A.03,
 M. J. Frisch, G. W. Trucks, H. B. Schlegel, G. E. Scuseria, 
 M. A. Robb, J. R. Cheeseman, G. Scalmani, V. Barone, 
 G. A. Petersson, H. Nakatsuji, X. Li, M. Caricato, A. V. Marenich, 
 J. Bloino, B. G. Janesko, R. Gomperts, B. Mennucci, H. P. Hratchian, 
 J. V. Ortiz, A. F. Izmaylov, J. L. Sonnenberg, D. Williams-Young, 
 F. Ding, F. Lipparini, F. Egidi, J. Goings, B. Peng, A. Petrone, 
 T. Henderson, D. Ranasinghe, V. G. Zakrzewski, J. Gao, N. Rega, 
 G. Zheng, W. Liang, M. Hada, M. Ehara, K. Toyota, R. Fukuda, 
 J. Hasegawa, M. Ishida, T. Nakajima, Y. Honda, O. Kitao, H. Nakai, 
 T. Vreven, K. Throssell, J. A. Montgomery, Jr., J. E. Peralta, 
 F. Ogliaro, M. J. Bearpark, J. J. Heyd, E. N. Brothers, K. N. Kudin, 
 V. N. Staroverov, T. A. Keith, R. Kobayashi, J. Normand, 
 K. Raghavachari, A. P. Rendell, J. C. Burant, S. S. Iyengar, 
 J. Tomasi, M. Cossi, J. M. Millam, M. Klene, C. Adamo, R. Cammi, 
 J. W. Ochterski, R. L. Martin, K. Morokuma, O. Farkas, 
 J. B. Foresman, and D. J. Fox, Gaussian, Inc., Wallingford CT, 2016.
 
 ******************************************
 Gaussian 16:  ES64L-G16RevA.03 25-Dec-2016
                10-Dec-2023 
 ******************************************
 %NProcShared=4
 Will use up to    4 processors via shared memory.
 %Mem=4GB
 %Chk=H2O_H2O_4860.chk
 ------------------
 #p CCSD(T)/CEP-31G
 ------------------
 1/38=1,172=1/1;
 2/12=2,17=6,18=5,40=1/2;
 3/5=9,6=1,11=9,25=1,30=1/1,2,3;
 4//1;
 5/5=2,38=5/2;
 8/6=4,9=120000,10=1/1,4;
 9/5=7,14=2/13;
 6/7=2,8=2,9=2,10=2/1;
 99/5=1,9=1/99;
 Leave Link    1 at Sun Dec 10 07:00:42 2023, MaxMem=   536870912 cpu:               0.6 elap:               0.2
 (Enter /usr/site/hpc/x86_64/glibc-2.17/broadwell/gaussian/g16_a.03/pgi-16.5/g16/l101.exe)
 ------------
 H2O_H2O_4860
 ------------
 Symbolic Z-matrix:
 Charge =  0 Multiplicity = 1
 O                     0.       -0.00983   0. 
 H                    -0.79957  -0.58097   0. 
 H                     0.79957  -0.58097   0. 
 O                    -4.81518  -3.443     0. 
 H                    -5.7972   -3.40936   0. 
 H                    -4.52852  -4.38285   0. 
 
 ITRead=  0  0  0  0  0  0
 MicOpt= -1 -1 -1 -1 -1 -1
 NAtoms=      6 NQM=        6 NQMF=       0 NMMI=      0 NMMIF=      0
                NMic=       0 NMicF=      0.
                    Isotopes and Nuclear Properties:
 (Nuclear quadrupole moments (NQMom) in fm**2, nuclear magnetic moments (NMagM)
  in nuclear magnetons)

  Atom         1           2           3           4           5           6
 IAtWgt=          16           1           1          16           1           1
 AtmWgt=  15.9949146   1.0078250   1.0078250  15.9949146   1.0078250   1.0078250
 NucSpn=           0           1           1           0           1           1
 AtZEff=  -0.0000000  -0.0000000  -0.0000000  -0.0000000  -0.0000000  -0.0000000
 NQMom=    0.0000000   0.0000000   0.0000000   0.0000000   0.0000000   0.0000000
 NMagM=    0.0000000   2.7928460   2.7928460   0.0000000   2.7928460   2.7928460
 AtZNuc=   8.0000000   1.0000000   1.0000000   8.0000000   1.0000000   1.0000000
 Leave Link  101 at Sun Dec 10 07:00:42 2023, MaxMem=   536870912 cpu:               0.3 elap:               0.1
 (Enter /usr/site/hpc/x86_64/glibc-2.17/broadwell/gaussian/g16_a.03/pgi-16.5/g16/l202.exe)
                          Input orientation:                          
 ---------------------------------------------------------------------
 Center     Atomic      Atomic             Coordinates (Angstroms)
 Number     Number       Type             X           Y           Z
 ---------------------------------------------------------------------
      1          8           0        0.000000   -0.009833    0.000000
      2          1           0       -0.799571   -0.580965    0.000000
      3          1           0        0.799571   -0.580965    0.000000
      4          8           0       -4.815177   -3.442995    0.000000
      5          1           0       -5.797203   -3.409357    0.000000
      6          1           0       -4.528518   -4.382853    0.000000
 ---------------------------------------------------------------------
                    Distance matrix (angstroms):
                    1          2          3          4          5
     1  O    0.000000
     2  H    0.982601   0.000000
     3  H    0.982601   1.599142   0.000000
     4  O    5.913758   4.931157   6.302112   0.000000
     5  H    6.720441   5.742484   7.177550   0.982602   0.000000
     6  H    6.295298   5.325354   6.545448   0.982602   1.599142
                    6
     6  H    0.000000
 Stoichiometry    H4O2
 Framework group  CS[SG(H4O2)]
 Deg. of freedom     9
 Full point group                 CS      NOp   2
 Largest Abelian subgroup         CS      NOp   2
 Largest concise Abelian subgroup C1      NOp   1
                         Standard orientation:                         
 ---------------------------------------------------------------------
 Center     Atomic      Atomic             Coordinates (Angstroms)
 Number     Number       Type             X           Y           Z
 ---------------------------------------------------------------------
      1          8           0        0.063213    3.044650   -0.000000
      2          1           0        0.062360    2.062049   -0.000000
      3          1           0       -0.866003    3.364123    0.000000
      4          8           0        0.063213   -2.869108   -0.000000
      5          1           0        0.660706   -3.649178   -0.000000
      6          1           0       -0.868467   -3.181324    0.000000
 ---------------------------------------------------------------------
 Rotational constants (GHZ):         247.3868961           1.5832044           1.5731368
 Leave Link  202 at Sun Dec 10 07:00:42 2023, MaxMem=   536870912 cpu:               0.0 elap:               0.0
 (Enter /usr/site/hpc/x86_64/glibc-2.17/broadwell/gaussian/g16_a.03/pgi-16.5/g16/l301.exe)
 Standard basis: CEP-31G (6D, 10F)
 Ernie: Thresh=  0.10000D-02 Tol=  0.10000D-05 Strict=F.
 There are    20 symmetry adapted cartesian basis functions of A'  symmetry.
 There are     4 symmetry adapted cartesian basis functions of A"  symmetry.
 There are    20 symmetry adapted basis functions of A'  symmetry.
 There are     4 symmetry adapted basis functions of A"  symmetry.
    24 basis functions,    48 primitive gaussians,    24 cartesian basis functions
     8 alpha electrons        8 beta electrons
       nuclear repulsion energy        19.2789061497 Hartrees.
 IExCor=    0 DFT=F Ex=HF Corr=None ExCW=0 ScaHFX=  1.000000
 ScaDFX=  1.000000  1.000000  1.000000  1.000000 ScalE2=  1.000000  1.000000
 IRadAn=      5 IRanWt=     -1 IRanGd=            0 ICorTp=0 IEmpDi=  4
 NAtoms=    6 NActive=    6 NUniq=    6 SFac= 1.00D+00 NAtFMM=   60 NAOKFM=F Big=F
 Integral buffers will be    131072 words long.
 Raffenetti 1 integral format.
 Two-electron integral symmetry is turned on.
 Leave Link  301 at Sun Dec 10 07:00:42 2023, MaxMem=   536870912 cpu:               0.2 elap:               0.1
 (Enter /usr/site/hpc/x86_64/glibc-2.17/broadwell/gaussian/g16_a.03/pgi-16.5/g16/l302.exe)
 NPDir=0 NMtPBC=     1 NCelOv=     1 NCel=       1 NClECP=     1 NCelD=      1
         NCelK=      1 NCelE2=     1 NClLst=     1 CellRange=     0.0.
 One-electron integrals computed using PRISM.
 One-electron integral symmetry used in STVInt
   2 Symmetry operations used in ECPInt.
 ECPInt:  NShTT=      78 NPrTT=     318 LenC2=      78 LenP2D=     248.
 LDataN:  DoStor=T MaxTD1= 2 Len=   12
 NBasis=    24 RedAO= T EigKep=  3.86D-02  NBF=    20     4
 NBsUse=    24 1.00D-06 EigRej= -1.00D+00 NBFU=    20     4
 Leave Link  302 at Sun Dec 10 07:00:43 2023, MaxMem=   536870912 cpu:               0.3 elap:               0.1
 (Enter /usr/site/hpc/x86_64/glibc-2.17/broadwell/gaussian/g16_a.03/pgi-16.5/g16/l303.exe)
 DipDrv:  MaxL=1.
 Leave Link  303 at Sun Dec 10 07:00:43 2023, MaxMem=   536870912 cpu:               0.1 elap:               0.0
 (Enter /usr/site/hpc/x86_64/glibc-2.17/broadwell/gaussian/g16_a.03/pgi-16.5/g16/l401.exe)
 ExpMin= 1.78D-01 ExpMax= 1.92D+01 ExpMxC= 1.92D+01 IAcc=3 IRadAn=         5 AccDes= 0.00D+00
 Harris functional with IExCor=  205 and IRadAn=       5 diagonalized for initial guess.
 HarFok:  IExCor=  205 AccDes= 0.00D+00 IRadAn=         5 IDoV= 1 UseB2=F ITyADJ=14
 ICtDFT=  3500011 ScaDFX=  1.000000  1.000000  1.000000  1.000000
 FoFCou: FMM=F IPFlag=           0 FMFlag=      100000 FMFlg1=           0
         NFxFlg=           0 DoJE=T BraDBF=F KetDBF=T FulRan=T
         wScrn=  0.000000 ICntrl=       500 IOpCl=  0 I1Cent=   200000004 NGrid=           0
         NMat0=    1 NMatS0=      1 NMatT0=    0 NMatD0=    1 NMtDS0=    0 NMtDT0=    0
 Petite list used in FoFCou.
 Harris En= -34.4763643739461    
 JPrj=0 DoOrth=F DoCkMO=F.
 Initial guess orbital symmetries:
       Occupied  (A') (A') (A') (A') (A') (A') (A") (A")
       Virtual   (A') (A') (A') (A') (A") (A") (A') (A') (A') (A')
                 (A') (A') (A') (A') (A') (A')
 The electronic state of the initial guess is 1-A'.
 Leave Link  401 at Sun Dec 10 07:00:43 2023, MaxMem=   536870912 cpu:               0.4 elap:               0.1
 (Enter /usr/site/hpc/x86_64/glibc-2.17/broadwell/gaussian/g16_a.03/pgi-16.5/g16/l502.exe)
 Keep R1 ints in memory in symmetry-blocked form, NReq=851878.
 FoFCou: FMM=F IPFlag=           0 FMFlag=           0 FMFlg1=           0
         NFxFlg=           0 DoJE=F BraDBF=F KetDBF=F FulRan=T
         wScrn=  0.000000 ICntrl=       600 IOpCl=  0 I1Cent=           0 NGrid=           0
         NMat0=    1 NMatS0=    300 NMatT0=    0 NMatD0=    1 NMtDS0=    0 NMtDT0=    0
 Petite list used in FoFCou.
 Closed shell SCF:
 Using DIIS extrapolation, IDIIS=  1040.
 NGot=   536870912 LenX=   536840576 LenY=   536839559
 Requested convergence on RMS density matrix=1.00D-08 within 128 cycles.
 Requested convergence on MAX density matrix=1.00D-06.
 Requested convergence on             energy=1.00D-06.
 No special actions if energy rises.

 Cycle   1  Pass 1  IDiag  1:
 E= -33.5590868401609    
 DIIS: error= 6.85D-02 at cycle   1 NSaved=   1.
 NSaved= 1 IEnMin= 1 EnMin= -33.5590868401609     IErMin= 1 ErrMin= 6.85D-02
 ErrMax= 6.85D-02  0.00D+00 EMaxC= 1.00D-01 BMatC= 1.02D-01 BMatP= 1.02D-01
 IDIUse=3 WtCom= 3.15D-01 WtEn= 6.85D-01
 Coeff-Com:  0.100D+01
 Coeff-En:   0.100D+01
 Coeff:      0.100D+01
 Gap=     0.605 Goal=   None    Shift=    0.000
 GapD=    0.605 DampG=2.000 DampE=0.500 DampFc=1.0000 IDamp=-1.
 RMSDP=1.48D-02 MaxDP=1.17D-01              OVMax= 9.85D-02

 Cycle   2  Pass 1  IDiag  1:
 E= -33.6215629548401     Delta-E=       -0.062476114679 Rises=F Damp=F
 DIIS: error= 3.72D-02 at cycle   2 NSaved=   2.
 NSaved= 2 IEnMin= 2 EnMin= -33.6215629548401     IErMin= 2 ErrMin= 3.72D-02
 ErrMax= 3.72D-02  0.00D+00 EMaxC= 1.00D-01 BMatC= 3.80D-02 BMatP= 1.02D-01
 IDIUse=3 WtCom= 6.28D-01 WtEn= 3.72D-01
 Coeff-Com:  0.377D+00 0.623D+00
 Coeff-En:   0.109D+00 0.891D+00
 Coeff:      0.277D+00 0.723D+00
 Gap=     0.696 Goal=   None    Shift=    0.000
 RMSDP=6.38D-03 MaxDP=5.40D-02 DE=-6.25D-02 OVMax= 3.56D-02

 Cycle   3  Pass 1  IDiag  1:
 E= -33.6519483422247     Delta-E=       -0.030385387385 Rises=F Damp=F
 DIIS: error= 7.11D-03 at cycle   3 NSaved=   3.
 NSaved= 3 IEnMin= 3 EnMin= -33.6519483422247     IErMin= 3 ErrMin= 7.11D-03
 ErrMax= 7.11D-03  0.00D+00 EMaxC= 1.00D-01 BMatC= 8.86D-04 BMatP= 3.80D-02
 IDIUse=3 WtCom= 9.29D-01 WtEn= 7.11D-02
 Coeff-Com: -0.114D+00-0.169D-01 0.113D+01
 Coeff-En:   0.000D+00 0.000D+00 0.100D+01
 Coeff:     -0.106D+00-0.157D-01 0.112D+01
 Gap=     0.688 Goal=   None    Shift=    0.000
 RMSDP=1.06D-03 MaxDP=9.09D-03 DE=-3.04D-02 OVMax= 7.98D-03

 Cycle   4  Pass 1  IDiag  1:
 E= -33.6528307788937     Delta-E=       -0.000882436669 Rises=F Damp=F
 DIIS: error= 7.43D-04 at cycle   4 NSaved=   4.
 NSaved= 4 IEnMin= 4 EnMin= -33.6528307788937     IErMin= 4 ErrMin= 7.43D-04
 ErrMax= 7.43D-04  0.00D+00 EMaxC= 1.00D-01 BMatC= 5.74D-06 BMatP= 8.86D-04
 IDIUse=3 WtCom= 9.93D-01 WtEn= 7.43D-03
 Coeff-Com:  0.439D-01-0.173D-01-0.529D+00 0.150D+01
 Coeff-En:   0.000D+00 0.000D+00 0.000D+00 0.100D+01
 Coeff:      0.435D-01-0.171D-01-0.525D+00 0.150D+01
 Gap=     0.690 Goal=   None    Shift=    0.000
 RMSDP=2.33D-04 MaxDP=2.00D-03 DE=-8.82D-04 OVMax= 9.45D-04

 Cycle   5  Pass 1  IDiag  1:
 E= -33.6528435992250     Delta-E=       -0.000012820331 Rises=F Damp=F
 DIIS: error= 4.89D-05 at cycle   5 NSaved=   5.
 NSaved= 5 IEnMin= 5 EnMin= -33.6528435992250     IErMin= 5 ErrMin= 4.89D-05
 ErrMax= 4.89D-05  0.00D+00 EMaxC= 1.00D-01 BMatC= 3.65D-08 BMatP= 5.74D-06
 IDIUse=1 WtCom= 1.00D+00 WtEn= 0.00D+00
 Coeff-Com: -0.707D-02 0.313D-02 0.865D-01-0.293D+00 0.121D+01
 Coeff:     -0.707D-02 0.313D-02 0.865D-01-0.293D+00 0.121D+01
 Gap=     0.690 Goal=   None    Shift=    0.000
 RMSDP=1.54D-05 MaxDP=1.45D-04 DE=-1.28D-05 OVMax= 9.79D-05

 Cycle   6  Pass 1  IDiag  1:
 E= -33.6528436892285     Delta-E=       -0.000000090004 Rises=F Damp=F
 DIIS: error= 1.06D-05 at cycle   6 NSaved=   6.
 NSaved= 6 IEnMin= 6 EnMin= -33.6528436892285     IErMin= 6 ErrMin= 1.06D-05
 ErrMax= 1.06D-05  0.00D+00 EMaxC= 1.00D-01 BMatC= 2.03D-09 BMatP= 3.65D-08
 IDIUse=1 WtCom= 1.00D+00 WtEn= 0.00D+00
 Coeff-Com:  0.129D-02-0.459D-03-0.153D-01 0.578D-01-0.407D+00 0.136D+01
 Coeff:      0.129D-02-0.459D-03-0.153D-01 0.578D-01-0.407D+00 0.136D+01
 Gap=     0.690 Goal=   None    Shift=    0.000
 RMSDP=3.82D-06 MaxDP=3.42D-05 DE=-9.00D-08 OVMax= 3.36D-05

 Cycle   7  Pass 1  IDiag  1:
 E= -33.6528436948445     Delta-E=       -0.000000005616 Rises=F Damp=F
 DIIS: error= 2.15D-06 at cycle   7 NSaved=   7.
 NSaved= 7 IEnMin= 7 EnMin= -33.6528436948445     IErMin= 7 ErrMin= 2.15D-06
 ErrMax= 2.15D-06  0.00D+00 EMaxC= 1.00D-01 BMatC= 1.03D-10 BMatP= 2.03D-09
 IDIUse=1 WtCom= 1.00D+00 WtEn= 0.00D+00
 Coeff-Com:  0.178D-03-0.119D-03-0.228D-02 0.608D-02 0.210D-01-0.285D+00
 Coeff-Com:  0.126D+01
 Coeff:      0.178D-03-0.119D-03-0.228D-02 0.608D-02 0.210D-01-0.285D+00
 Coeff:      0.126D+01
 Gap=     0.690 Goal=   None    Shift=    0.000
 RMSDP=9.84D-07 MaxDP=5.86D-06 DE=-5.62D-09 OVMax= 8.40D-06

 Cycle   8  Pass 1  IDiag  1:
 E= -33.6528436951092     Delta-E=       -0.000000000265 Rises=F Damp=F
 DIIS: error= 5.34D-07 at cycle   8 NSaved=   8.
 NSaved= 8 IEnMin= 8 EnMin= -33.6528436951092     IErMin= 8 ErrMin= 5.34D-07
 ErrMax= 5.34D-07  0.00D+00 EMaxC= 1.00D-01 BMatC= 1.25D-11 BMatP= 1.03D-10
 IDIUse=1 WtCom= 1.00D+00 WtEn= 0.00D+00
 Coeff-Com: -0.491D-06-0.210D-04-0.485D-04-0.733D-03 0.277D-01-0.161D+00
 Coeff-Com:  0.361D+00 0.774D+00
 Coeff:     -0.491D-06-0.210D-04-0.485D-04-0.733D-03 0.277D-01-0.161D+00
 Coeff:      0.361D+00 0.774D+00
 Gap=     0.690 Goal=   None    Shift=    0.000
 RMSDP=2.11D-07 MaxDP=1.43D-06 DE=-2.65D-10 OVMax= 1.73D-06

 Cycle   9  Pass 1  IDiag  1:
 E= -33.6528436951259     Delta-E=       -0.000000000017 Rises=F Damp=F
 DIIS: error= 1.73D-07 at cycle   9 NSaved=   9.
 NSaved= 9 IEnMin= 9 EnMin= -33.6528436951259     IErMin= 9 ErrMin= 1.73D-07
 ErrMax= 1.73D-07  0.00D+00 EMaxC= 1.00D-01 BMatC= 6.68D-13 BMatP= 1.25D-11
 IDIUse=1 WtCom= 1.00D+00 WtEn= 0.00D+00
 Coeff-Com:  0.387D-05 0.653D-05-0.166D-04 0.407D-03-0.121D-01 0.737D-01
 Coeff-Com: -0.214D+00-0.191D+00 0.134D+01
 Coeff:      0.387D-05 0.653D-05-0.166D-04 0.407D-03-0.121D-01 0.737D-01
 Coeff:     -0.214D+00-0.191D+00 0.134D+01
 Gap=     0.690 Goal=   None    Shift=    0.000
 RMSDP=1.15D-07 MaxDP=5.06D-07 DE=-1.67D-11 OVMax= 7.86D-07

 Cycle  10  Pass 1  IDiag  1:
 E= -33.6528436951276     Delta-E=       -0.000000000002 Rises=F Damp=F
 DIIS: error= 8.51D-09 at cycle  10 NSaved=  10.
 NSaved=10 IEnMin=10 EnMin= -33.6528436951276     IErMin=10 ErrMin= 8.51D-09
 ErrMax= 8.51D-09  0.00D+00 EMaxC= 1.00D-01 BMatC= 2.84D-15 BMatP= 6.68D-13
 IDIUse=1 WtCom= 1.00D+00 WtEn= 0.00D+00
 Coeff-Com:  0.617D-07-0.179D-05-0.801D-05-0.547D-04 0.267D-02-0.170D-01
 Coeff-Com:  0.503D-01 0.387D-01-0.355D+00 0.128D+01
 Coeff:      0.617D-07-0.179D-05-0.801D-05-0.547D-04 0.267D-02-0.170D-01
 Coeff:      0.503D-01 0.387D-01-0.355D+00 0.128D+01
 Gap=     0.690 Goal=   None    Shift=    0.000
 RMSDP=1.18D-08 MaxDP=5.61D-08 DE=-1.64D-12 OVMax= 6.87D-08

 Cycle  11  Pass 1  IDiag  1:
 E= -33.6528436951275     Delta-E=        0.000000000000 Rises=F Damp=F
 DIIS: error= 3.91D-10 at cycle  11 NSaved=  11.
 NSaved=11 IEnMin=10 EnMin= -33.6528436951276     IErMin=11 ErrMin= 3.91D-10
 ErrMax= 3.91D-10  0.00D+00 EMaxC= 1.00D-01 BMatC= 4.06D-18 BMatP= 2.84D-15
 IDIUse=1 WtCom= 1.00D+00 WtEn= 0.00D+00
 Coeff-Com: -0.728D-07 0.308D-06 0.202D-05 0.669D-05-0.434D-03 0.281D-02
 Coeff-Com: -0.839D-02-0.628D-02 0.602D-01-0.237D+00 0.119D+01
 Coeff:     -0.728D-07 0.308D-06 0.202D-05 0.669D-05-0.434D-03 0.281D-02
 Coeff:     -0.839D-02-0.628D-02 0.602D-01-0.237D+00 0.119D+01
 Gap=     0.690 Goal=   None    Shift=    0.000
 RMSDP=2.45D-10 MaxDP=1.39D-09 DE= 2.84D-14 OVMax= 1.10D-09

 SCF Done:  E(RHF) =  -33.6528436951     A.U. after   11 cycles
            NFock= 11  Conv=0.24D-09     -V/T= 2.2569
 KE= 2.677475879740D+01 PE=-1.201569355708D+02 EE= 4.045042692861D+01
 Leave Link  502 at Sun Dec 10 07:00:43 2023, MaxMem=   536870912 cpu:               0.3 elap:               0.1
 (Enter /usr/site/hpc/x86_64/glibc-2.17/broadwell/gaussian/g16_a.03/pgi-16.5/g16/l801.exe)
 Windowed orbitals will be sorted by symmetry type.
 Range of M.O.s used for correlation:     1    24
 NBasis=    24 NAE=     8 NBE=     8 NFC=     0 NFV=     0
 NROrb=     24 NOA=     8 NOB=     8 NVA=    16 NVB=    16
 Leave Link  801 at Sun Dec 10 07:00:43 2023, MaxMem=   536870912 cpu:               0.1 elap:               0.0
 (Enter /usr/site/hpc/x86_64/glibc-2.17/broadwell/gaussian/g16_a.03/pgi-16.5/g16/l804.exe)
 Closed-shell transformation, MDV=   536870912 ITran=4 ISComp=2.
 Unit  1 TFree=       1025975 TCopy=        210600.
 Semi-Direct transformation.
 ModeAB=           4 MOrb=             8 LenV=     536742520
 LASXX=        22470 LTotXX=       22470 LenRXX=       48678
 LTotAB=       26208 MaxLAS=       56064 LenRXY=           0
 NonZer=       71148 LenScr=      524288 LnRSAI=       56064
 LnScr1=      524288 LExtra=           0 Total=      1153318
 MaxDsk=          -1 SrtSym=           T ITran=            4
 DoSDTr:  NPSUse=  4
 JobTyp=0 Pass  1:  I=   1 to   8.
 (rs|ai) integrals will be sorted in core.
 Complete sort for first half transformation.
 First half transformation complete.
 Complete sort for second half transformation.
 Second half transformation complete.
 Spin components of T(2) and E(2):
     alpha-alpha T2 =       0.9063954315D-02 E2=     -0.2589079441D-01
     alpha-beta  T2 =       0.5988640857D-01 E2=     -0.1765387242D+00
     beta-beta   T2 =       0.9063954315D-02 E2=     -0.2589079441D-01
 ANorm=    0.1038274683D+01
 E2 =    -0.2283203130D+00 EUMP2 =    -0.33881164008143D+02
 Leave Link  804 at Sun Dec 10 07:00:43 2023, MaxMem=   536870912 cpu:               0.2 elap:               0.1
 (Enter /usr/site/hpc/x86_64/glibc-2.17/broadwell/gaussian/g16_a.03/pgi-16.5/g16/l913.exe)
 CIDS:  MDV=   536870912.
 IFCWin=0 IBDFC=1 NFBD=     0     0 NFCmp=     0     0 NFFFC=     0     0
 Using DD3R+UMP44R for 1st iteration.
 Using DD4RQ for 2nd and later iterations.
 Keep R2 and R3 ints in memory in symmetry-blocked form, NReq=864486.
 FoFCou: FMM=F IPFlag=           0 FMFlag=           0 FMFlg1=           0
         NFxFlg=           0 DoJE=F BraDBF=F KetDBF=F FulRan=T
         wScrn=  0.000000 ICntrl=       600 IOpCl=  0 I1Cent=           0 NGrid=           0
         NMat0=    1 NMatS0=    300 NMatT0=    0 NMatD0=    1 NMtDS0=    0 NMtDT0=    0
 Petite list used in FoFCou.
 CIDS: In Core Option IDoMem=           1.
 CCSD(T)
 =======
 Iterations=  50 Convergence= 0.100D-06
 Produce multiple copies of IABC intergrals
 Iteration Nr.   1
 **********************
 DD1Dir will call FoFMem   1 times, MxPair=        72
 NAB=    36 NAA=     0 NBB=     0.
 MP4(R+Q)= -0.74525475D-03
 Maximum subspace dimension=  5
 A-vector RMS=  5.7513600D-03 Max=  1.3209190D-02 conv= 1.00D-05.
 RLE energy=       -0.2343735083
 E3=       -0.54263581D-02        EUMP3=      -0.33886590366D+02
 E4(DQ)=   -0.59074556D-02        UMP4(DQ)=   -0.33892497822D+02
 E4(SDQ)=  -0.79323006D-02        UMP4(SDQ)=  -0.33894522667D+02
 VARIATIONAL ENERGIES WITH THE FIRST-ORDER WAVEFUNCTION:
 DE(Corr)= -0.23421751     E(Corr)=     -33.887061206    
 NORM(A)=   0.10417030D+01
 Iteration Nr.   2
 **********************
 DD1Dir will call FoFMem   1 times, MxPair=        72
 NAB=    36 NAA=     0 NBB=     0.
 A-vector RMS=  9.8237713D-04 Max=  2.7308223D-03 conv= 1.00D-05.
 RLE energy=       -0.2421379764
 DE(Corr)= -0.24019579     E(CORR)=     -33.893039484     Delta=-5.98D-03
 NORM(A)=   0.10454901D+01
 Iteration Nr.   3
 **********************
 DD1Dir will call FoFMem   1 times, MxPair=        72
 NAB=    36 NAA=     0 NBB=     0.
 A-vector RMS=  3.8158691D-04 Max=  1.1458677D-03 conv= 1.00D-05.
 RLE energy=       -0.2426878731
 DE(Corr)= -0.24224102     E(CORR)=     -33.895084714     Delta=-2.05D-03
 NORM(A)=   0.10460499D+01
 Iteration Nr.   4
 **********************
 DD1Dir will call FoFMem   1 times, MxPair=        72
 NAB=    36 NAA=     0 NBB=     0.
 A-vector RMS=  9.1944504D-05 Max=  2.4819371D-04 conv= 1.00D-05.
 RLE energy=       -0.2427345082
 DE(Corr)= -0.24269869     E(CORR)=     -33.895542388     Delta=-4.58D-04
 NORM(A)=   0.10461236D+01
 Iteration Nr.   5
 **********************
 DD1Dir will call FoFMem   1 times, MxPair=        72
 NAB=    36 NAA=     0 NBB=     0.
 A-vector RMS=  4.1238857D-05 Max=  1.5076343D-04 conv= 1.00D-05.
 RLE energy=       -0.2427327379
 DE(Corr)= -0.24273075     E(CORR)=     -33.895574449     Delta=-3.21D-05
 NORM(A)=   0.10461341D+01
 Iteration Nr.   6
 **********************
 DD1Dir will call FoFMem   1 times, MxPair=        72
 NAB=    36 NAA=     0 NBB=     0.
 A-vector RMS=  1.1271837D-05 Max=  4.0180011D-05 conv= 1.00D-05.
 RLE energy=       -0.2427319107
 DE(Corr)= -0.24273290     E(CORR)=     -33.895576593     Delta=-2.14D-06
 NORM(A)=   0.10461375D+01
 Iteration Nr.   7
 **********************
 DD1Dir will call FoFMem   1 times, MxPair=        72
 NAB=    36 NAA=     0 NBB=     0.
 A-vector RMS=  3.3229304D-06 Max=  1.1869279D-05 conv= 1.00D-05.
 RLE energy=       -0.2427328246
 DE(Corr)= -0.24273229     E(CORR)=     -33.895575984     Delta= 6.08D-07
 NORM(A)=   0.10461389D+01
 Iteration Nr.   8
 **********************
 DD1Dir will call FoFMem   1 times, MxPair=        72
 NAB=    36 NAA=     0 NBB=     0.
 A-vector RMS=  5.7425780D-07 Max=  1.7987531D-06 conv= 1.00D-05.
 RLE energy=       -0.2427323366
 DE(Corr)= -0.24273234     E(CORR)=     -33.895576039     Delta=-5.44D-08
 NORM(A)=   0.10461390D+01
 CI/CC converged in    8 iterations to DelEn=-5.44D-08 Conv= 1.00D-07 ErrA1= 5.74D-07 Conv= 1.00D-05
 Wavefunction amplitudes converged. E(Corr)=     -33.895576039    
 Largest amplitude= 5.86D-02
 IPart=  4 IA=    2   12.50% done.
 IPart=  3 IA=    3   24.17% done.
 IPart=  2 IA=    4   35.00% done.
 IPart=  2 IA=    5   45.00% done.
 IPart=  3 IA=    6   54.17% done.
 IPart=  4 IA=    7   62.50% done.
 IPart=  1 IA=    8   70.00% done.
 IPart=  1 IA=   10   82.50% done.
 IPart=  4 IA=   12   91.67% done.
 Time for triples=        0.28 seconds.
 T4(CCSD)= -0.30839326D-02
 T5(CCSD)=  0.52558646D-03
 CCSD(T)= -0.33898134385D+02
 Discarding MO integrals.
 Leave Link  913 at Sun Dec 10 07:00:43 2023, MaxMem=   536870912 cpu:               0.9 elap:               0.2
 (Enter /usr/site/hpc/x86_64/glibc-2.17/broadwell/gaussian/g16_a.03/pgi-16.5/g16/l601.exe)
 Copying SCF densities to generalized density rwf, IOpCl= 0 IROHF=0.

 **********************************************************************

            Population analysis using the SCF density.

 **********************************************************************

 Orbital symmetries:
       Occupied  (A') (A') (A') (A') (A') (A') (A") (A")
       Virtual   (A') (A') (A') (A') (A") (A") (A') (A') (A') (A')
                 (A') (A') (A') (A') (A') (A')
 The electronic state is 1-A'.
 Alpha  occ. eigenvalues --   -1.36203  -1.34813  -0.71843  -0.70440  -0.55998
 Alpha  occ. eigenvalues --   -0.54580  -0.50790  -0.49401
 Alpha virt. eigenvalues --    0.19620   0.21056   0.29874   0.31327   0.79764
 Alpha virt. eigenvalues --    0.81126   0.82673   0.84124   0.85817   0.87256
 Alpha virt. eigenvalues --    1.16746   1.18132   1.21192   1.22625   2.56733
 Alpha virt. eigenvalues --    2.58139
          Condensed to atoms (all electrons):
               1          2          3          4          5          6
     1  O    6.217534   0.265107   0.262605  -0.000000   0.000000   0.000000
     2  H    0.265107   0.380997  -0.023368   0.000002  -0.000000  -0.000000
     3  H    0.262605  -0.023368   0.392781  -0.000000   0.000000   0.000000
     4  O   -0.000000   0.000002  -0.000000   6.216738   0.264902   0.263363
     5  H    0.000000  -0.000000   0.000000   0.264902   0.384438  -0.023418
     6  H    0.000000  -0.000000   0.000000   0.263363  -0.023418   0.389124
 Mulliken charges:
               1
     1  O   -0.745247
     2  H    0.377262
     3  H    0.367982
     4  O   -0.745005
     5  H    0.374077
     6  H    0.370930
 Sum of Mulliken charges =   0.00000
 Mulliken charges with hydrogens summed into heavy atoms:
               1
     1  O   -0.000003
     4  O    0.000003
 Electronic spatial extent (au):  <R**2>=            543.7229
 Charge=              0.0000 electrons
 Dipole moment (field-independent basis, Debye):
    X=             -2.9074    Y=             -4.1103    Z=              0.0000  Tot=              5.0346
 Quadrupole moment (field-independent basis, Debye-Ang):
   XX=             -9.7748   YY=             -5.2479   ZZ=            -14.9907
   XY=             -5.9837   XZ=             -0.0000   YZ=              0.0000
 Traceless Quadrupole moment (field-independent basis, Debye-Ang):
   XX=              0.2296   YY=              4.7565   ZZ=             -4.9862
   XY=             -5.9837   XZ=             -0.0000   YZ=              0.0000
 Octapole moment (field-independent basis, Debye-Ang**2):
  XXX=             -3.1059  YYY=           -100.4623  ZZZ=              0.0000  XYY=            -28.0486
  XXY=             -4.7170  XXZ=              0.0000  XZZ=             -0.5458  YZZ=             -0.7814
  YYZ=              0.0000  XYZ=              0.0000
 Hexadecapole moment (field-independent basis, Debye-Ang**3):
 XXXX=            -12.2138 YYYY=           -500.6633 ZZZZ=            -12.2251 XXXY=             -0.4990
 XXXZ=             -0.0000 YYYX=            -90.4149 YYYZ=              0.0000 ZZZX=              0.0000
 ZZZY=             -0.0000 XXYY=            -82.4984 XXZZ=             -4.5612 YYZZ=           -136.4083
 XXYZ=              0.0000 YYXZ=             -0.0000 ZZXY=              0.6035
 N-N= 1.927890614966D+01 E-N=-1.201569355747D+02  KE= 2.677475879740D+01
 Symmetry A'   KE= 1.789397195180D+01
 Symmetry A"   KE= 8.880786845595D+00
 Leave Link  601 at Sun Dec 10 07:00:43 2023, MaxMem=   536870912 cpu:               0.1 elap:               0.0
 (Enter /usr/site/hpc/x86_64/glibc-2.17/broadwell/gaussian/g16_a.03/pgi-16.5/g16/l9999.exe)
 1\1\GINC-N033\SP\RCCSD(T)-FC\CEP-31G\H4O2\ROOT\10-Dec-2023\0\\#p CCSD(
 T)/CEP-31G\\H2O_H2O_4860\\0,1\O,0,0.,-0.009833,0.\H,0,-0.799571,-0.580
 965,0.\H,0,0.799571,-0.580965,0.\O,0,-4.815177,-3.442995,0.\H,0,-5.797
 203,-3.409357,0.\H,0,-4.528518,-4.382853,0.\\Version=ES64L-G16RevA.03\
 State=1-A'\HF=-33.6528437\MP2=-33.881164\MP3=-33.8865904\MP4D=-33.8917
 526\MP4DQ=-33.8924978\MP4SDQ=-33.8945227\CCSD=-33.895576\CCSD(T)=-33.8
 981344\RMSD=2.448e-10\PG=CS [SG(H4O2)]\\@


 BE LIKE A POSTAGE STAMP.  STICK TO ONE THING UNTIL
 YOU GET THERE -- JOSH BILLINGS
 Job cpu time:       0 days  0 hours  0 minutes  3.8 seconds.
 Elapsed time:       0 days  0 hours  0 minutes  1.2 seconds.
 File lengths (MBytes):  RWF=     72 Int=      0 D2E=      0 Chk=      8 Scr=      8
 Normal termination of Gaussian 16 at Sun Dec 10 07:00:43 2023.
