 Entering Gaussian System, Link 0=g16
 Input=H2O_H2O_1646.com
 Output=H2O_H2O_1646.log
 Initial command:
 /usr/site/hpc/x86_64/glibc-2.17/broadwell/gaussian/g16_a.03/pgi-16.5/g16/l1.exe "/gpfs/gpfs1/scratch/c7441090/OH Coord/Gau-1687117.inp" -scrdir="/gpfs/gpfs1/scratch/c7441090/OH Coord/"
 Entering Link 1 = /usr/site/hpc/x86_64/glibc-2.17/broadwell/gaussian/g16_a.03/pgi-16.5/g16/l1.exe PID=   1687118.
  
 Copyright (c) 1988,1990,1992,1993,1995,1998,2003,2009,2016,
            Gaussian, Inc.  All Rights Reserved.
  
 This is part of the Gaussian(R) 16 program.  It is based on
 the Gaussian(R) 09 system (copyright 2009, Gaussian, Inc.),
 the Gaussian(R) 03 system (copyright 2003, Gaussian, Inc.),
 the Gaussian(R) 98 system (copyright 1998, Gaussian, Inc.),
 the Gaussian(R) 94 system (copyright 1995, Gaussian, Inc.),
 the Gaussian 92(TM) system (copyright 1992, Gaussian, Inc.),
 the Gaussian 90(TM) system (copyright 1990, Gaussian, Inc.),
 the Gaussian 88(TM) system (copyright 1988, Gaussian, Inc.),
 the Gaussian 86(TM) system (copyright 1986, Carnegie Mellon
 University), and the Gaussian 82(TM) system (copyright 1983,
 Carnegie Mellon University). Gaussian is a federally registered
 trademark of Gaussian, Inc.
  
 This software contains proprietary and confidential information,
 including trade secrets, belonging to Gaussian, Inc.
  
 This software is provided under written license and may be
 used, copied, transmitted, or stored only in accord with that
 written license.
  
 The following legend is applicable only to US Government
 contracts under FAR:
  
                    RESTRICTED RIGHTS LEGEND
  
 Use, reproduction and disclosure by the US Government is
 subject to restrictions as set forth in subparagraphs (a)
 and (c) of the Commercial Computer Software - Restricted
 Rights clause in FAR 52.227-19.
  
 Gaussian, Inc.
 340 Quinnipiac St., Bldg. 40, Wallingford CT 06492
  
  
 ---------------------------------------------------------------
 Warning -- This program may not be used in any manner that
 competes with the business of Gaussian, Inc. or will provide
 assistance to any competitor of Gaussian, Inc.  The licensee
 of this program is prohibited from giving any competitor of
 Gaussian, Inc. access to this program.  By using this program,
 the user acknowledges that Gaussian, Inc. is engaged in the
 business of creating and licensing software in the field of
 computational chemistry and represents and warrants to the
 licensee that it is not a competitor of Gaussian, Inc. and that
 it will not use this program in any manner prohibited above.
 ---------------------------------------------------------------
  

 Cite this work as:
 Gaussian 16, Revision A.03,
 M. J. Frisch, G. W. Trucks, H. B. Schlegel, G. E. Scuseria, 
 M. A. Robb, J. R. Cheeseman, G. Scalmani, V. Barone, 
 G. A. Petersson, H. Nakatsuji, X. Li, M. Caricato, A. V. Marenich, 
 J. Bloino, B. G. Janesko, R. Gomperts, B. Mennucci, H. P. Hratchian, 
 J. V. Ortiz, A. F. Izmaylov, J. L. Sonnenberg, D. Williams-Young, 
 F. Ding, F. Lipparini, F. Egidi, J. Goings, B. Peng, A. Petrone, 
 T. Henderson, D. Ranasinghe, V. G. Zakrzewski, J. Gao, N. Rega, 
 G. Zheng, W. Liang, M. Hada, M. Ehara, K. Toyota, R. Fukuda, 
 J. Hasegawa, M. Ishida, T. Nakajima, Y. Honda, O. Kitao, H. Nakai, 
 T. Vreven, K. Throssell, J. A. Montgomery, Jr., J. E. Peralta, 
 F. Ogliaro, M. J. Bearpark, J. J. Heyd, E. N. Brothers, K. N. Kudin, 
 V. N. Staroverov, T. A. Keith, R. Kobayashi, J. Normand, 
 K. Raghavachari, A. P. Rendell, J. C. Burant, S. S. Iyengar, 
 J. Tomasi, M. Cossi, J. M. Millam, M. Klene, C. Adamo, R. Cammi, 
 J. W. Ochterski, R. L. Martin, K. Morokuma, O. Farkas, 
 J. B. Foresman, and D. J. Fox, Gaussian, Inc., Wallingford CT, 2016.
 
 ******************************************
 Gaussian 16:  ES64L-G16RevA.03 25-Dec-2016
                10-Dec-2023 
 ******************************************
 %NProcShared=4
 Will use up to    4 processors via shared memory.
 %Mem=4GB
 %Chk=H2O_H2O_1646.chk
 ------------------
 #p CCSD(T)/CEP-31G
 ------------------
 1/38=1,172=1/1;
 2/12=2,17=6,18=5,40=1/2;
 3/5=9,6=1,11=9,25=1,30=1/1,2,3;
 4//1;
 5/5=2,38=5/2;
 8/6=4,9=120000,10=1/1,4;
 9/5=7,14=2/13;
 6/7=2,8=2,9=2,10=2/1;
 99/5=1,9=1/99;
 Leave Link    1 at Sun Dec 10 06:49:57 2023, MaxMem=   536870912 cpu:               0.2 elap:               0.1
 (Enter /usr/site/hpc/x86_64/glibc-2.17/broadwell/gaussian/g16_a.03/pgi-16.5/g16/l101.exe)
 ------------
 H2O_H2O_1646
 ------------
 Symbolic Z-matrix:
 Charge =  0 Multiplicity = 1
 O                     0.       -0.00983   0. 
 H                    -0.79957  -0.58097   0. 
 H                     0.79957  -0.58097   0. 
 O                    -2.72531  -1.94171   0. 
 H                    -3.44145  -1.26893   0. 
 H                    -3.12948  -2.83734   0. 
 
 ITRead=  0  0  0  0  0  0
 MicOpt= -1 -1 -1 -1 -1 -1
 NAtoms=      6 NQM=        6 NQMF=       0 NMMI=      0 NMMIF=      0
                NMic=       0 NMicF=      0.
                    Isotopes and Nuclear Properties:
 (Nuclear quadrupole moments (NQMom) in fm**2, nuclear magnetic moments (NMagM)
  in nuclear magnetons)

  Atom         1           2           3           4           5           6
 IAtWgt=          16           1           1          16           1           1
 AtmWgt=  15.9949146   1.0078250   1.0078250  15.9949146   1.0078250   1.0078250
 NucSpn=           0           1           1           0           1           1
 AtZEff=  -0.0000000  -0.0000000  -0.0000000  -0.0000000  -0.0000000  -0.0000000
 NQMom=    0.0000000   0.0000000   0.0000000   0.0000000   0.0000000   0.0000000
 NMagM=    0.0000000   2.7928460   2.7928460   0.0000000   2.7928460   2.7928460
 AtZNuc=   8.0000000   1.0000000   1.0000000   8.0000000   1.0000000   1.0000000
 Leave Link  101 at Sun Dec 10 06:49:57 2023, MaxMem=   536870912 cpu:               0.3 elap:               0.1
 (Enter /usr/site/hpc/x86_64/glibc-2.17/broadwell/gaussian/g16_a.03/pgi-16.5/g16/l202.exe)
                          Input orientation:                          
 ---------------------------------------------------------------------
 Center     Atomic      Atomic             Coordinates (Angstroms)
 Number     Number       Type             X           Y           Z
 ---------------------------------------------------------------------
      1          8           0        0.000000   -0.009833    0.000000
      2          1           0       -0.799571   -0.580965    0.000000
      3          1           0        0.799571   -0.580965    0.000000
      4          8           0       -2.725307   -1.941710    0.000000
      5          1           0       -3.441454   -1.268925    0.000000
      6          1           0       -3.129477   -2.837341    0.000000
 ---------------------------------------------------------------------
                    Distance matrix (angstroms):
                    1          2          3          4          5
     1  O    0.000000
     2  H    0.982601   0.000000
     3  H    0.982601   1.599142   0.000000
     4  O    3.340576   2.357983   3.778411   0.000000
     5  H    3.664549   2.729988   4.296462   0.982602   0.000000
     6  H    4.217633   3.243408   4.530855   0.982603   1.599143
                    6
     6  H    0.000000
 Stoichiometry    H4O2
 Framework group  CS[SG(H4O2)]
 Deg. of freedom     9
 Full point group                 CS      NOp   2
 Largest Abelian subgroup         CS      NOp   2
 Largest concise Abelian subgroup C1      NOp   1
                         Standard orientation:                         
 ---------------------------------------------------------------------
 Center     Atomic      Atomic             Coordinates (Angstroms)
 Number     Number       Type             X           Y           Z
 ---------------------------------------------------------------------
      1          8           0       -0.023290    1.755459    0.000000
      2          1           0       -0.019746    0.772864    0.000000
      3          1           0        0.905048    2.077476    0.000000
      4          8           0       -0.023290   -1.585116    0.000000
      5          1           0       -0.986313   -1.780287    0.000000
      6          1           0        0.473649   -2.432796    0.000000
 ---------------------------------------------------------------------
 Rotational constants (GHZ):         254.2842226           4.8782784           4.7864534
 Leave Link  202 at Sun Dec 10 06:49:57 2023, MaxMem=   536870912 cpu:               0.1 elap:               0.0
 (Enter /usr/site/hpc/x86_64/glibc-2.17/broadwell/gaussian/g16_a.03/pgi-16.5/g16/l301.exe)
 Standard basis: CEP-31G (6D, 10F)
 Ernie: Thresh=  0.10000D-02 Tol=  0.10000D-05 Strict=F.
 There are    20 symmetry adapted cartesian basis functions of A'  symmetry.
 There are     4 symmetry adapted cartesian basis functions of A"  symmetry.
 There are    20 symmetry adapted basis functions of A'  symmetry.
 There are     4 symmetry adapted basis functions of A"  symmetry.
    24 basis functions,    48 primitive gaussians,    24 cartesian basis functions
     8 alpha electrons        8 beta electrons
       nuclear repulsion energy        23.6926961822 Hartrees.
 IExCor=    0 DFT=F Ex=HF Corr=None ExCW=0 ScaHFX=  1.000000
 ScaDFX=  1.000000  1.000000  1.000000  1.000000 ScalE2=  1.000000  1.000000
 IRadAn=      5 IRanWt=     -1 IRanGd=            0 ICorTp=0 IEmpDi=  4
 NAtoms=    6 NActive=    6 NUniq=    6 SFac= 1.00D+00 NAtFMM=   60 NAOKFM=F Big=F
 Integral buffers will be    131072 words long.
 Raffenetti 1 integral format.
 Two-electron integral symmetry is turned on.
 Leave Link  301 at Sun Dec 10 06:49:57 2023, MaxMem=   536870912 cpu:               0.2 elap:               0.1
 (Enter /usr/site/hpc/x86_64/glibc-2.17/broadwell/gaussian/g16_a.03/pgi-16.5/g16/l302.exe)
 NPDir=0 NMtPBC=     1 NCelOv=     1 NCel=       1 NClECP=     1 NCelD=      1
         NCelK=      1 NCelE2=     1 NClLst=     1 CellRange=     0.0.
 One-electron integrals computed using PRISM.
 One-electron integral symmetry used in STVInt
   2 Symmetry operations used in ECPInt.
 ECPInt:  NShTT=      78 NPrTT=     318 LenC2=      79 LenP2D=     285.
 LDataN:  DoStor=T MaxTD1= 2 Len=   12
 NBasis=    24 RedAO= T EigKep=  2.71D-02  NBF=    20     4
 NBsUse=    24 1.00D-06 EigRej= -1.00D+00 NBFU=    20     4
 Leave Link  302 at Sun Dec 10 06:49:57 2023, MaxMem=   536870912 cpu:               0.3 elap:               0.1
 (Enter /usr/site/hpc/x86_64/glibc-2.17/broadwell/gaussian/g16_a.03/pgi-16.5/g16/l303.exe)
 DipDrv:  MaxL=1.
 Leave Link  303 at Sun Dec 10 06:49:58 2023, MaxMem=   536870912 cpu:               0.1 elap:               0.0
 (Enter /usr/site/hpc/x86_64/glibc-2.17/broadwell/gaussian/g16_a.03/pgi-16.5/g16/l401.exe)
 ExpMin= 1.78D-01 ExpMax= 1.92D+01 ExpMxC= 1.92D+01 IAcc=3 IRadAn=         5 AccDes= 0.00D+00
 Harris functional with IExCor=  205 and IRadAn=       5 diagonalized for initial guess.
 HarFok:  IExCor=  205 AccDes= 0.00D+00 IRadAn=         5 IDoV= 1 UseB2=F ITyADJ=14
 ICtDFT=  3500011 ScaDFX=  1.000000  1.000000  1.000000  1.000000
 FoFCou: FMM=F IPFlag=           0 FMFlag=      100000 FMFlg1=           0
         NFxFlg=           0 DoJE=T BraDBF=F KetDBF=T FulRan=T
         wScrn=  0.000000 ICntrl=       500 IOpCl=  0 I1Cent=   200000004 NGrid=           0
         NMat0=    1 NMatS0=      1 NMatT0=    0 NMatD0=    1 NMtDS0=    0 NMtDT0=    0
 Petite list used in FoFCou.
 Harris En= -34.4794500531201    
 JPrj=0 DoOrth=F DoCkMO=F.
 Initial guess orbital symmetries:
       Occupied  (A') (A') (A') (A') (A') (A') (A") (A")
       Virtual   (A') (A') (A') (A') (A") (A') (A") (A') (A') (A')
                 (A') (A') (A') (A') (A') (A')
 The electronic state of the initial guess is 1-A'.
 Leave Link  401 at Sun Dec 10 06:49:58 2023, MaxMem=   536870912 cpu:               0.4 elap:               0.1
 (Enter /usr/site/hpc/x86_64/glibc-2.17/broadwell/gaussian/g16_a.03/pgi-16.5/g16/l502.exe)
 Keep R1 ints in memory in symmetry-blocked form, NReq=852506.
 FoFCou: FMM=F IPFlag=           0 FMFlag=           0 FMFlg1=           0
         NFxFlg=           0 DoJE=F BraDBF=F KetDBF=F FulRan=T
         wScrn=  0.000000 ICntrl=       600 IOpCl=  0 I1Cent=           0 NGrid=           0
         NMat0=    1 NMatS0=    300 NMatT0=    0 NMatD0=    1 NMtDS0=    0 NMtDT0=    0
 Petite list used in FoFCou.
 Closed shell SCF:
 Using DIIS extrapolation, IDIIS=  1040.
 NGot=   536870912 LenX=   536840576 LenY=   536839559
 Requested convergence on RMS density matrix=1.00D-08 within 128 cycles.
 Requested convergence on MAX density matrix=1.00D-06.
 Requested convergence on             energy=1.00D-06.
 No special actions if energy rises.

 Cycle   1  Pass 1  IDiag  1:
 E= -33.5730588629257    
 DIIS: error= 6.39D-02 at cycle   1 NSaved=   1.
 NSaved= 1 IEnMin= 1 EnMin= -33.5730588629257     IErMin= 1 ErrMin= 6.39D-02
 ErrMax= 6.39D-02  0.00D+00 EMaxC= 1.00D-01 BMatC= 9.64D-02 BMatP= 9.64D-02
 IDIUse=3 WtCom= 3.61D-01 WtEn= 6.39D-01
 Coeff-Com:  0.100D+01
 Coeff-En:   0.100D+01
 Coeff:      0.100D+01
 Gap=     0.587 Goal=   None    Shift=    0.000
 GapD=    0.587 DampG=2.000 DampE=0.500 DampFc=1.0000 IDamp=-1.
 RMSDP=1.43D-02 MaxDP=1.18D-01              OVMax= 9.54D-02

 Cycle   2  Pass 1  IDiag  1:
 E= -33.6319380659120     Delta-E=       -0.058879202986 Rises=F Damp=F
 DIIS: error= 3.53D-02 at cycle   2 NSaved=   2.
 NSaved= 2 IEnMin= 2 EnMin= -33.6319380659120     IErMin= 2 ErrMin= 3.53D-02
 ErrMax= 3.53D-02  0.00D+00 EMaxC= 1.00D-01 BMatC= 3.47D-02 BMatP= 9.64D-02
 IDIUse=3 WtCom= 6.47D-01 WtEn= 3.53D-01
 Coeff-Com:  0.372D+00 0.628D+00
 Coeff-En:   0.988D-01 0.901D+00
 Coeff:      0.276D+00 0.724D+00
 Gap=     0.658 Goal=   None    Shift=    0.000
 RMSDP=6.08D-03 MaxDP=5.24D-02 DE=-5.89D-02 OVMax= 3.43D-02

 Cycle   3  Pass 1  IDiag  1:
 E= -33.6596369983928     Delta-E=       -0.027698932481 Rises=F Damp=F
 DIIS: error= 6.53D-03 at cycle   3 NSaved=   3.
 NSaved= 3 IEnMin= 3 EnMin= -33.6596369983928     IErMin= 3 ErrMin= 6.53D-03
 ErrMax= 6.53D-03  0.00D+00 EMaxC= 1.00D-01 BMatC= 8.03D-04 BMatP= 3.47D-02
 IDIUse=3 WtCom= 9.35D-01 WtEn= 6.53D-02
 Coeff-Com: -0.112D+00-0.183D-01 0.113D+01
 Coeff-En:   0.000D+00 0.000D+00 0.100D+01
 Coeff:     -0.105D+00-0.171D-01 0.112D+01
 Gap=     0.652 Goal=   None    Shift=    0.000
 RMSDP=1.00D-03 MaxDP=8.57D-03 DE=-2.77D-02 OVMax= 7.51D-03

 Cycle   4  Pass 1  IDiag  1:
 E= -33.6604233050292     Delta-E=       -0.000786306636 Rises=F Damp=F
 DIIS: error= 6.33D-04 at cycle   4 NSaved=   4.
 NSaved= 4 IEnMin= 4 EnMin= -33.6604233050292     IErMin= 4 ErrMin= 6.33D-04
 ErrMax= 6.33D-04  0.00D+00 EMaxC= 1.00D-01 BMatC= 4.70D-06 BMatP= 8.03D-04
 IDIUse=3 WtCom= 9.94D-01 WtEn= 6.33D-03
 Coeff-Com:  0.409D-01-0.157D-01-0.506D+00 0.148D+01
 Coeff-En:   0.000D+00 0.000D+00 0.000D+00 0.100D+01
 Coeff:      0.406D-01-0.156D-01-0.503D+00 0.148D+01
 Gap=     0.653 Goal=   None    Shift=    0.000
 RMSDP=2.22D-04 MaxDP=1.69D-03 DE=-7.86D-04 OVMax= 1.11D-03

 Cycle   5  Pass 1  IDiag  1:
 E= -33.6604342586425     Delta-E=       -0.000010953613 Rises=F Damp=F
 DIIS: error= 5.30D-05 at cycle   5 NSaved=   5.
 NSaved= 5 IEnMin= 5 EnMin= -33.6604342586425     IErMin= 5 ErrMin= 5.30D-05
 ErrMax= 5.30D-05  0.00D+00 EMaxC= 1.00D-01 BMatC= 3.99D-08 BMatP= 4.70D-06
 IDIUse=1 WtCom= 1.00D+00 WtEn= 0.00D+00
 Coeff-Com: -0.535D-02 0.226D-02 0.676D-01-0.249D+00 0.118D+01
 Coeff:     -0.535D-02 0.226D-02 0.676D-01-0.249D+00 0.118D+01
 Gap=     0.653 Goal=   None    Shift=    0.000
 RMSDP=1.72D-05 MaxDP=1.81D-04 DE=-1.10D-05 OVMax= 1.07D-04

 Cycle   6  Pass 1  IDiag  1:
 E= -33.6604343468613     Delta-E=       -0.000000088219 Rises=F Damp=F
 DIIS: error= 1.04D-05 at cycle   6 NSaved=   6.
 NSaved= 6 IEnMin= 6 EnMin= -33.6604343468613     IErMin= 6 ErrMin= 1.04D-05
 ErrMax= 1.04D-05  0.00D+00 EMaxC= 1.00D-01 BMatC= 4.88D-09 BMatP= 3.99D-08
 IDIUse=1 WtCom= 1.00D+00 WtEn= 0.00D+00
 Coeff-Com: -0.274D-02 0.116D-02 0.345D-01-0.113D+00 0.271D+00 0.809D+00
 Coeff:     -0.274D-02 0.116D-02 0.345D-01-0.113D+00 0.271D+00 0.809D+00
 Gap=     0.653 Goal=   None    Shift=    0.000
 RMSDP=3.27D-06 MaxDP=3.01D-05 DE=-8.82D-08 OVMax= 2.97D-05

 Cycle   7  Pass 1  IDiag  1:
 E= -33.6604343532711     Delta-E=       -0.000000006410 Rises=F Damp=F
 DIIS: error= 4.06D-06 at cycle   7 NSaved=   7.
 NSaved= 7 IEnMin= 7 EnMin= -33.6604343532711     IErMin= 7 ErrMin= 4.06D-06
 ErrMax= 4.06D-06  0.00D+00 EMaxC= 1.00D-01 BMatC= 4.90D-10 BMatP= 4.88D-09
 IDIUse=1 WtCom= 1.00D+00 WtEn= 0.00D+00
 Coeff-Com:  0.900D-03-0.356D-03-0.113D-01 0.409D-01-0.183D+00-0.372D-01
 Coeff-Com:  0.119D+01
 Coeff:      0.900D-03-0.356D-03-0.113D-01 0.409D-01-0.183D+00-0.372D-01
 Coeff:      0.119D+01
 Gap=     0.653 Goal=   None    Shift=    0.000
 RMSDP=1.77D-06 MaxDP=1.34D-05 DE=-6.41D-09 OVMax= 1.62D-05

 Cycle   8  Pass 1  IDiag  1:
 E= -33.6604343544012     Delta-E=       -0.000000001130 Rises=F Damp=F
 DIIS: error= 9.14D-07 at cycle   8 NSaved=   8.
 NSaved= 8 IEnMin= 8 EnMin= -33.6604343544012     IErMin= 8 ErrMin= 9.14D-07
 ErrMax= 9.14D-07  0.00D+00 EMaxC= 1.00D-01 BMatC= 1.77D-11 BMatP= 4.90D-10
 IDIUse=1 WtCom= 1.00D+00 WtEn= 0.00D+00
 Coeff-Com: -0.503D-05-0.181D-04 0.218D-04-0.706D-03 0.205D-01-0.364D-01
 Coeff-Com: -0.254D+00 0.127D+01
 Coeff:     -0.503D-05-0.181D-04 0.218D-04-0.706D-03 0.205D-01-0.364D-01
 Coeff:     -0.254D+00 0.127D+01
 Gap=     0.653 Goal=   None    Shift=    0.000
 RMSDP=4.17D-07 MaxDP=2.66D-06 DE=-1.13D-09 OVMax= 3.59D-06

 Cycle   9  Pass 1  IDiag  1:
 E= -33.6604343544495     Delta-E=       -0.000000000048 Rises=F Damp=F
 DIIS: error= 1.37D-07 at cycle   9 NSaved=   9.
 NSaved= 9 IEnMin= 9 EnMin= -33.6604343544495     IErMin= 9 ErrMin= 1.37D-07
 ErrMax= 1.37D-07  0.00D+00 EMaxC= 1.00D-01 BMatC= 5.26D-13 BMatP= 1.77D-11
 IDIUse=1 WtCom= 1.00D+00 WtEn= 0.00D+00
 Coeff-Com:  0.665D-05 0.422D-05-0.599D-04 0.337D-03-0.681D-02 0.136D-01
 Coeff-Com:  0.854D-01-0.505D+00 0.141D+01
 Coeff:      0.665D-05 0.422D-05-0.599D-04 0.337D-03-0.681D-02 0.136D-01
 Coeff:      0.854D-01-0.505D+00 0.141D+01
 Gap=     0.653 Goal=   None    Shift=    0.000
 RMSDP=1.01D-07 MaxDP=4.66D-07 DE=-4.83D-11 OVMax= 6.90D-07

 Cycle  10  Pass 1  IDiag  1:
 E= -33.6604343544511     Delta-E=       -0.000000000002 Rises=F Damp=F
 DIIS: error= 1.40D-08 at cycle  10 NSaved=  10.
 NSaved=10 IEnMin=10 EnMin= -33.6604343544511     IErMin=10 ErrMin= 1.40D-08
 ErrMax= 1.40D-08  0.00D+00 EMaxC= 1.00D-01 BMatC= 7.25D-15 BMatP= 5.26D-13
 IDIUse=1 WtCom= 1.00D+00 WtEn= 0.00D+00
 Coeff-Com:  0.298D-06-0.150D-05-0.867D-05 0.128D-04 0.102D-02-0.293D-02
 Coeff-Com: -0.151D-01 0.996D-01-0.378D+00 0.130D+01
 Coeff:      0.298D-06-0.150D-05-0.867D-05 0.128D-04 0.102D-02-0.293D-02
 Coeff:     -0.151D-01 0.996D-01-0.378D+00 0.130D+01
 Gap=     0.653 Goal=   None    Shift=    0.000
 RMSDP=1.53D-08 MaxDP=7.06D-08 DE=-1.56D-12 OVMax= 9.64D-08

 Cycle  11  Pass 1  IDiag  1:
 E= -33.6604343544510     Delta-E=        0.000000000000 Rises=F Damp=F
 DIIS: error= 1.17D-09 at cycle  11 NSaved=  11.
 NSaved=11 IEnMin=10 EnMin= -33.6604343544511     IErMin=11 ErrMin= 1.17D-09
 ErrMax= 1.17D-09  0.00D+00 EMaxC= 1.00D-01 BMatC= 4.26D-17 BMatP= 7.25D-15
 IDIUse=1 WtCom= 1.00D+00 WtEn= 0.00D+00
 Coeff-Com: -0.985D-07 0.305D-06 0.214D-05-0.446D-05-0.197D-03 0.587D-03
 Coeff-Com:  0.301D-02-0.202D-01 0.784D-01-0.311D+00 0.125D+01
 Coeff:     -0.985D-07 0.305D-06 0.214D-05-0.446D-05-0.197D-03 0.587D-03
 Coeff:      0.301D-02-0.202D-01 0.784D-01-0.311D+00 0.125D+01
 Gap=     0.653 Goal=   None    Shift=    0.000
 RMSDP=1.05D-09 MaxDP=6.21D-09 DE= 4.26D-14 OVMax= 6.65D-09

 SCF Done:  E(RHF) =  -33.6604343545     A.U. after   11 cycles
            NFock= 11  Conv=0.11D-08     -V/T= 2.2562
 KE= 2.679563288326D+01 PE=-1.290406671946D+02 EE= 4.489190377466D+01
 Leave Link  502 at Sun Dec 10 06:49:58 2023, MaxMem=   536870912 cpu:               0.3 elap:               0.1
 (Enter /usr/site/hpc/x86_64/glibc-2.17/broadwell/gaussian/g16_a.03/pgi-16.5/g16/l801.exe)
 Windowed orbitals will be sorted by symmetry type.
 Range of M.O.s used for correlation:     1    24
 NBasis=    24 NAE=     8 NBE=     8 NFC=     0 NFV=     0
 NROrb=     24 NOA=     8 NOB=     8 NVA=    16 NVB=    16
 Leave Link  801 at Sun Dec 10 06:49:58 2023, MaxMem=   536870912 cpu:               0.1 elap:               0.0
 (Enter /usr/site/hpc/x86_64/glibc-2.17/broadwell/gaussian/g16_a.03/pgi-16.5/g16/l804.exe)
 Closed-shell transformation, MDV=   536870912 ITran=4 ISComp=2.
 Unit  1 TFree=       1025975 TCopy=        210600.
 Semi-Direct transformation.
 ModeAB=           2 MOrb=             8 LenV=     536741760
 LASXX=        22470 LTotXX=       22470 LenRXX=       22470
 LTotAB=       26208 MaxLAS=       57600 LenRXY=       57600
 NonZer=       62208 LenScr=      524288 LnRSAI=           0
 LnScr1=           0 LExtra=           0 Total=       604358
 MaxDsk=          -1 SrtSym=           F ITran=            4
 DoSDTr:  NPSUse=  4
 JobTyp=0 Pass  1:  I=   1 to   8.
 (rs|ai) integrals will be sorted in core.
 Complete sort for first half transformation.
 First half transformation complete.
 Complete sort for second half transformation.
 Second half transformation complete.
 Spin components of T(2) and E(2):
     alpha-alpha T2 =       0.9079731059D-02 E2=     -0.2606447268D-01
     alpha-beta  T2 =       0.5952794883D-01 E2=     -0.1765453059D+00
     beta-beta   T2 =       0.9079731059D-02 E2=     -0.2606447268D-01
 ANorm=    0.1038117243D+01
 E2 =    -0.2286742513D+00 EUMP2 =    -0.33889108605743D+02
 Leave Link  804 at Sun Dec 10 06:49:58 2023, MaxMem=   536870912 cpu:               0.2 elap:               0.1
 (Enter /usr/site/hpc/x86_64/glibc-2.17/broadwell/gaussian/g16_a.03/pgi-16.5/g16/l913.exe)
 CIDS:  MDV=   536870912.
 IFCWin=0 IBDFC=1 NFBD=     0     0 NFCmp=     0     0 NFFFC=     0     0
 Using DD3R+UMP44R for 1st iteration.
 Using DD4RQ for 2nd and later iterations.
 Keep R2 and R3 ints in memory in symmetry-blocked form, NReq=865114.
 FoFCou: FMM=F IPFlag=           0 FMFlag=           0 FMFlg1=           0
         NFxFlg=           0 DoJE=F BraDBF=F KetDBF=F FulRan=T
         wScrn=  0.000000 ICntrl=       600 IOpCl=  0 I1Cent=           0 NGrid=           0
         NMat0=    1 NMatS0=    300 NMatT0=    0 NMatD0=    1 NMtDS0=    0 NMtDT0=    0
 Petite list used in FoFCou.
 CIDS: In Core Option IDoMem=           1.
 CCSD(T)
 =======
 Iterations=  50 Convergence= 0.100D-06
 Produce multiple copies of IABC intergrals
 Iteration Nr.   1
 **********************
 DD1Dir will call FoFMem   1 times, MxPair=        72
 NAB=    36 NAA=     0 NBB=     0.
 MP4(R+Q)= -0.73452997D-03
 Maximum subspace dimension=  5
 A-vector RMS=  5.8631955D-03 Max=  1.2705333D-02 conv= 1.00D-05.
 RLE energy=       -0.2345199127
 E3=       -0.52412293D-02        EUMP3=      -0.33894349835D+02
 E4(DQ)=   -0.58375387D-02        UMP4(DQ)=   -0.33900187374D+02
 E4(SDQ)=  -0.79321929D-02        UMP4(SDQ)=  -0.33902282028D+02
 VARIATIONAL ENERGIES WITH THE FIRST-ORDER WAVEFUNCTION:
 DE(Corr)= -0.23437454     E(Corr)=     -33.894808899    
 NORM(A)=   0.10414816D+01
 Iteration Nr.   2
 **********************
 DD1Dir will call FoFMem   1 times, MxPair=        72
 NAB=    36 NAA=     0 NBB=     0.
 A-vector RMS=  9.6726534D-04 Max=  2.6904128D-03 conv= 1.00D-05.
 RLE energy=       -0.2422688222
 DE(Corr)= -0.24035591     E(CORR)=     -33.900790263     Delta=-5.98D-03
 NORM(A)=   0.10452436D+01
 Iteration Nr.   3
 **********************
 DD1Dir will call FoFMem   1 times, MxPair=        72
 NAB=    36 NAA=     0 NBB=     0.
 A-vector RMS=  3.8109209D-04 Max=  7.7135042D-04 conv= 1.00D-05.
 RLE energy=       -0.2428135796
 DE(Corr)= -0.24236696     E(CORR)=     -33.902801317     Delta=-2.01D-03
 NORM(A)=   0.10457928D+01
 Iteration Nr.   4
 **********************
 DD1Dir will call FoFMem   1 times, MxPair=        72
 NAB=    36 NAA=     0 NBB=     0.
 A-vector RMS=  8.9113006D-05 Max=  2.2530483D-04 conv= 1.00D-05.
 RLE energy=       -0.2428611333
 DE(Corr)= -0.24282635     E(CORR)=     -33.903260705     Delta=-4.59D-04
 NORM(A)=   0.10458601D+01
 Iteration Nr.   5
 **********************
 DD1Dir will call FoFMem   1 times, MxPair=        72
 NAB=    36 NAA=     0 NBB=     0.
 A-vector RMS=  3.8512369D-05 Max=  1.1695123D-04 conv= 1.00D-05.
 RLE energy=       -0.2428605747
 DE(Corr)= -0.24285781     E(CORR)=     -33.903292162     Delta=-3.15D-05
 NORM(A)=   0.10458682D+01
 Iteration Nr.   6
 **********************
 DD1Dir will call FoFMem   1 times, MxPair=        72
 NAB=    36 NAA=     0 NBB=     0.
 A-vector RMS=  1.3957502D-05 Max=  4.8344239D-05 conv= 1.00D-05.
 RLE energy=       -0.2428578243
 DE(Corr)= -0.24286038     E(CORR)=     -33.903294730     Delta=-2.57D-06
 NORM(A)=   0.10458702D+01
 Iteration Nr.   7
 **********************
 DD1Dir will call FoFMem   1 times, MxPair=        72
 NAB=    36 NAA=     0 NBB=     0.
 A-vector RMS=  4.9273895D-06 Max=  1.5981938D-05 conv= 1.00D-05.
 RLE energy=       -0.2428595719
 DE(Corr)= -0.24285998     E(CORR)=     -33.903294338     Delta= 3.93D-07
 NORM(A)=   0.10458717D+01
 Iteration Nr.   8
 **********************
 DD1Dir will call FoFMem   1 times, MxPair=        72
 NAB=    36 NAA=     0 NBB=     0.
 A-vector RMS=  1.6358052D-06 Max=  6.8754621D-06 conv= 1.00D-05.
 RLE energy=       -0.2428595698
 DE(Corr)= -0.24285970     E(CORR)=     -33.903294055     Delta= 2.83D-07
 NORM(A)=   0.10458722D+01
 Iteration Nr.   9
 **********************
 DD1Dir will call FoFMem   1 times, MxPair=        72
 NAB=    36 NAA=     0 NBB=     0.
 A-vector RMS=  4.7313036D-07 Max=  2.2679199D-06 conv= 1.00D-05.
 RLE energy=       -0.2428597607
 DE(Corr)= -0.24285981     E(CORR)=     -33.903294162     Delta=-1.07D-07
 NORM(A)=   0.10458724D+01
 Iteration Nr.  10
 **********************
 DD1Dir will call FoFMem   1 times, MxPair=        72
 NAB=    36 NAA=     0 NBB=     0.
 A-vector RMS=  1.3137437D-07 Max=  5.6143084D-07 conv= 1.00D-05.
 RLE energy=       -0.2428599084
 DE(Corr)= -0.24285988     E(CORR)=     -33.903294237     Delta=-7.43D-08
 NORM(A)=   0.10458725D+01
 CI/CC converged in   10 iterations to DelEn=-7.43D-08 Conv= 1.00D-07 ErrA1= 1.31D-07 Conv= 1.00D-05
 Wavefunction amplitudes converged. E(Corr)=     -33.903294237    
 Largest amplitude= 5.12D-02
 IPart=  2 IA=    2   12.50% done.
 IPart=  3 IA=    3   24.17% done.
 IPart=  4 IA=    4   35.00% done.
 IPart=  4 IA=    5   45.00% done.
 IPart=  3 IA=    6   54.17% done.
 IPart=  1 IA=    7   62.50% done.
 IPart=  2 IA=    8   70.00% done.
 IPart=  3 IA=   10   82.50% done.
 IPart=  1 IA=   12   91.67% done.
 Time for triples=        0.26 seconds.
 T4(CCSD)= -0.31911466D-02
 T5(CCSD)=  0.53899445D-03
 CCSD(T)= -0.33905946389D+02
 Discarding MO integrals.
 Leave Link  913 at Sun Dec 10 06:49:58 2023, MaxMem=   536870912 cpu:               1.0 elap:               0.3
 (Enter /usr/site/hpc/x86_64/glibc-2.17/broadwell/gaussian/g16_a.03/pgi-16.5/g16/l601.exe)
 Copying SCF densities to generalized density rwf, IOpCl= 0 IROHF=0.

 **********************************************************************

            Population analysis using the SCF density.

 **********************************************************************

 Orbital symmetries:
       Occupied  (A') (A') (A') (A') (A') (A') (A") (A")
       Virtual   (A') (A') (A') (A') (A") (A') (A") (A') (A') (A')
                 (A') (A') (A') (A') (A') (A')
 The electronic state is 1-A'.
 Alpha  occ. eigenvalues --   -1.37733  -1.32765  -0.73423  -0.68535  -0.58139
 Alpha  occ. eigenvalues --   -0.52604  -0.52414  -0.47449
 Alpha virt. eigenvalues --    0.17891   0.24825   0.28767   0.37499   0.77510
 Alpha virt. eigenvalues --    0.81120   0.83705   0.86421   0.88947   0.98384
 Alpha virt. eigenvalues --    1.15503   1.19098   1.21288   1.35689   2.50854
 Alpha virt. eigenvalues --    3.00189
          Condensed to atoms (all electrons):
               1          2          3          4          5          6
     1  O    6.242348   0.274001   0.263568  -0.001962   0.000119   0.000029
     2  H    0.274001   0.336960  -0.023044  -0.000528   0.000016   0.000167
     3  H    0.263568  -0.023044   0.396276   0.000211  -0.000002  -0.000003
     4  O   -0.001962  -0.000528   0.000211   6.242559   0.266288   0.270206
     5  H    0.000119   0.000016  -0.000002   0.266288   0.369070  -0.022285
     6  H    0.000029   0.000167  -0.000003   0.270206  -0.022285   0.359225
 Mulliken charges:
               1
     1  O   -0.778103
     2  H    0.412427
     3  H    0.362993
     4  O   -0.776774
     5  H    0.386794
     6  H    0.392662
 Sum of Mulliken charges =  -0.00000
 Mulliken charges with hydrogens summed into heavy atoms:
               1
     1  O   -0.002682
     4  O    0.002682
 Electronic spatial extent (au):  <R**2>=            201.3992
 Charge=             -0.0000 electrons
 Dipole moment (field-independent basis, Debye):
    X=              1.0447    Y=             -4.2681    Z=              0.0000  Tot=              4.3941
 Quadrupole moment (field-independent basis, Debye-Ang):
   XX=             -9.5720   YY=             -8.1212   ZZ=            -15.0061
   XY=              5.7553   XZ=              0.0000   YZ=              0.0000
 Traceless Quadrupole moment (field-independent basis, Debye-Ang):
   XX=              1.3278   YY=              2.7785   ZZ=             -4.1063
   XY=              5.7553   XZ=              0.0000   YZ=              0.0000
 Octapole moment (field-independent basis, Debye-Ang**2):
  XXX=              0.1488  YYY=            -34.0532  ZZZ=              0.0000  XYY=              9.9374
  XXY=             -2.5901  XXZ=              0.0000  XZZ=              0.1955  YZZ=             -0.8676
  YYZ=              0.0000  XYZ=              0.0000
 Hexadecapole moment (field-independent basis, Debye-Ang**3):
 XXXX=            -11.4172 YYYY=           -182.8531 ZZZZ=            -12.2553 XXXY=              3.3360
 XXXZ=              0.0000 YYYX=             14.4880 YYYZ=              0.0000 ZZZX=              0.0000
 ZZZY=              0.0000 XXYY=            -27.9583 XXZZ=             -4.5418 YYZZ=            -46.8633
 XXYZ=              0.0000 YYXZ=              0.0000 ZZXY=             -0.7341
 N-N= 2.369269618220D+01 E-N=-1.290406671937D+02  KE= 2.679563288326D+01
 Symmetry A'   KE= 1.793306893300D+01
 Symmetry A"   KE= 8.862563950261D+00
 Leave Link  601 at Sun Dec 10 06:49:58 2023, MaxMem=   536870912 cpu:               0.1 elap:               0.0
 (Enter /usr/site/hpc/x86_64/glibc-2.17/broadwell/gaussian/g16_a.03/pgi-16.5/g16/l9999.exe)
 1\1\GINC-N044\SP\RCCSD(T)-FC\CEP-31G\H4O2\ROOT\10-Dec-2023\0\\#p CCSD(
 T)/CEP-31G\\H2O_H2O_1646\\0,1\O,0,0.,-0.009833,0.\H,0,-0.799571,-0.580
 965,0.\H,0,0.799571,-0.580965,0.\O,0,-2.725307,-1.94171,0.\H,0,-3.4414
 54,-1.268925,0.\H,0,-3.129477,-2.837341,0.\\Version=ES64L-G16RevA.03\S
 tate=1-A'\HF=-33.6604344\MP2=-33.8891086\MP3=-33.8943498\MP4D=-33.8994
 528\MP4DQ=-33.9001874\MP4SDQ=-33.902282\CCSD=-33.9032942\CCSD(T)=-33.9
 059464\RMSD=1.053e-09\PG=CS [SG(H4O2)]\\@


 THE DIFFICULTY IN SCIENCE IS OFTEN NOT SO MUCH HOW
 TO MAKE A DISCOVERY BUT RATHER TO KNOW ONE HAS MADE IT.

                                                   -- J. D. BERNAL
 Job cpu time:       0 days  0 hours  0 minutes  3.4 seconds.
 Elapsed time:       0 days  0 hours  0 minutes  1.0 seconds.
 File lengths (MBytes):  RWF=     72 Int=      0 D2E=      0 Chk=      8 Scr=      8
 Normal termination of Gaussian 16 at Sun Dec 10 06:49:58 2023.
