 Entering Gaussian System, Link 0=g16
 Input=H2O_H2O_1853.com
 Output=H2O_H2O_1853.log
 Initial command:
 /usr/site/hpc/x86_64/glibc-2.17/broadwell/gaussian/g16_a.03/pgi-16.5/g16/l1.exe "/gpfs/gpfs1/scratch/c7441090/OH Coord/Gau-1696641.inp" -scrdir="/gpfs/gpfs1/scratch/c7441090/OH Coord/"
 Entering Link 1 = /usr/site/hpc/x86_64/glibc-2.17/broadwell/gaussian/g16_a.03/pgi-16.5/g16/l1.exe PID=   1696642.
  
 Copyright (c) 1988,1990,1992,1993,1995,1998,2003,2009,2016,
            Gaussian, Inc.  All Rights Reserved.
  
 This is part of the Gaussian(R) 16 program.  It is based on
 the Gaussian(R) 09 system (copyright 2009, Gaussian, Inc.),
 the Gaussian(R) 03 system (copyright 2003, Gaussian, Inc.),
 the Gaussian(R) 98 system (copyright 1998, Gaussian, Inc.),
 the Gaussian(R) 94 system (copyright 1995, Gaussian, Inc.),
 the Gaussian 92(TM) system (copyright 1992, Gaussian, Inc.),
 the Gaussian 90(TM) system (copyright 1990, Gaussian, Inc.),
 the Gaussian 88(TM) system (copyright 1988, Gaussian, Inc.),
 the Gaussian 86(TM) system (copyright 1986, Carnegie Mellon
 University), and the Gaussian 82(TM) system (copyright 1983,
 Carnegie Mellon University). Gaussian is a federally registered
 trademark of Gaussian, Inc.
  
 This software contains proprietary and confidential information,
 including trade secrets, belonging to Gaussian, Inc.
  
 This software is provided under written license and may be
 used, copied, transmitted, or stored only in accord with that
 written license.
  
 The following legend is applicable only to US Government
 contracts under FAR:
  
                    RESTRICTED RIGHTS LEGEND
  
 Use, reproduction and disclosure by the US Government is
 subject to restrictions as set forth in subparagraphs (a)
 and (c) of the Commercial Computer Software - Restricted
 Rights clause in FAR 52.227-19.
  
 Gaussian, Inc.
 340 Quinnipiac St., Bldg. 40, Wallingford CT 06492
  
  
 ---------------------------------------------------------------
 Warning -- This program may not be used in any manner that
 competes with the business of Gaussian, Inc. or will provide
 assistance to any competitor of Gaussian, Inc.  The licensee
 of this program is prohibited from giving any competitor of
 Gaussian, Inc. access to this program.  By using this program,
 the user acknowledges that Gaussian, Inc. is engaged in the
 business of creating and licensing software in the field of
 computational chemistry and represents and warrants to the
 licensee that it is not a competitor of Gaussian, Inc. and that
 it will not use this program in any manner prohibited above.
 ---------------------------------------------------------------
  

 Cite this work as:
 Gaussian 16, Revision A.03,
 M. J. Frisch, G. W. Trucks, H. B. Schlegel, G. E. Scuseria, 
 M. A. Robb, J. R. Cheeseman, G. Scalmani, V. Barone, 
 G. A. Petersson, H. Nakatsuji, X. Li, M. Caricato, A. V. Marenich, 
 J. Bloino, B. G. Janesko, R. Gomperts, B. Mennucci, H. P. Hratchian, 
 J. V. Ortiz, A. F. Izmaylov, J. L. Sonnenberg, D. Williams-Young, 
 F. Ding, F. Lipparini, F. Egidi, J. Goings, B. Peng, A. Petrone, 
 T. Henderson, D. Ranasinghe, V. G. Zakrzewski, J. Gao, N. Rega, 
 G. Zheng, W. Liang, M. Hada, M. Ehara, K. Toyota, R. Fukuda, 
 J. Hasegawa, M. Ishida, T. Nakajima, Y. Honda, O. Kitao, H. Nakai, 
 T. Vreven, K. Throssell, J. A. Montgomery, Jr., J. E. Peralta, 
 F. Ogliaro, M. J. Bearpark, J. J. Heyd, E. N. Brothers, K. N. Kudin, 
 V. N. Staroverov, T. A. Keith, R. Kobayashi, J. Normand, 
 K. Raghavachari, A. P. Rendell, J. C. Burant, S. S. Iyengar, 
 J. Tomasi, M. Cossi, J. M. Millam, M. Klene, C. Adamo, R. Cammi, 
 J. W. Ochterski, R. L. Martin, K. Morokuma, O. Farkas, 
 J. B. Foresman, and D. J. Fox, Gaussian, Inc., Wallingford CT, 2016.
 
 ******************************************
 Gaussian 16:  ES64L-G16RevA.03 25-Dec-2016
                10-Dec-2023 
 ******************************************
 %NProcShared=4
 Will use up to    4 processors via shared memory.
 %Mem=4GB
 %Chk=H2O_H2O_1853.chk
 ------------------
 #p CCSD(T)/CEP-31G
 ------------------
 1/38=1,172=1/1;
 2/12=2,17=6,18=5,40=1/2;
 3/5=9,6=1,11=9,25=1,30=1/1,2,3;
 4//1;
 5/5=2,38=5/2;
 8/6=4,9=120000,10=1/1,4;
 9/5=7,14=2/13;
 6/7=2,8=2,9=2,10=2/1;
 99/5=1,9=1/99;
 Leave Link    1 at Sun Dec 10 06:53:51 2023, MaxMem=   536870912 cpu:               0.2 elap:               0.1
 (Enter /usr/site/hpc/x86_64/glibc-2.17/broadwell/gaussian/g16_a.03/pgi-16.5/g16/l101.exe)
 ------------
 H2O_H2O_1853
 ------------
 Symbolic Z-matrix:
 Charge =  0 Multiplicity = 1
 O                     0.       -0.00983   0. 
 H                    -0.79957  -0.58097   0. 
 H                     0.79957  -0.58097   0. 
 O                    -2.86364  -2.05377   0. 
 H                    -3.75927  -2.45794   0. 
 H                    -2.19086  -2.76991   0. 
 
 ITRead=  0  0  0  0  0  0
 MicOpt= -1 -1 -1 -1 -1 -1
 NAtoms=      6 NQM=        6 NQMF=       0 NMMI=      0 NMMIF=      0
                NMic=       0 NMicF=      0.
                    Isotopes and Nuclear Properties:
 (Nuclear quadrupole moments (NQMom) in fm**2, nuclear magnetic moments (NMagM)
  in nuclear magnetons)

  Atom         1           2           3           4           5           6
 IAtWgt=          16           1           1          16           1           1
 AtmWgt=  15.9949146   1.0078250   1.0078250  15.9949146   1.0078250   1.0078250
 NucSpn=           0           1           1           0           1           1
 AtZEff=  -0.0000000  -0.0000000  -0.0000000  -0.0000000  -0.0000000  -0.0000000
 NQMom=    0.0000000   0.0000000   0.0000000   0.0000000   0.0000000   0.0000000
 NMagM=    0.0000000   2.7928460   2.7928460   0.0000000   2.7928460   2.7928460
 AtZNuc=   8.0000000   1.0000000   1.0000000   8.0000000   1.0000000   1.0000000
 Leave Link  101 at Sun Dec 10 06:53:51 2023, MaxMem=   536870912 cpu:               0.3 elap:               0.1
 (Enter /usr/site/hpc/x86_64/glibc-2.17/broadwell/gaussian/g16_a.03/pgi-16.5/g16/l202.exe)
                          Input orientation:                          
 ---------------------------------------------------------------------
 Center     Atomic      Atomic             Coordinates (Angstroms)
 Number     Number       Type             X           Y           Z
 ---------------------------------------------------------------------
      1          8           0        0.000000   -0.009833    0.000000
      2          1           0       -0.799571   -0.580965    0.000000
      3          1           0        0.799571   -0.580965    0.000000
      4          8           0       -2.863642   -2.053767    0.000000
      5          1           0       -3.759272   -2.457936    0.000000
      6          1           0       -2.190856   -2.769913    0.000000
 ---------------------------------------------------------------------
                    Distance matrix (angstroms):
                    1          2          3          4          5
     1  O    0.000000
     2  H    0.982601   0.000000
     3  H    0.982601   1.599142   0.000000
     4  O    3.518254   2.535653   3.948199   0.000000
     5  H    4.486127   3.504690   4.930119   0.982601   0.000000
     6  H    3.523903   2.593678   3.705961   0.982602   1.599143
                    6
     6  H    0.000000
 Stoichiometry    H4O2
 Framework group  CS[SG(H4O2)]
 Deg. of freedom     9
 Full point group                 CS      NOp   2
 Largest Abelian subgroup         CS      NOp   2
 Largest concise Abelian subgroup C1      NOp   1
                         Standard orientation:                         
 ---------------------------------------------------------------------
 Center     Atomic      Atomic             Coordinates (Angstroms)
 Number     Number       Type             X           Y           Z
 ---------------------------------------------------------------------
      1          8           0        0.085607   -1.833919    0.000000
      2          1           0        0.085252   -0.851317    0.000000
      3          1           0       -0.843771   -2.152920    0.000000
      4          8           0        0.085607    1.684336    0.000000
      5          1           0        0.276956    2.648126    0.000000
      6          1           0       -0.888148    1.552775    0.000000
 ---------------------------------------------------------------------
 Rotational constants (GHZ):         285.1420898           4.4315775           4.3637575
 Leave Link  202 at Sun Dec 10 06:53:51 2023, MaxMem=   536870912 cpu:               0.1 elap:               0.0
 (Enter /usr/site/hpc/x86_64/glibc-2.17/broadwell/gaussian/g16_a.03/pgi-16.5/g16/l301.exe)
 Standard basis: CEP-31G (6D, 10F)
 Ernie: Thresh=  0.10000D-02 Tol=  0.10000D-05 Strict=F.
 There are    20 symmetry adapted cartesian basis functions of A'  symmetry.
 There are     4 symmetry adapted cartesian basis functions of A"  symmetry.
 There are    20 symmetry adapted basis functions of A'  symmetry.
 There are     4 symmetry adapted basis functions of A"  symmetry.
    24 basis functions,    48 primitive gaussians,    24 cartesian basis functions
     8 alpha electrons        8 beta electrons
       nuclear repulsion energy        23.2719331539 Hartrees.
 IExCor=    0 DFT=F Ex=HF Corr=None ExCW=0 ScaHFX=  1.000000
 ScaDFX=  1.000000  1.000000  1.000000  1.000000 ScalE2=  1.000000  1.000000
 IRadAn=      5 IRanWt=     -1 IRanGd=            0 ICorTp=0 IEmpDi=  4
 NAtoms=    6 NActive=    6 NUniq=    6 SFac= 1.00D+00 NAtFMM=   60 NAOKFM=F Big=F
 Integral buffers will be    131072 words long.
 Raffenetti 1 integral format.
 Two-electron integral symmetry is turned on.
 Leave Link  301 at Sun Dec 10 06:53:51 2023, MaxMem=   536870912 cpu:               0.2 elap:               0.1
 (Enter /usr/site/hpc/x86_64/glibc-2.17/broadwell/gaussian/g16_a.03/pgi-16.5/g16/l302.exe)
 NPDir=0 NMtPBC=     1 NCelOv=     1 NCel=       1 NClECP=     1 NCelD=      1
         NCelK=      1 NCelE2=     1 NClLst=     1 CellRange=     0.0.
 One-electron integrals computed using PRISM.
 One-electron integral symmetry used in STVInt
   2 Symmetry operations used in ECPInt.
 ECPInt:  NShTT=      78 NPrTT=     318 LenC2=      79 LenP2D=     284.
 LDataN:  DoStor=T MaxTD1= 2 Len=   12
 NBasis=    24 RedAO= T EigKep=  2.88D-02  NBF=    20     4
 NBsUse=    24 1.00D-06 EigRej= -1.00D+00 NBFU=    20     4
 Leave Link  302 at Sun Dec 10 06:53:51 2023, MaxMem=   536870912 cpu:               0.3 elap:               0.1
 (Enter /usr/site/hpc/x86_64/glibc-2.17/broadwell/gaussian/g16_a.03/pgi-16.5/g16/l303.exe)
 DipDrv:  MaxL=1.
 Leave Link  303 at Sun Dec 10 06:53:51 2023, MaxMem=   536870912 cpu:               0.1 elap:               0.0
 (Enter /usr/site/hpc/x86_64/glibc-2.17/broadwell/gaussian/g16_a.03/pgi-16.5/g16/l401.exe)
 ExpMin= 1.78D-01 ExpMax= 1.92D+01 ExpMxC= 1.92D+01 IAcc=3 IRadAn=         5 AccDes= 0.00D+00
 Harris functional with IExCor=  205 and IRadAn=       5 diagonalized for initial guess.
 HarFok:  IExCor=  205 AccDes= 0.00D+00 IRadAn=         5 IDoV= 1 UseB2=F ITyADJ=14
 ICtDFT=  3500011 ScaDFX=  1.000000  1.000000  1.000000  1.000000
 FoFCou: FMM=F IPFlag=           0 FMFlag=      100000 FMFlg1=           0
         NFxFlg=           0 DoJE=T BraDBF=F KetDBF=T FulRan=T
         wScrn=  0.000000 ICntrl=       500 IOpCl=  0 I1Cent=   200000004 NGrid=           0
         NMat0=    1 NMatS0=      1 NMatT0=    0 NMatD0=    1 NMtDS0=    0 NMtDT0=    0
 Petite list used in FoFCou.
 Harris En= -34.4775082504559    
 JPrj=0 DoOrth=F DoCkMO=F.
 Initial guess orbital symmetries:
       Occupied  (A') (A') (A') (A') (A') (A') (A") (A")
       Virtual   (A') (A') (A') (A') (A") (A') (A") (A') (A') (A')
                 (A') (A') (A') (A') (A') (A')
 The electronic state of the initial guess is 1-A'.
 Leave Link  401 at Sun Dec 10 06:53:51 2023, MaxMem=   536870912 cpu:               0.4 elap:               0.1
 (Enter /usr/site/hpc/x86_64/glibc-2.17/broadwell/gaussian/g16_a.03/pgi-16.5/g16/l502.exe)
 Keep R1 ints in memory in symmetry-blocked form, NReq=852518.
 FoFCou: FMM=F IPFlag=           0 FMFlag=           0 FMFlg1=           0
         NFxFlg=           0 DoJE=F BraDBF=F KetDBF=F FulRan=T
         wScrn=  0.000000 ICntrl=       600 IOpCl=  0 I1Cent=           0 NGrid=           0
         NMat0=    1 NMatS0=    300 NMatT0=    0 NMatD0=    1 NMtDS0=    0 NMtDT0=    0
 Petite list used in FoFCou.
 Closed shell SCF:
 Using DIIS extrapolation, IDIIS=  1040.
 NGot=   536870912 LenX=   536840576 LenY=   536839559
 Requested convergence on RMS density matrix=1.00D-08 within 128 cycles.
 Requested convergence on MAX density matrix=1.00D-06.
 Requested convergence on             energy=1.00D-06.
 No special actions if energy rises.

 Cycle   1  Pass 1  IDiag  1:
 E= -33.5641545464604    
 DIIS: error= 6.73D-02 at cycle   1 NSaved=   1.
 NSaved= 1 IEnMin= 1 EnMin= -33.5641545464604     IErMin= 1 ErrMin= 6.73D-02
 ErrMax= 6.73D-02  0.00D+00 EMaxC= 1.00D-01 BMatC= 9.89D-02 BMatP= 9.89D-02
 IDIUse=3 WtCom= 3.27D-01 WtEn= 6.73D-01
 Coeff-Com:  0.100D+01
 Coeff-En:   0.100D+01
 Coeff:      0.100D+01
 Gap=     0.580 Goal=   None    Shift=    0.000
 GapD=    0.580 DampG=2.000 DampE=0.500 DampFc=1.0000 IDamp=-1.
 RMSDP=1.45D-02 MaxDP=1.19D-01              OVMax= 9.91D-02

 Cycle   2  Pass 1  IDiag  1:
 E= -33.6249021787277     Delta-E=       -0.060747632267 Rises=F Damp=F
 DIIS: error= 3.63D-02 at cycle   2 NSaved=   2.
 NSaved= 2 IEnMin= 2 EnMin= -33.6249021787277     IErMin= 2 ErrMin= 3.63D-02
 ErrMax= 3.63D-02  0.00D+00 EMaxC= 1.00D-01 BMatC= 3.63D-02 BMatP= 9.89D-02
 IDIUse=3 WtCom= 6.37D-01 WtEn= 3.63D-01
 Coeff-Com:  0.375D+00 0.625D+00
 Coeff-En:   0.102D+00 0.898D+00
 Coeff:      0.276D+00 0.724D+00
 Gap=     0.661 Goal=   None    Shift=    0.000
 RMSDP=6.25D-03 MaxDP=5.34D-02 DE=-6.07D-02 OVMax= 3.52D-02

 Cycle   3  Pass 1  IDiag  1:
 E= -33.6539051911745     Delta-E=       -0.029003012447 Rises=F Damp=F
 DIIS: error= 6.98D-03 at cycle   3 NSaved=   3.
 NSaved= 3 IEnMin= 3 EnMin= -33.6539051911745     IErMin= 3 ErrMin= 6.98D-03
 ErrMax= 6.98D-03  0.00D+00 EMaxC= 1.00D-01 BMatC= 8.68D-04 BMatP= 3.63D-02
 IDIUse=3 WtCom= 9.30D-01 WtEn= 6.98D-02
 Coeff-Com: -0.113D+00-0.158D-01 0.113D+01
 Coeff-En:   0.000D+00 0.000D+00 0.100D+01
 Coeff:     -0.105D+00-0.147D-01 0.112D+01
 Gap=     0.654 Goal=   None    Shift=    0.000
 RMSDP=1.06D-03 MaxDP=8.80D-03 DE=-2.90D-02 OVMax= 8.05D-03

 Cycle   4  Pass 1  IDiag  1:
 E= -33.6547644976732     Delta-E=       -0.000859306499 Rises=F Damp=F
 DIIS: error= 7.04D-04 at cycle   4 NSaved=   4.
 NSaved= 4 IEnMin= 4 EnMin= -33.6547644976732     IErMin= 4 ErrMin= 7.04D-04
 ErrMax= 7.04D-04  0.00D+00 EMaxC= 1.00D-01 BMatC= 5.49D-06 BMatP= 8.68D-04
 IDIUse=3 WtCom= 9.93D-01 WtEn= 7.04D-03
 Coeff-Com:  0.423D-01-0.173D-01-0.512D+00 0.149D+01
 Coeff-En:   0.000D+00 0.000D+00 0.000D+00 0.100D+01
 Coeff:      0.420D-01-0.172D-01-0.508D+00 0.148D+01
 Gap=     0.655 Goal=   None    Shift=    0.000
 RMSDP=2.35D-04 MaxDP=1.90D-03 DE=-8.59D-04 OVMax= 1.14D-03

 Cycle   5  Pass 1  IDiag  1:
 E= -33.6547769732586     Delta-E=       -0.000012475585 Rises=F Damp=F
 DIIS: error= 5.40D-05 at cycle   5 NSaved=   5.
 NSaved= 5 IEnMin= 5 EnMin= -33.6547769732586     IErMin= 5 ErrMin= 5.40D-05
 ErrMax= 5.40D-05  0.00D+00 EMaxC= 1.00D-01 BMatC= 4.08D-08 BMatP= 5.49D-06
 IDIUse=1 WtCom= 1.00D+00 WtEn= 0.00D+00
 Coeff-Com: -0.727D-02 0.322D-02 0.890D-01-0.311D+00 0.123D+01
 Coeff:     -0.727D-02 0.322D-02 0.890D-01-0.311D+00 0.123D+01
 Gap=     0.656 Goal=   None    Shift=    0.000
 RMSDP=1.78D-05 MaxDP=1.69D-04 DE=-1.25D-05 OVMax= 1.11D-04

 Cycle   6  Pass 1  IDiag  1:
 E= -33.6547770751690     Delta-E=       -0.000000101910 Rises=F Damp=F
 DIIS: error= 1.02D-05 at cycle   6 NSaved=   6.
 NSaved= 6 IEnMin= 6 EnMin= -33.6547770751690     IErMin= 6 ErrMin= 1.02D-05
 ErrMax= 1.02D-05  0.00D+00 EMaxC= 1.00D-01 BMatC= 2.05D-09 BMatP= 4.08D-08
 IDIUse=1 WtCom= 1.00D+00 WtEn= 0.00D+00
 Coeff-Com:  0.633D-03-0.170D-03-0.732D-02 0.315D-01-0.270D+00 0.124D+01
 Coeff:      0.633D-03-0.170D-03-0.732D-02 0.315D-01-0.270D+00 0.124D+01
 Gap=     0.656 Goal=   None    Shift=    0.000
 RMSDP=3.70D-06 MaxDP=2.16D-05 DE=-1.02D-07 OVMax= 3.29D-05

 Cycle   7  Pass 1  IDiag  1:
 E= -33.6547770803497     Delta-E=       -0.000000005181 Rises=F Damp=F
 DIIS: error= 2.72D-06 at cycle   7 NSaved=   7.
 NSaved= 7 IEnMin= 7 EnMin= -33.6547770803497     IErMin= 7 ErrMin= 2.72D-06
 ErrMax= 2.72D-06  0.00D+00 EMaxC= 1.00D-01 BMatC= 2.97D-10 BMatP= 2.05D-09
 IDIUse=1 WtCom= 1.00D+00 WtEn= 0.00D+00
 Coeff-Com:  0.766D-03-0.328D-03-0.932D-02 0.335D-01-0.154D+00 0.239D+00
 Coeff-Com:  0.890D+00
 Coeff:      0.766D-03-0.328D-03-0.932D-02 0.335D-01-0.154D+00 0.239D+00
 Coeff:      0.890D+00
 Gap=     0.656 Goal=   None    Shift=    0.000
 RMSDP=1.01D-06 MaxDP=6.36D-06 DE=-5.18D-09 OVMax= 1.00D-05

 Cycle   8  Pass 1  IDiag  1:
 E= -33.6547770808374     Delta-E=       -0.000000000488 Rises=F Damp=F
 DIIS: error= 9.33D-07 at cycle   8 NSaved=   8.
 NSaved= 8 IEnMin= 8 EnMin= -33.6547770808374     IErMin= 8 ErrMin= 9.33D-07
 ErrMax= 9.33D-07  0.00D+00 EMaxC= 1.00D-01 BMatC= 2.63D-11 BMatP= 2.97D-10
 IDIUse=1 WtCom= 1.00D+00 WtEn= 0.00D+00
 Coeff-Com:  0.931D-05-0.298D-04-0.190D-03-0.164D-03 0.228D-01-0.158D+00
 Coeff-Com:  0.517D-01 0.108D+01
 Coeff:      0.931D-05-0.298D-04-0.190D-03-0.164D-03 0.228D-01-0.158D+00
 Coeff:      0.517D-01 0.108D+01
 Gap=     0.656 Goal=   None    Shift=    0.000
 RMSDP=4.47D-07 MaxDP=2.62D-06 DE=-4.88D-10 OVMax= 3.79D-06

 Cycle   9  Pass 1  IDiag  1:
 E= -33.6547770808934     Delta-E=       -0.000000000056 Rises=F Damp=F
 DIIS: error= 1.43D-07 at cycle   9 NSaved=   9.
 NSaved= 9 IEnMin= 9 EnMin= -33.6547770808934     IErMin= 9 ErrMin= 1.43D-07
 ErrMax= 1.43D-07  0.00D+00 EMaxC= 1.00D-01 BMatC= 6.65D-13 BMatP= 2.63D-11
 IDIUse=1 WtCom= 1.00D+00 WtEn= 0.00D+00
 Coeff-Com:  0.354D-05 0.723D-05-0.740D-05 0.246D-03-0.842D-02 0.604D-01
 Coeff-Com: -0.379D-01-0.434D+00 0.142D+01
 Coeff:      0.354D-05 0.723D-05-0.740D-05 0.246D-03-0.842D-02 0.604D-01
 Coeff:     -0.379D-01-0.434D+00 0.142D+01
 Gap=     0.656 Goal=   None    Shift=    0.000
 RMSDP=1.17D-07 MaxDP=4.84D-07 DE=-5.60D-11 OVMax= 7.78D-07

 Cycle  10  Pass 1  IDiag  1:
 E= -33.6547770808952     Delta-E=       -0.000000000002 Rises=F Damp=F
 DIIS: error= 1.27D-08 at cycle  10 NSaved=  10.
 NSaved=10 IEnMin=10 EnMin= -33.6547770808952     IErMin=10 ErrMin= 1.27D-08
 ErrMax= 1.27D-08  0.00D+00 EMaxC= 1.00D-01 BMatC= 6.03D-15 BMatP= 6.65D-13
 IDIUse=1 WtCom= 1.00D+00 WtEn= 0.00D+00
 Coeff-Com:  0.210D-06-0.185D-05-0.101D-04-0.464D-05 0.154D-02-0.124D-01
 Coeff-Com:  0.901D-02 0.897D-01-0.374D+00 0.129D+01
 Coeff:      0.210D-06-0.185D-05-0.101D-04-0.464D-05 0.154D-02-0.124D-01
 Coeff:      0.901D-02 0.897D-01-0.374D+00 0.129D+01
 Gap=     0.656 Goal=   None    Shift=    0.000
 RMSDP=1.49D-08 MaxDP=7.48D-08 DE=-1.78D-12 OVMax= 9.27D-08

 Cycle  11  Pass 1  IDiag  1:
 E= -33.6547770808952     Delta-E=       -0.000000000000 Rises=F Damp=F
 DIIS: error= 9.43D-10 at cycle  11 NSaved=  11.
 NSaved=11 IEnMin=11 EnMin= -33.6547770808952     IErMin=11 ErrMin= 9.43D-10
 ErrMax= 9.43D-10  0.00D+00 EMaxC= 1.00D-01 BMatC= 2.97D-17 BMatP= 6.03D-15
 IDIUse=1 WtCom= 1.00D+00 WtEn= 0.00D+00
 Coeff-Com: -0.106D-06 0.396D-06 0.276D-05-0.172D-05-0.308D-03 0.257D-02
 Coeff-Com: -0.195D-02-0.186D-01 0.796D-01-0.310D+00 0.125D+01
 Coeff:     -0.106D-06 0.396D-06 0.276D-05-0.172D-05-0.308D-03 0.257D-02
 Coeff:     -0.195D-02-0.186D-01 0.796D-01-0.310D+00 0.125D+01
 Gap=     0.656 Goal=   None    Shift=    0.000
 RMSDP=8.16D-10 MaxDP=5.07D-09 DE=-4.26D-14 OVMax= 4.70D-09

 SCF Done:  E(RHF) =  -33.6547770809     A.U. after   11 cycles
            NFock= 11  Conv=0.82D-09     -V/T= 2.2566
 KE= 2.678288295543D+01 PE=-1.281093302158D+02 EE= 4.439973702553D+01
 Leave Link  502 at Sun Dec 10 06:53:51 2023, MaxMem=   536870912 cpu:               0.3 elap:               0.1
 (Enter /usr/site/hpc/x86_64/glibc-2.17/broadwell/gaussian/g16_a.03/pgi-16.5/g16/l801.exe)
 Windowed orbitals will be sorted by symmetry type.
 Range of M.O.s used for correlation:     1    24
 NBasis=    24 NAE=     8 NBE=     8 NFC=     0 NFV=     0
 NROrb=     24 NOA=     8 NOB=     8 NVA=    16 NVB=    16
 Leave Link  801 at Sun Dec 10 06:53:51 2023, MaxMem=   536870912 cpu:               0.1 elap:               0.0
 (Enter /usr/site/hpc/x86_64/glibc-2.17/broadwell/gaussian/g16_a.03/pgi-16.5/g16/l804.exe)
 Closed-shell transformation, MDV=   536870912 ITran=4 ISComp=2.
 Unit  1 TFree=       1025975 TCopy=        210600.
 Semi-Direct transformation.
 ModeAB=           2 MOrb=             8 LenV=     536741775
 LASXX=        22470 LTotXX=       22470 LenRXX=       22470
 LTotAB=       26208 MaxLAS=       57600 LenRXY=       57600
 NonZer=       62208 LenScr=      524288 LnRSAI=           0
 LnScr1=           0 LExtra=           0 Total=       604358
 MaxDsk=          -1 SrtSym=           F ITran=            4
 DoSDTr:  NPSUse=  4
 JobTyp=0 Pass  1:  I=   1 to   8.
 (rs|ai) integrals will be sorted in core.
 Complete sort for first half transformation.
 First half transformation complete.
 Complete sort for second half transformation.
 Second half transformation complete.
 Spin components of T(2) and E(2):
     alpha-alpha T2 =       0.9092136219D-02 E2=     -0.2601101065D-01
     alpha-beta  T2 =       0.5981716604D-01 E2=     -0.1767848722D+00
     beta-beta   T2 =       0.9092136219D-02 E2=     -0.2601101065D-01
 ANorm=    0.1038268481D+01
 E2 =    -0.2288068935D+00 EUMP2 =    -0.33883583974377D+02
 Leave Link  804 at Sun Dec 10 06:53:51 2023, MaxMem=   536870912 cpu:               0.2 elap:               0.1
 (Enter /usr/site/hpc/x86_64/glibc-2.17/broadwell/gaussian/g16_a.03/pgi-16.5/g16/l913.exe)
 CIDS:  MDV=   536870912.
 IFCWin=0 IBDFC=1 NFBD=     0     0 NFCmp=     0     0 NFFFC=     0     0
 Using DD3R+UMP44R for 1st iteration.
 Using DD4RQ for 2nd and later iterations.
 Keep R2 and R3 ints in memory in symmetry-blocked form, NReq=865126.
 FoFCou: FMM=F IPFlag=           0 FMFlag=           0 FMFlg1=           0
         NFxFlg=           0 DoJE=F BraDBF=F KetDBF=F FulRan=T
         wScrn=  0.000000 ICntrl=       600 IOpCl=  0 I1Cent=           0 NGrid=           0
         NMat0=    1 NMatS0=    300 NMatT0=    0 NMatD0=    1 NMtDS0=    0 NMtDT0=    0
 Petite list used in FoFCou.
 CIDS: In Core Option IDoMem=           1.
 CCSD(T)
 =======
 Iterations=  50 Convergence= 0.100D-06
 Produce multiple copies of IABC intergrals
 Iteration Nr.   1
 **********************
 DD1Dir will call FoFMem   1 times, MxPair=        72
 NAB=    36 NAA=     0 NBB=     0.
 MP4(R+Q)= -0.72841572D-03
 Maximum subspace dimension=  5
 A-vector RMS=  5.8953606D-03 Max=  1.2698890D-02 conv= 1.00D-05.
 RLE energy=       -0.2347651272
 E3=       -0.53557598D-02        EUMP3=      -0.33888939734D+02
 E4(DQ)=   -0.58820666D-02        UMP4(DQ)=   -0.33894821801D+02
 E4(SDQ)=  -0.79935032D-02        UMP4(SDQ)=  -0.33896933237D+02
 VARIATIONAL ENERGIES WITH THE FIRST-ORDER WAVEFUNCTION:
 DE(Corr)= -0.23461425     E(Corr)=     -33.889391335    
 NORM(A)=   0.10416972D+01
 Iteration Nr.   2
 **********************
 DD1Dir will call FoFMem   1 times, MxPair=        72
 NAB=    36 NAA=     0 NBB=     0.
 A-vector RMS=  9.7341534D-04 Max=  2.6668728D-03 conv= 1.00D-05.
 RLE energy=       -0.2425792436
 DE(Corr)= -0.24065361     E(CORR)=     -33.895430694     Delta=-6.04D-03
 NORM(A)=   0.10455050D+01
 Iteration Nr.   3
 **********************
 DD1Dir will call FoFMem   1 times, MxPair=        72
 NAB=    36 NAA=     0 NBB=     0.
 A-vector RMS=  3.9936375D-04 Max=  1.0019492D-03 conv= 1.00D-05.
 RLE energy=       -0.2431305798
 DE(Corr)= -0.24267776     E(CORR)=     -33.897454839     Delta=-2.02D-03
 NORM(A)=   0.10460676D+01
 Iteration Nr.   4
 **********************
 DD1Dir will call FoFMem   1 times, MxPair=        72
 NAB=    36 NAA=     0 NBB=     0.
 A-vector RMS=  9.6690932D-05 Max=  2.5404478D-04 conv= 1.00D-05.
 RLE energy=       -0.2431799294
 DE(Corr)= -0.24314381     E(CORR)=     -33.897920896     Delta=-4.66D-04
 NORM(A)=   0.10461396D+01
 Iteration Nr.   5
 **********************
 DD1Dir will call FoFMem   1 times, MxPair=        72
 NAB=    36 NAA=     0 NBB=     0.
 A-vector RMS=  4.3263904D-05 Max=  1.5434871D-04 conv= 1.00D-05.
 RLE energy=       -0.2431796070
 DE(Corr)= -0.24317643     E(CORR)=     -33.897953508     Delta=-3.26D-05
 NORM(A)=   0.10461494D+01
 Iteration Nr.   6
 **********************
 DD1Dir will call FoFMem   1 times, MxPair=        72
 NAB=    36 NAA=     0 NBB=     0.
 A-vector RMS=  1.5856220D-05 Max=  5.5051064D-05 conv= 1.00D-05.
 RLE energy=       -0.2431761508
 DE(Corr)= -0.24317923     E(CORR)=     -33.897956306     Delta=-2.80D-06
 NORM(A)=   0.10461517D+01
 Iteration Nr.   7
 **********************
 DD1Dir will call FoFMem   1 times, MxPair=        72
 NAB=    36 NAA=     0 NBB=     0.
 A-vector RMS=  5.7277365D-06 Max=  2.2130520D-05 conv= 1.00D-05.
 RLE energy=       -0.2431781194
 DE(Corr)= -0.24317882     E(CORR)=     -33.897955905     Delta= 4.02D-07
 NORM(A)=   0.10461535D+01
 Iteration Nr.   8
 **********************
 DD1Dir will call FoFMem   1 times, MxPair=        72
 NAB=    36 NAA=     0 NBB=     0.
 A-vector RMS=  1.8819391D-06 Max=  7.4811030D-06 conv= 1.00D-05.
 RLE energy=       -0.2431783121
 DE(Corr)= -0.24317845     E(CORR)=     -33.897955529     Delta= 3.76D-07
 NORM(A)=   0.10461541D+01
 Iteration Nr.   9
 **********************
 DD1Dir will call FoFMem   1 times, MxPair=        72
 NAB=    36 NAA=     0 NBB=     0.
 A-vector RMS=  5.4758339D-07 Max=  2.0238169D-06 conv= 1.00D-05.
 RLE energy=       -0.2431785342
 DE(Corr)= -0.24317858     E(CORR)=     -33.897955666     Delta=-1.37D-07
 NORM(A)=   0.10461544D+01
 Iteration Nr.  10
 **********************
 DD1Dir will call FoFMem   1 times, MxPair=        72
 NAB=    36 NAA=     0 NBB=     0.
 A-vector RMS=  1.5121296D-07 Max=  5.1981250D-07 conv= 1.00D-05.
 RLE energy=       -0.2431787119
 DE(Corr)= -0.24317868     E(CORR)=     -33.897955761     Delta=-9.47D-08
 NORM(A)=   0.10461546D+01
 CI/CC converged in   10 iterations to DelEn=-9.47D-08 Conv= 1.00D-07 ErrA1= 1.51D-07 Conv= 1.00D-05
 Wavefunction amplitudes converged. E(Corr)=     -33.897955761    
 Largest amplitude= 5.14D-02
 IPart=  4 IA=    2   12.50% done.
 IPart=  3 IA=    3   24.17% done.
 IPart=  2 IA=    4   35.00% done.
 IPart=  2 IA=    5   45.00% done.
 IPart=  3 IA=    6   54.17% done.
 IPart=  4 IA=    7   62.50% done.
 IPart=  1 IA=    8   70.00% done.
 IPart=  3 IA=   10   82.50% done.
 IPart=  1 IA=   12   91.67% done.
 Time for triples=        0.25 seconds.
 T4(CCSD)= -0.31815276D-02
 T5(CCSD)=  0.54203537D-03
 CCSD(T)= -0.33900595253D+02
 Discarding MO integrals.
 Leave Link  913 at Sun Dec 10 06:53:52 2023, MaxMem=   536870912 cpu:               1.0 elap:               0.3
 (Enter /usr/site/hpc/x86_64/glibc-2.17/broadwell/gaussian/g16_a.03/pgi-16.5/g16/l601.exe)
 Copying SCF densities to generalized density rwf, IOpCl= 0 IROHF=0.

 **********************************************************************

            Population analysis using the SCF density.

 **********************************************************************

 Orbital symmetries:
       Occupied  (A') (A') (A') (A') (A') (A') (A") (A")
       Virtual   (A') (A') (A') (A') (A") (A') (A") (A') (A') (A')
                 (A') (A') (A') (A') (A') (A')
 The electronic state is 1-A'.
 Alpha  occ. eigenvalues --   -1.37625  -1.33918  -0.73398  -0.69466  -0.57597
 Alpha  occ. eigenvalues --   -0.53635  -0.52213  -0.48496
 Alpha virt. eigenvalues --    0.17059   0.23852   0.28601   0.34987   0.77917
 Alpha virt. eigenvalues --    0.82241   0.82547   0.84872   0.88626   0.96140
 Alpha virt. eigenvalues --    1.15244   1.18586   1.20882   1.37586   2.52666
 Alpha virt. eigenvalues --    2.87578
          Condensed to atoms (all electrons):
               1          2          3          4          5          6
     1  O    6.227977   0.270162   0.258740  -0.001275   0.000020   0.000292
     2  H    0.270162   0.354379  -0.023526   0.002647   0.000015  -0.000168
     3  H    0.258740  -0.023526   0.407958   0.000063  -0.000000   0.000014
     4  O   -0.001275   0.002647   0.000063   6.225975   0.269857   0.259338
     5  H    0.000020   0.000015  -0.000000   0.269857   0.361269  -0.022048
     6  H    0.000292  -0.000168   0.000014   0.259338  -0.022048   0.394185
 Mulliken charges:
               1
     1  O   -0.755915
     2  H    0.396493
     3  H    0.356752
     4  O   -0.756604
     5  H    0.390888
     6  H    0.368387
 Sum of Mulliken charges =  -0.00000
 Mulliken charges with hydrogens summed into heavy atoms:
               1
     1  O   -0.002671
     4  O    0.002671
 Electronic spatial extent (au):  <R**2>=            217.3366
 Charge=             -0.0000 electrons
 Dipole moment (field-independent basis, Debye):
    X=             -3.8691    Y=              3.7187    Z=              0.0000  Tot=              5.3664
 Quadrupole moment (field-independent basis, Debye-Ang):
   XX=            -10.8335   YY=             -8.7709   ZZ=            -14.9923
   XY=              2.9572   XZ=              0.0000   YZ=              0.0000
 Traceless Quadrupole moment (field-independent basis, Debye-Ang):
   XX=              0.6987   YY=              2.7614   ZZ=             -3.4601
   XY=              2.9572   XZ=              0.0000   YZ=              0.0000
 Octapole moment (field-independent basis, Debye-Ang**2):
  XXX=             -4.0048  YYY=             36.5189  ZZZ=              0.0000  XYY=            -12.1458
  XXY=              0.9006  XXZ=              0.0000  XZZ=             -0.7225  YZZ=              0.7429
  YYZ=              0.0000  XYZ=              0.0000
 Hexadecapole moment (field-independent basis, Debye-Ang**3):
 XXXX=            -12.5302 YYYY=           -191.4596 ZZZZ=            -12.2277 XXXY=              0.0847
 XXXZ=              0.0000 YYYX=             26.4521 YYYZ=              0.0000 ZZZX=              0.0000
 ZZZY=              0.0000 XXYY=            -37.2289 XXZZ=             -4.5492 YYZZ=            -51.1336
 XXYZ=              0.0000 YYXZ=              0.0000 ZZXY=             -0.1566
 N-N= 2.327193315390D+01 E-N=-1.281093302162D+02  KE= 2.678288295543D+01
 Symmetry A'   KE= 1.790324321542D+01
 Symmetry A"   KE= 8.879639740016D+00
 Leave Link  601 at Sun Dec 10 06:53:52 2023, MaxMem=   536870912 cpu:               0.1 elap:               0.0
 (Enter /usr/site/hpc/x86_64/glibc-2.17/broadwell/gaussian/g16_a.03/pgi-16.5/g16/l9999.exe)
 1\1\GINC-N044\SP\RCCSD(T)-FC\CEP-31G\H4O2\ROOT\10-Dec-2023\0\\#p CCSD(
 T)/CEP-31G\\H2O_H2O_1853\\0,1\O,0,0.,-0.009833,0.\H,0,-0.799571,-0.580
 965,0.\H,0,0.799571,-0.580965,0.\O,0,-2.863642,-2.053767,0.\H,0,-3.759
 272,-2.457936,0.\H,0,-2.190856,-2.769913,0.\\Version=ES64L-G16RevA.03\
 State=1-A'\HF=-33.6547771\MP2=-33.883584\MP3=-33.8889397\MP4D=-33.8940
 934\MP4DQ=-33.8948218\MP4SDQ=-33.8969332\CCSD=-33.8979558\CCSD(T)=-33.
 9005953\RMSD=8.163e-10\PG=CS [SG(H4O2)]\\@


 A true friend is someone who is there for
 you when he'd rather be anywhere else.
                               -- Len Wein
 Job cpu time:       0 days  0 hours  0 minutes  3.3 seconds.
 Elapsed time:       0 days  0 hours  0 minutes  1.0 seconds.
 File lengths (MBytes):  RWF=     72 Int=      0 D2E=      0 Chk=      8 Scr=      8
 Normal termination of Gaussian 16 at Sun Dec 10 06:53:52 2023.
