 Entering Gaussian System, Link 0=g16
 Input=H2O_H2O_1079.com
 Output=H2O_H2O_1079.log
 Initial command:
 /usr/site/hpc/x86_64/glibc-2.17/broadwell/gaussian/g16_a.03/pgi-16.5/g16/l1.exe "/gpfs/gpfs1/scratch/c7441090/OH Coord/Gau-1660138.inp" -scrdir="/gpfs/gpfs1/scratch/c7441090/OH Coord/"
 Entering Link 1 = /usr/site/hpc/x86_64/glibc-2.17/broadwell/gaussian/g16_a.03/pgi-16.5/g16/l1.exe PID=   1660139.
  
 Copyright (c) 1988,1990,1992,1993,1995,1998,2003,2009,2016,
            Gaussian, Inc.  All Rights Reserved.
  
 This is part of the Gaussian(R) 16 program.  It is based on
 the Gaussian(R) 09 system (copyright 2009, Gaussian, Inc.),
 the Gaussian(R) 03 system (copyright 2003, Gaussian, Inc.),
 the Gaussian(R) 98 system (copyright 1998, Gaussian, Inc.),
 the Gaussian(R) 94 system (copyright 1995, Gaussian, Inc.),
 the Gaussian 92(TM) system (copyright 1992, Gaussian, Inc.),
 the Gaussian 90(TM) system (copyright 1990, Gaussian, Inc.),
 the Gaussian 88(TM) system (copyright 1988, Gaussian, Inc.),
 the Gaussian 86(TM) system (copyright 1986, Carnegie Mellon
 University), and the Gaussian 82(TM) system (copyright 1983,
 Carnegie Mellon University). Gaussian is a federally registered
 trademark of Gaussian, Inc.
  
 This software contains proprietary and confidential information,
 including trade secrets, belonging to Gaussian, Inc.
  
 This software is provided under written license and may be
 used, copied, transmitted, or stored only in accord with that
 written license.
  
 The following legend is applicable only to US Government
 contracts under FAR:
  
                    RESTRICTED RIGHTS LEGEND
  
 Use, reproduction and disclosure by the US Government is
 subject to restrictions as set forth in subparagraphs (a)
 and (c) of the Commercial Computer Software - Restricted
 Rights clause in FAR 52.227-19.
  
 Gaussian, Inc.
 340 Quinnipiac St., Bldg. 40, Wallingford CT 06492
  
  
 ---------------------------------------------------------------
 Warning -- This program may not be used in any manner that
 competes with the business of Gaussian, Inc. or will provide
 assistance to any competitor of Gaussian, Inc.  The licensee
 of this program is prohibited from giving any competitor of
 Gaussian, Inc. access to this program.  By using this program,
 the user acknowledges that Gaussian, Inc. is engaged in the
 business of creating and licensing software in the field of
 computational chemistry and represents and warrants to the
 licensee that it is not a competitor of Gaussian, Inc. and that
 it will not use this program in any manner prohibited above.
 ---------------------------------------------------------------
  

 Cite this work as:
 Gaussian 16, Revision A.03,
 M. J. Frisch, G. W. Trucks, H. B. Schlegel, G. E. Scuseria, 
 M. A. Robb, J. R. Cheeseman, G. Scalmani, V. Barone, 
 G. A. Petersson, H. Nakatsuji, X. Li, M. Caricato, A. V. Marenich, 
 J. Bloino, B. G. Janesko, R. Gomperts, B. Mennucci, H. P. Hratchian, 
 J. V. Ortiz, A. F. Izmaylov, J. L. Sonnenberg, D. Williams-Young, 
 F. Ding, F. Lipparini, F. Egidi, J. Goings, B. Peng, A. Petrone, 
 T. Henderson, D. Ranasinghe, V. G. Zakrzewski, J. Gao, N. Rega, 
 G. Zheng, W. Liang, M. Hada, M. Ehara, K. Toyota, R. Fukuda, 
 J. Hasegawa, M. Ishida, T. Nakajima, Y. Honda, O. Kitao, H. Nakai, 
 T. Vreven, K. Throssell, J. A. Montgomery, Jr., J. E. Peralta, 
 F. Ogliaro, M. J. Bearpark, J. J. Heyd, E. N. Brothers, K. N. Kudin, 
 V. N. Staroverov, T. A. Keith, R. Kobayashi, J. Normand, 
 K. Raghavachari, A. P. Rendell, J. C. Burant, S. S. Iyengar, 
 J. Tomasi, M. Cossi, J. M. Millam, M. Klene, C. Adamo, R. Cammi, 
 J. W. Ochterski, R. L. Martin, K. Morokuma, O. Farkas, 
 J. B. Foresman, and D. J. Fox, Gaussian, Inc., Wallingford CT, 2016.
 
 ******************************************
 Gaussian 16:  ES64L-G16RevA.03 25-Dec-2016
                10-Dec-2023 
 ******************************************
 %NProcShared=4
 Will use up to    4 processors via shared memory.
 %Mem=4GB
 %Chk=H2O_H2O_1079.chk
 ------------------
 #p CCSD(T)/CEP-31G
 ------------------
 1/38=1,172=1/1;
 2/12=2,17=6,18=5,40=1/2;
 3/5=9,6=1,11=9,25=1,30=1/1,2,3;
 4//1;
 5/5=2,38=5/2;
 8/6=4,9=120000,10=1/1,4;
 9/5=7,14=2/13;
 6/7=2,8=2,9=2,10=2/1;
 99/5=1,9=1/99;
 Leave Link    1 at Sun Dec 10 06:38:47 2023, MaxMem=   536870912 cpu:               0.2 elap:               0.1
 (Enter /usr/site/hpc/x86_64/glibc-2.17/broadwell/gaussian/g16_a.03/pgi-16.5/g16/l101.exe)
 ------------
 H2O_H2O_1079
 ------------
 Symbolic Z-matrix:
 Charge =  0 Multiplicity = 1
 O                     0.       -0.00983   0. 
 H                    -0.79957  -0.58097   0. 
 H                     0.79957  -0.58097   0. 
 O                    -2.36117  -1.69426   0. 
 H                    -3.28132  -2.03899   0. 
 H                    -1.73667  -2.45288   0. 
 
 ITRead=  0  0  0  0  0  0
 MicOpt= -1 -1 -1 -1 -1 -1
 NAtoms=      6 NQM=        6 NQMF=       0 NMMI=      0 NMMIF=      0
                NMic=       0 NMicF=      0.
                    Isotopes and Nuclear Properties:
 (Nuclear quadrupole moments (NQMom) in fm**2, nuclear magnetic moments (NMagM)
  in nuclear magnetons)

  Atom         1           2           3           4           5           6
 IAtWgt=          16           1           1          16           1           1
 AtmWgt=  15.9949146   1.0078250   1.0078250  15.9949146   1.0078250   1.0078250
 NucSpn=           0           1           1           0           1           1
 AtZEff=  -0.0000000  -0.0000000  -0.0000000  -0.0000000  -0.0000000  -0.0000000
 NQMom=    0.0000000   0.0000000   0.0000000   0.0000000   0.0000000   0.0000000
 NMagM=    0.0000000   2.7928460   2.7928460   0.0000000   2.7928460   2.7928460
 AtZNuc=   8.0000000   1.0000000   1.0000000   8.0000000   1.0000000   1.0000000
 Leave Link  101 at Sun Dec 10 06:38:47 2023, MaxMem=   536870912 cpu:               0.3 elap:               0.1
 (Enter /usr/site/hpc/x86_64/glibc-2.17/broadwell/gaussian/g16_a.03/pgi-16.5/g16/l202.exe)
                          Input orientation:                          
 ---------------------------------------------------------------------
 Center     Atomic      Atomic             Coordinates (Angstroms)
 Number     Number       Type             X           Y           Z
 ---------------------------------------------------------------------
      1          8           0        0.000000   -0.009833    0.000000
      2          1           0       -0.799571   -0.580965    0.000000
      3          1           0        0.799571   -0.580965    0.000000
      4          8           0       -2.361173   -1.694260    0.000000
      5          1           0       -3.281319   -2.038987    0.000000
      6          1           0       -1.736666   -2.452876    0.000000
 ---------------------------------------------------------------------
                    Distance matrix (angstroms):
                    1          2          3          4          5
     1  O    0.000000
     2  H    0.982601   0.000000
     3  H    0.982601   1.599142   0.000000
     4  O    2.900419   1.917818   3.351079   0.000000
     5  H    3.858046   2.878350   4.333531   0.982601   0.000000
     6  H    2.997410   2.093370   3.152229   0.982602   1.599143
                    6
     6  H    0.000000
 Stoichiometry    H4O2
 Framework group  CS[SG(H4O2)]
 Deg. of freedom     9
 Full point group                 CS      NOp   2
 Largest Abelian subgroup         CS      NOp   2
 Largest concise Abelian subgroup C1      NOp   1
                         Standard orientation:                         
 ---------------------------------------------------------------------
 Center     Atomic      Atomic             Coordinates (Angstroms)
 Number     Number       Type             X           Y           Z
 ---------------------------------------------------------------------
      1          8           0        0.082821   -1.527450    0.000000
      2          1           0        0.082227   -0.544849    0.000000
      3          1           0       -0.846480   -1.846679    0.000000
      4          8           0        0.082821    1.372969    0.000000
      5          1           0        0.336563    2.322242    0.000000
      6          1           0       -0.897438    1.305139    0.000000
 ---------------------------------------------------------------------
 Rotational constants (GHZ):         278.6278080           6.4521238           6.3060949
 Leave Link  202 at Sun Dec 10 06:38:47 2023, MaxMem=   536870912 cpu:               0.1 elap:               0.0
 (Enter /usr/site/hpc/x86_64/glibc-2.17/broadwell/gaussian/g16_a.03/pgi-16.5/g16/l301.exe)
 Standard basis: CEP-31G (6D, 10F)
 Ernie: Thresh=  0.10000D-02 Tol=  0.10000D-05 Strict=F.
 There are    20 symmetry adapted cartesian basis functions of A'  symmetry.
 There are     4 symmetry adapted cartesian basis functions of A"  symmetry.
 There are    20 symmetry adapted basis functions of A'  symmetry.
 There are     4 symmetry adapted basis functions of A"  symmetry.
    24 basis functions,    48 primitive gaussians,    24 cartesian basis functions
     8 alpha electrons        8 beta electrons
       nuclear repulsion energy        25.3669991201 Hartrees.
 IExCor=    0 DFT=F Ex=HF Corr=None ExCW=0 ScaHFX=  1.000000
 ScaDFX=  1.000000  1.000000  1.000000  1.000000 ScalE2=  1.000000  1.000000
 IRadAn=      5 IRanWt=     -1 IRanGd=            0 ICorTp=0 IEmpDi=  4
 NAtoms=    6 NActive=    6 NUniq=    6 SFac= 1.00D+00 NAtFMM=   60 NAOKFM=F Big=F
 Integral buffers will be    131072 words long.
 Raffenetti 1 integral format.
 Two-electron integral symmetry is turned on.
 Leave Link  301 at Sun Dec 10 06:38:47 2023, MaxMem=   536870912 cpu:               0.2 elap:               0.1
 (Enter /usr/site/hpc/x86_64/glibc-2.17/broadwell/gaussian/g16_a.03/pgi-16.5/g16/l302.exe)
 NPDir=0 NMtPBC=     1 NCelOv=     1 NCel=       1 NClECP=     1 NCelD=      1
         NCelK=      1 NCelE2=     1 NClLst=     1 CellRange=     0.0.
 One-electron integrals computed using PRISM.
 One-electron integral symmetry used in STVInt
   2 Symmetry operations used in ECPInt.
 ECPInt:  NShTT=      78 NPrTT=     318 LenC2=      79 LenP2D=     293.
 LDataN:  DoStor=T MaxTD1= 2 Len=   12
 NBasis=    24 RedAO= T EigKep=  1.48D-02  NBF=    20     4
 NBsUse=    24 1.00D-06 EigRej= -1.00D+00 NBFU=    20     4
 Leave Link  302 at Sun Dec 10 06:38:47 2023, MaxMem=   536870912 cpu:               0.3 elap:               0.1
 (Enter /usr/site/hpc/x86_64/glibc-2.17/broadwell/gaussian/g16_a.03/pgi-16.5/g16/l303.exe)
 DipDrv:  MaxL=1.
 Leave Link  303 at Sun Dec 10 06:38:47 2023, MaxMem=   536870912 cpu:               0.1 elap:               0.0
 (Enter /usr/site/hpc/x86_64/glibc-2.17/broadwell/gaussian/g16_a.03/pgi-16.5/g16/l401.exe)
 ExpMin= 1.78D-01 ExpMax= 1.92D+01 ExpMxC= 1.92D+01 IAcc=3 IRadAn=         5 AccDes= 0.00D+00
 Harris functional with IExCor=  205 and IRadAn=       5 diagonalized for initial guess.
 HarFok:  IExCor=  205 AccDes= 0.00D+00 IRadAn=         5 IDoV= 1 UseB2=F ITyADJ=14
 ICtDFT=  3500011 ScaDFX=  1.000000  1.000000  1.000000  1.000000
 FoFCou: FMM=F IPFlag=           0 FMFlag=      100000 FMFlg1=           0
         NFxFlg=           0 DoJE=T BraDBF=F KetDBF=T FulRan=T
         wScrn=  0.000000 ICntrl=       500 IOpCl=  0 I1Cent=   200000004 NGrid=           0
         NMat0=    1 NMatS0=      1 NMatT0=    0 NMatD0=    1 NMtDS0=    0 NMtDT0=    0
 Petite list used in FoFCou.
 Harris En= -34.4809409300507    
 JPrj=0 DoOrth=F DoCkMO=F.
 Initial guess orbital symmetries:
       Occupied  (A') (A') (A') (A') (A') (A') (A") (A")
       Virtual   (A') (A') (A') (A') (A") (A') (A') (A") (A') (A')
                 (A') (A') (A') (A') (A') (A')
 The electronic state of the initial guess is 1-A'.
 Leave Link  401 at Sun Dec 10 06:38:48 2023, MaxMem=   536870912 cpu:               0.4 elap:               0.1
 (Enter /usr/site/hpc/x86_64/glibc-2.17/broadwell/gaussian/g16_a.03/pgi-16.5/g16/l502.exe)
 Keep R1 ints in memory in symmetry-blocked form, NReq=852653.
 FoFCou: FMM=F IPFlag=           0 FMFlag=           0 FMFlg1=           0
         NFxFlg=           0 DoJE=F BraDBF=F KetDBF=F FulRan=T
         wScrn=  0.000000 ICntrl=       600 IOpCl=  0 I1Cent=           0 NGrid=           0
         NMat0=    1 NMatS0=    300 NMatT0=    0 NMatD0=    1 NMtDS0=    0 NMtDT0=    0
 Petite list used in FoFCou.
 Closed shell SCF:
 Using DIIS extrapolation, IDIIS=  1040.
 NGot=   536870912 LenX=   536840576 LenY=   536839559
 Requested convergence on RMS density matrix=1.00D-08 within 128 cycles.
 Requested convergence on MAX density matrix=1.00D-06.
 Requested convergence on             energy=1.00D-06.
 No special actions if energy rises.

 Cycle   1  Pass 1  IDiag  1:
 E= -33.5684014272695    
 DIIS: error= 6.30D-02 at cycle   1 NSaved=   1.
 NSaved= 1 IEnMin= 1 EnMin= -33.5684014272695     IErMin= 1 ErrMin= 6.30D-02
 ErrMax= 6.30D-02  0.00D+00 EMaxC= 1.00D-01 BMatC= 9.48D-02 BMatP= 9.48D-02
 IDIUse=3 WtCom= 3.70D-01 WtEn= 6.30D-01
 Coeff-Com:  0.100D+01
 Coeff-En:   0.100D+01
 Coeff:      0.100D+01
 Gap=     0.570 Goal=   None    Shift=    0.000
 GapD=    0.570 DampG=2.000 DampE=0.500 DampFc=1.0000 IDamp=-1.
 RMSDP=1.48D-02 MaxDP=1.23D-01              OVMax= 9.53D-02

 Cycle   2  Pass 1  IDiag  1:
 E= -33.6281529448212     Delta-E=       -0.059751517552 Rises=F Damp=F
 DIIS: error= 3.47D-02 at cycle   2 NSaved=   2.
 NSaved= 2 IEnMin= 2 EnMin= -33.6281529448212     IErMin= 2 ErrMin= 3.47D-02
 ErrMax= 3.47D-02  0.00D+00 EMaxC= 1.00D-01 BMatC= 3.34D-02 BMatP= 9.48D-02
 IDIUse=3 WtCom= 6.53D-01 WtEn= 3.47D-01
 Coeff-Com:  0.369D+00 0.631D+00
 Coeff-En:   0.743D-01 0.926D+00
 Coeff:      0.267D+00 0.733D+00
 Gap=     0.646 Goal=   None    Shift=    0.000
 RMSDP=6.13D-03 MaxDP=5.42D-02 DE=-5.98D-02 OVMax= 3.48D-02

 Cycle   3  Pass 1  IDiag  1:
 E= -33.6547124655474     Delta-E=       -0.026559520726 Rises=F Damp=F
 DIIS: error= 6.72D-03 at cycle   3 NSaved=   3.
 NSaved= 3 IEnMin= 3 EnMin= -33.6547124655474     IErMin= 3 ErrMin= 6.72D-03
 ErrMax= 6.72D-03  0.00D+00 EMaxC= 1.00D-01 BMatC= 8.89D-04 BMatP= 3.34D-02
 IDIUse=3 WtCom= 9.33D-01 WtEn= 6.72D-02
 Coeff-Com: -0.112D+00-0.983D-02 0.112D+01
 Coeff-En:   0.000D+00 0.000D+00 0.100D+01
 Coeff:     -0.105D+00-0.917D-02 0.111D+01
 Gap=     0.639 Goal=   None    Shift=    0.000
 RMSDP=1.17D-03 MaxDP=9.66D-03 DE=-2.66D-02 OVMax= 7.83D-03

 Cycle   4  Pass 1  IDiag  1:
 E= -33.6555927286138     Delta-E=       -0.000880263066 Rises=F Damp=F
 DIIS: error= 6.48D-04 at cycle   4 NSaved=   4.
 NSaved= 4 IEnMin= 4 EnMin= -33.6555927286138     IErMin= 4 ErrMin= 6.48D-04
 ErrMax= 6.48D-04  0.00D+00 EMaxC= 1.00D-01 BMatC= 5.54D-06 BMatP= 8.89D-04
 IDIUse=3 WtCom= 9.94D-01 WtEn= 6.48D-03
 Coeff-Com:  0.327D-01-0.194D-01-0.410D+00 0.140D+01
 Coeff-En:   0.000D+00 0.000D+00 0.000D+00 0.100D+01
 Coeff:      0.324D-01-0.193D-01-0.407D+00 0.139D+01
 Gap=     0.641 Goal=   None    Shift=    0.000
 RMSDP=2.40D-04 MaxDP=1.90D-03 DE=-8.80D-04 OVMax= 1.28D-03

 Cycle   5  Pass 1  IDiag  1:
 E= -33.6556050840702     Delta-E=       -0.000012355456 Rises=F Damp=F
 DIIS: error= 8.03D-05 at cycle   5 NSaved=   5.
 NSaved= 5 IEnMin= 5 EnMin= -33.6556050840702     IErMin= 5 ErrMin= 8.03D-05
 ErrMax= 8.03D-05  0.00D+00 EMaxC= 1.00D-01 BMatC= 2.41D-07 BMatP= 5.54D-06
 IDIUse=1 WtCom= 1.00D+00 WtEn= 0.00D+00
 Coeff-Com:  0.106D-01-0.390D-02-0.124D+00 0.284D+00 0.833D+00
 Coeff:      0.106D-01-0.390D-02-0.124D+00 0.284D+00 0.833D+00
 Gap=     0.641 Goal=   None    Shift=    0.000
 RMSDP=2.66D-05 MaxDP=2.74D-04 DE=-1.24D-05 OVMax= 1.86D-04

 Cycle   6  Pass 1  IDiag  1:
 E= -33.6556053902803     Delta-E=       -0.000000306210 Rises=F Damp=F
 DIIS: error= 2.41D-05 at cycle   6 NSaved=   6.
 NSaved= 6 IEnMin= 6 EnMin= -33.6556053902803     IErMin= 6 ErrMin= 2.41D-05
 ErrMax= 2.41D-05  0.00D+00 EMaxC= 1.00D-01 BMatC= 2.03D-08 BMatP= 2.41D-07
 IDIUse=1 WtCom= 1.00D+00 WtEn= 0.00D+00
 Coeff-Com: -0.363D-02 0.182D-02 0.443D-01-0.154D+00 0.702D-01 0.104D+01
 Coeff:     -0.363D-02 0.182D-02 0.443D-01-0.154D+00 0.702D-01 0.104D+01
 Gap=     0.641 Goal=   None    Shift=    0.000
 RMSDP=9.62D-06 MaxDP=9.96D-05 DE=-3.06D-07 OVMax= 6.64D-05

 Cycle   7  Pass 1  IDiag  1:
 E= -33.6556054241969     Delta-E=       -0.000000033917 Rises=F Damp=F
 DIIS: error= 5.14D-06 at cycle   7 NSaved=   7.
 NSaved= 7 IEnMin= 7 EnMin= -33.6556054241969     IErMin= 7 ErrMin= 5.14D-06
 ErrMax= 5.14D-06  0.00D+00 EMaxC= 1.00D-01 BMatC= 6.23D-10 BMatP= 2.03D-08
 IDIUse=1 WtCom= 1.00D+00 WtEn= 0.00D+00
 Coeff-Com:  0.988D-03-0.458D-03-0.119D-01 0.455D-01-0.527D-01-0.366D+00
 Coeff-Com:  0.138D+01
 Coeff:      0.988D-03-0.458D-03-0.119D-01 0.455D-01-0.527D-01-0.366D+00
 Coeff:      0.138D+01
 Gap=     0.641 Goal=   None    Shift=    0.000
 RMSDP=2.38D-06 MaxDP=1.39D-05 DE=-3.39D-08 OVMax= 1.97D-05

 Cycle   8  Pass 1  IDiag  1:
 E= -33.6556054259483     Delta-E=       -0.000000001751 Rises=F Damp=F
 DIIS: error= 9.21D-07 at cycle   8 NSaved=   8.
 NSaved= 8 IEnMin= 8 EnMin= -33.6556054259483     IErMin= 8 ErrMin= 9.21D-07
 ErrMax= 9.21D-07  0.00D+00 EMaxC= 1.00D-01 BMatC= 2.35D-11 BMatP= 6.23D-10
 IDIUse=1 WtCom= 1.00D+00 WtEn= 0.00D+00
 Coeff-Com:  0.209D-05-0.300D-04-0.129D-03-0.282D-03 0.799D-02 0.133D-01
 Coeff-Com: -0.260D+00 0.124D+01
 Coeff:      0.209D-05-0.300D-04-0.129D-03-0.282D-03 0.799D-02 0.133D-01
 Coeff:     -0.260D+00 0.124D+01
 Gap=     0.641 Goal=   None    Shift=    0.000
 RMSDP=4.74D-07 MaxDP=2.91D-06 DE=-1.75D-09 OVMax= 3.80D-06

 Cycle   9  Pass 1  IDiag  1:
 E= -33.6556054260121     Delta-E=       -0.000000000064 Rises=F Damp=F
 DIIS: error= 1.96D-07 at cycle   9 NSaved=   9.
 NSaved= 9 IEnMin= 9 EnMin= -33.6556054260121     IErMin= 9 ErrMin= 1.96D-07
 ErrMax= 1.96D-07  0.00D+00 EMaxC= 1.00D-01 BMatC= 8.72D-13 BMatP= 2.35D-11
 IDIUse=1 WtCom= 1.00D+00 WtEn= 0.00D+00
 Coeff-Com:  0.453D-05 0.839D-05-0.668D-05 0.156D-03-0.254D-02-0.352D-02
 Coeff-Com:  0.859D-01-0.507D+00 0.143D+01
 Coeff:      0.453D-05 0.839D-05-0.668D-05 0.156D-03-0.254D-02-0.352D-02
 Coeff:      0.859D-01-0.507D+00 0.143D+01
 Gap=     0.641 Goal=   None    Shift=    0.000
 RMSDP=1.29D-07 MaxDP=5.83D-07 DE=-6.38D-11 OVMax= 8.74D-07

 Cycle  10  Pass 1  IDiag  1:
 E= -33.6556054260147     Delta-E=       -0.000000000003 Rises=F Damp=F
 DIIS: error= 1.73D-08 at cycle  10 NSaved=  10.
 NSaved=10 IEnMin=10 EnMin= -33.6556054260147     IErMin=10 ErrMin= 1.73D-08
 ErrMax= 1.73D-08  0.00D+00 EMaxC= 1.00D-01 BMatC= 1.12D-14 BMatP= 8.72D-13
 IDIUse=1 WtCom= 1.00D+00 WtEn= 0.00D+00
 Coeff-Com:  0.345D-08-0.234D-05-0.106D-04 0.235D-04 0.475D-03 0.269D-03
 Coeff-Com: -0.171D-01 0.111D+00-0.399D+00 0.130D+01
 Coeff:      0.345D-08-0.234D-05-0.106D-04 0.235D-04 0.475D-03 0.269D-03
 Coeff:     -0.171D-01 0.111D+00-0.399D+00 0.130D+01
 Gap=     0.641 Goal=   None    Shift=    0.000
 RMSDP=1.84D-08 MaxDP=9.27D-08 DE=-2.53D-12 OVMax= 1.20D-07

 Cycle  11  Pass 1  IDiag  1:
 E= -33.6556054260147     Delta-E=        0.000000000000 Rises=F Damp=F
 DIIS: error= 2.03D-09 at cycle  11 NSaved=  11.
 NSaved=11 IEnMin=10 EnMin= -33.6556054260147     IErMin=11 ErrMin= 2.03D-09
 ErrMax= 2.03D-09  0.00D+00 EMaxC= 1.00D-01 BMatC= 1.08D-16 BMatP= 1.12D-14
 IDIUse=1 WtCom= 1.00D+00 WtEn= 0.00D+00
 Coeff-Com: -0.111D-06 0.565D-06 0.364D-05-0.108D-04-0.102D-03-0.224D-04
 Coeff-Com:  0.376D-02-0.253D-01 0.946D-01-0.363D+00 0.129D+01
 Coeff:     -0.111D-06 0.565D-06 0.364D-05-0.108D-04-0.102D-03-0.224D-04
 Coeff:      0.376D-02-0.253D-01 0.946D-01-0.363D+00 0.129D+01
 Gap=     0.641 Goal=   None    Shift=    0.000
 RMSDP=1.57D-09 MaxDP=1.01D-08 DE= 0.00D+00 OVMax= 1.15D-08

 SCF Done:  E(RHF) =  -33.6556054260     A.U. after   11 cycles
            NFock= 11  Conv=0.16D-08     -V/T= 2.2547
 KE= 2.682272822536D+01 PE=-1.323300562257D+02 EE= 4.648472345421D+01
 Leave Link  502 at Sun Dec 10 06:38:48 2023, MaxMem=   536870912 cpu:               0.3 elap:               0.1
 (Enter /usr/site/hpc/x86_64/glibc-2.17/broadwell/gaussian/g16_a.03/pgi-16.5/g16/l801.exe)
 Windowed orbitals will be sorted by symmetry type.
 Range of M.O.s used for correlation:     1    24
 NBasis=    24 NAE=     8 NBE=     8 NFC=     0 NFV=     0
 NROrb=     24 NOA=     8 NOB=     8 NVA=    16 NVB=    16
 Leave Link  801 at Sun Dec 10 06:38:48 2023, MaxMem=   536870912 cpu:               0.1 elap:               0.0
 (Enter /usr/site/hpc/x86_64/glibc-2.17/broadwell/gaussian/g16_a.03/pgi-16.5/g16/l804.exe)
 Closed-shell transformation, MDV=   536870912 ITran=4 ISComp=2.
 Unit  1 TFree=       1025975 TCopy=        210600.
 Semi-Direct transformation.
 ModeAB=           2 MOrb=             8 LenV=     536741568
 LASXX=        22470 LTotXX=       22470 LenRXX=       22470
 LTotAB=       26208 MaxLAS=       57600 LenRXY=       57600
 NonZer=       62208 LenScr=      524288 LnRSAI=           0
 LnScr1=           0 LExtra=           0 Total=       604358
 MaxDsk=          -1 SrtSym=           F ITran=            4
 DoSDTr:  NPSUse=  4
 JobTyp=0 Pass  1:  I=   1 to   8.
 (rs|ai) integrals will be sorted in core.
 Complete sort for first half transformation.
 First half transformation complete.
 Complete sort for second half transformation.
 Second half transformation complete.
 Spin components of T(2) and E(2):
     alpha-alpha T2 =       0.9127698564D-02 E2=     -0.2620217826D-01
     alpha-beta  T2 =       0.5948817564D-01 E2=     -0.1766488479D+00
     beta-beta   T2 =       0.9127698564D-02 E2=     -0.2620217826D-01
 ANorm=    0.1038144293D+01
 E2 =    -0.2290532044D+00 EUMP2 =    -0.33884658630398D+02
 Leave Link  804 at Sun Dec 10 06:38:48 2023, MaxMem=   536870912 cpu:               0.2 elap:               0.1
 (Enter /usr/site/hpc/x86_64/glibc-2.17/broadwell/gaussian/g16_a.03/pgi-16.5/g16/l913.exe)
 CIDS:  MDV=   536870912.
 IFCWin=0 IBDFC=1 NFBD=     0     0 NFCmp=     0     0 NFFFC=     0     0
 Using DD3R+UMP44R for 1st iteration.
 Using DD4RQ for 2nd and later iterations.
 Keep R2 and R3 ints in memory in symmetry-blocked form, NReq=865261.
 FoFCou: FMM=F IPFlag=           0 FMFlag=           0 FMFlg1=           0
         NFxFlg=           0 DoJE=F BraDBF=F KetDBF=F FulRan=T
         wScrn=  0.000000 ICntrl=       600 IOpCl=  0 I1Cent=           0 NGrid=           0
         NMat0=    1 NMatS0=    300 NMatT0=    0 NMatD0=    1 NMtDS0=    0 NMtDT0=    0
 Petite list used in FoFCou.
 CIDS: In Core Option IDoMem=           1.
 CCSD(T)
 =======
 Iterations=  50 Convergence= 0.100D-06
 Produce multiple copies of IABC intergrals
 Iteration Nr.   1
 **********************
 DD1Dir will call FoFMem   1 times, MxPair=        72
 NAB=    36 NAA=     0 NBB=     0.
 MP4(R+Q)= -0.68419010D-03
 Maximum subspace dimension=  5
 A-vector RMS=  6.0037093D-03 Max=  1.2767952D-02 conv= 1.00D-05.
 RLE energy=       -0.2347395935
 E3=       -0.51383226D-02        EUMP3=      -0.33889796953D+02
 E4(DQ)=   -0.57900222D-02        UMP4(DQ)=   -0.33895586975D+02
 E4(SDQ)=  -0.79844905D-02        UMP4(SDQ)=  -0.33897781443D+02
 VARIATIONAL ENERGIES WITH THE FIRST-ORDER WAVEFUNCTION:
 DE(Corr)= -0.23460218     E(Corr)=     -33.890207607    
 NORM(A)=   0.10414814D+01
 Iteration Nr.   2
 **********************
 DD1Dir will call FoFMem   1 times, MxPair=        72
 NAB=    36 NAA=     0 NBB=     0.
 A-vector RMS=  9.6321951D-04 Max=  2.3067773D-03 conv= 1.00D-05.
 RLE energy=       -0.2425536078
 DE(Corr)= -0.24066442     E(CORR)=     -33.896269846     Delta=-6.06D-03
 NORM(A)=   0.10452681D+01
 Iteration Nr.   3
 **********************
 DD1Dir will call FoFMem   1 times, MxPair=        72
 NAB=    36 NAA=     0 NBB=     0.
 A-vector RMS=  4.1698020D-04 Max=  1.2871264D-03 conv= 1.00D-05.
 RLE energy=       -0.2430991812
 DE(Corr)= -0.24264435     E(CORR)=     -33.898249778     Delta=-1.98D-03
 NORM(A)=   0.10458255D+01
 Iteration Nr.   4
 **********************
 DD1Dir will call FoFMem   1 times, MxPair=        72
 NAB=    36 NAA=     0 NBB=     0.
 A-vector RMS=  9.7454946D-05 Max=  2.7661367D-04 conv= 1.00D-05.
 RLE energy=       -0.2431504076
 DE(Corr)= -0.24311471     E(CORR)=     -33.898720141     Delta=-4.70D-04
 NORM(A)=   0.10458954D+01
 Iteration Nr.   5
 **********************
 DD1Dir will call FoFMem   1 times, MxPair=        72
 NAB=    36 NAA=     0 NBB=     0.
 A-vector RMS=  4.6950340D-05 Max=  1.9660291D-04 conv= 1.00D-05.
 RLE energy=       -0.2431511811
 DE(Corr)= -0.24314726     E(CORR)=     -33.898752685     Delta=-3.25D-05
 NORM(A)=   0.10459050D+01
 Iteration Nr.   6
 **********************
 DD1Dir will call FoFMem   1 times, MxPair=        72
 NAB=    36 NAA=     0 NBB=     0.
 A-vector RMS=  1.6918680D-05 Max=  7.3291373D-05 conv= 1.00D-05.
 RLE energy=       -0.2431470438
 DE(Corr)= -0.24315043     E(CORR)=     -33.898755855     Delta=-3.17D-06
 NORM(A)=   0.10459067D+01
 Iteration Nr.   7
 **********************
 DD1Dir will call FoFMem   1 times, MxPair=        72
 NAB=    36 NAA=     0 NBB=     0.
 A-vector RMS=  6.8337219D-06 Max=  2.3303064D-05 conv= 1.00D-05.
 RLE energy=       -0.2431488680
 DE(Corr)= -0.24315028     E(CORR)=     -33.898755706     Delta= 1.49D-07
 NORM(A)=   0.10459087D+01
 Iteration Nr.   8
 **********************
 DD1Dir will call FoFMem   1 times, MxPair=        72
 NAB=    36 NAA=     0 NBB=     0.
 A-vector RMS=  2.5019755D-06 Max=  9.6199155D-06 conv= 1.00D-05.
 RLE energy=       -0.2431495970
 DE(Corr)= -0.24314974     E(CORR)=     -33.898755169     Delta= 5.38D-07
 NORM(A)=   0.10459096D+01
 Iteration Nr.   9
 **********************
 DD1Dir will call FoFMem   1 times, MxPair=        72
 NAB=    36 NAA=     0 NBB=     0.
 A-vector RMS=  6.3548609D-07 Max=  2.0956604D-06 conv= 1.00D-05.
 RLE energy=       -0.2431498814
 DE(Corr)= -0.24314992     E(CORR)=     -33.898755346     Delta=-1.77D-07
 NORM(A)=   0.10459100D+01
 Iteration Nr.  10
 **********************
 DD1Dir will call FoFMem   1 times, MxPair=        72
 NAB=    36 NAA=     0 NBB=     0.
 A-vector RMS=  1.7588720D-07 Max=  5.9874270D-07 conv= 1.00D-05.
 RLE energy=       -0.2431500889
 DE(Corr)= -0.24315005     E(CORR)=     -33.898755477     Delta=-1.32D-07
 NORM(A)=   0.10459101D+01
 Iteration Nr.  11
 **********************
 DD1Dir will call FoFMem   1 times, MxPair=        72
 NAB=    36 NAA=     0 NBB=     0.
 A-vector RMS=  5.8514196D-08 Max=  2.6582603D-07 conv= 1.00D-05.
 RLE energy=       -0.2431501390
 DE(Corr)= -0.24315012     E(CORR)=     -33.898755548     Delta=-7.06D-08
 NORM(A)=   0.10459102D+01
 CI/CC converged in   11 iterations to DelEn=-7.06D-08 Conv= 1.00D-07 ErrA1= 5.85D-08 Conv= 1.00D-05
 Wavefunction amplitudes converged. E(Corr)=     -33.898755548    
 Largest amplitude= 4.68D-02
 IPart=  2 IA=    2   12.50% done.
 IPart=  4 IA=    3   24.17% done.
 IPart=  3 IA=    4   35.00% done.
 IPart=  3 IA=    5   45.00% done.
 IPart=  4 IA=    6   54.17% done.
 IPart=  2 IA=    7   62.50% done.
 IPart=  1 IA=    8   70.00% done.
 IPart=  3 IA=   10   82.50% done.
 IPart=  4 IA=   12   91.67% done.
 Time for triples=        0.27 seconds.
 T4(CCSD)= -0.33124549D-02
 T5(CCSD)=  0.55148991D-03
 CCSD(T)= -0.33901516513D+02
 Discarding MO integrals.
 Leave Link  913 at Sun Dec 10 06:38:48 2023, MaxMem=   536870912 cpu:               1.0 elap:               0.3
 (Enter /usr/site/hpc/x86_64/glibc-2.17/broadwell/gaussian/g16_a.03/pgi-16.5/g16/l601.exe)
 Copying SCF densities to generalized density rwf, IOpCl= 0 IROHF=0.

 **********************************************************************

            Population analysis using the SCF density.

 **********************************************************************

 Orbital symmetries:
       Occupied  (A') (A') (A') (A') (A') (A") (A') (A")
       Virtual   (A') (A') (A') (A') (A") (A') (A') (A") (A') (A')
                 (A') (A') (A') (A') (A') (A')
 The electronic state is 1-A'.
 Alpha  occ. eigenvalues --   -1.38958  -1.32611  -0.75046  -0.68542  -0.58947
 Alpha  occ. eigenvalues --   -0.53509  -0.52135  -0.47146
 Alpha virt. eigenvalues --    0.16945   0.25501   0.27686   0.42625   0.75563
 Alpha virt. eigenvalues --    0.79191   0.85046   0.85372   0.92042   1.11376
 Alpha virt. eigenvalues --    1.16131   1.20695   1.22337   1.37901   2.51327
 Alpha virt. eigenvalues --    3.45727
          Condensed to atoms (all electrons):
               1          2          3          4          5          6
     1  O    6.223980   0.287738   0.257040  -0.012708   0.000150   0.001402
     2  H    0.287738   0.344981  -0.027549  -0.011011   0.000944   0.000623
     3  H    0.257040  -0.027549   0.424495   0.000965  -0.000002   0.000033
     4  O   -0.012708  -0.011011   0.000965   6.280637   0.275123   0.254247
     5  H    0.000150   0.000944  -0.000002   0.275123   0.322269  -0.019992
     6  H    0.001402   0.000623   0.000033   0.254247  -0.019992   0.389635
 Mulliken charges:
               1
     1  O   -0.757602
     2  H    0.404274
     3  H    0.345019
     4  O   -0.787252
     5  H    0.421508
     6  H    0.374053
 Sum of Mulliken charges =  -0.00000
 Mulliken charges with hydrogens summed into heavy atoms:
               1
     1  O   -0.008310
     4  O    0.008310
 Electronic spatial extent (au):  <R**2>=            160.9137
 Charge=             -0.0000 electrons
 Dipole moment (field-independent basis, Debye):
    X=             -3.6592    Y=              4.0912    Z=              0.0000  Tot=              5.4889
 Quadrupole moment (field-independent basis, Debye-Ang):
   XX=            -10.6874   YY=             -9.0124   ZZ=            -14.9986
   XY=              3.0200   XZ=              0.0000   YZ=              0.0000
 Traceless Quadrupole moment (field-independent basis, Debye-Ang):
   XX=              0.8787   YY=              2.5537   ZZ=             -3.4325
   XY=              3.0200   XZ=              0.0000   YZ=              0.0000
 Octapole moment (field-independent basis, Debye-Ang**2):
  XXX=             -3.8515  YYY=             27.7627  ZZZ=              0.0000  XYY=             -7.7351
  XXY=              1.3105  XXZ=              0.0000  XZZ=             -0.6788  YZZ=              0.8648
  YYZ=              0.0000  XYZ=              0.0000
 Hexadecapole moment (field-independent basis, Debye-Ang**3):
 XXXX=            -12.5452 YYYY=           -136.0842 ZZZZ=            -12.2439 XXXY=             -0.0285
 XXXZ=              0.0000 YYYX=             19.1606 YYYZ=              0.0000 ZZZX=              0.0000
 ZZZY=              0.0000 XXYY=            -26.0630 XXZZ=             -4.5635 YYZZ=            -36.3532
 XXYZ=              0.0000 YYXZ=              0.0000 ZZXY=             -0.1658
 N-N= 2.536699912013D+01 E-N=-1.323300562273D+02  KE= 2.682272822536D+01
 Symmetry A'   KE= 1.795645066500D+01
 Symmetry A"   KE= 8.866277560364D+00
 Leave Link  601 at Sun Dec 10 06:38:48 2023, MaxMem=   536870912 cpu:               0.1 elap:               0.0
 (Enter /usr/site/hpc/x86_64/glibc-2.17/broadwell/gaussian/g16_a.03/pgi-16.5/g16/l9999.exe)
 1\1\GINC-N044\SP\RCCSD(T)-FC\CEP-31G\H4O2\ROOT\10-Dec-2023\0\\#p CCSD(
 T)/CEP-31G\\H2O_H2O_1079\\0,1\O,0,0.,-0.009833,0.\H,0,-0.799571,-0.580
 965,0.\H,0,0.799571,-0.580965,0.\O,0,-2.361173,-1.69426,0.\H,0,-3.2813
 19,-2.038987,0.\H,0,-1.736666,-2.452876,0.\\Version=ES64L-G16RevA.03\S
 tate=1-A'\HF=-33.6556054\MP2=-33.8846586\MP3=-33.889797\MP4D=-33.89490
 28\MP4DQ=-33.895587\MP4SDQ=-33.8977814\CCSD=-33.8987555\CCSD(T)=-33.90
 15165\RMSD=1.565e-09\PG=CS [SG(H4O2)]\\@


 OLD HORSE! OLD HORSE! WHAT BROUGHT YOU HERE?
 FROM SACARAP' TO PORTLAND PIER
 I'VE CARTED STONE THIS MANY A YEAR;
 TILL, KILLED BY BLOWS AND SORE ABUSE,
 THEY SALTED ME DOWN FOR SAILORS' USE.
 THE SAILORS THEY DO ME DESPISE;
 THEY TURN ME OVER AND DAMN MY EYES;
 CUT OFF MY MEAT, AND SCRAPE MY BONES,
 AND PITCH ME OVER TO DAVY JONES.

    SAILORS' COMPLAINT ABOUT THE BEEF
    SERVED ON SHIPBOARD, CIRCA 1835.
 Job cpu time:       0 days  0 hours  0 minutes  3.5 seconds.
 Elapsed time:       0 days  0 hours  0 minutes  1.1 seconds.
 File lengths (MBytes):  RWF=     72 Int=      0 D2E=      0 Chk=      8 Scr=      8
 Normal termination of Gaussian 16 at Sun Dec 10 06:38:48 2023.
