 Entering Gaussian System, Link 0=g16
 Input=H2O_H2O_1493.com
 Output=H2O_H2O_1493.log
 Initial command:
 /usr/site/hpc/x86_64/glibc-2.17/broadwell/gaussian/g16_a.03/pgi-16.5/g16/l1.exe "/gpfs/gpfs1/scratch/c7441090/OH Coord/Gau-1679868.inp" -scrdir="/gpfs/gpfs1/scratch/c7441090/OH Coord/"
 Entering Link 1 = /usr/site/hpc/x86_64/glibc-2.17/broadwell/gaussian/g16_a.03/pgi-16.5/g16/l1.exe PID=   1679869.
  
 Copyright (c) 1988,1990,1992,1993,1995,1998,2003,2009,2016,
            Gaussian, Inc.  All Rights Reserved.
  
 This is part of the Gaussian(R) 16 program.  It is based on
 the Gaussian(R) 09 system (copyright 2009, Gaussian, Inc.),
 the Gaussian(R) 03 system (copyright 2003, Gaussian, Inc.),
 the Gaussian(R) 98 system (copyright 1998, Gaussian, Inc.),
 the Gaussian(R) 94 system (copyright 1995, Gaussian, Inc.),
 the Gaussian 92(TM) system (copyright 1992, Gaussian, Inc.),
 the Gaussian 90(TM) system (copyright 1990, Gaussian, Inc.),
 the Gaussian 88(TM) system (copyright 1988, Gaussian, Inc.),
 the Gaussian 86(TM) system (copyright 1986, Carnegie Mellon
 University), and the Gaussian 82(TM) system (copyright 1983,
 Carnegie Mellon University). Gaussian is a federally registered
 trademark of Gaussian, Inc.
  
 This software contains proprietary and confidential information,
 including trade secrets, belonging to Gaussian, Inc.
  
 This software is provided under written license and may be
 used, copied, transmitted, or stored only in accord with that
 written license.
  
 The following legend is applicable only to US Government
 contracts under FAR:
  
                    RESTRICTED RIGHTS LEGEND
  
 Use, reproduction and disclosure by the US Government is
 subject to restrictions as set forth in subparagraphs (a)
 and (c) of the Commercial Computer Software - Restricted
 Rights clause in FAR 52.227-19.
  
 Gaussian, Inc.
 340 Quinnipiac St., Bldg. 40, Wallingford CT 06492
  
  
 ---------------------------------------------------------------
 Warning -- This program may not be used in any manner that
 competes with the business of Gaussian, Inc. or will provide
 assistance to any competitor of Gaussian, Inc.  The licensee
 of this program is prohibited from giving any competitor of
 Gaussian, Inc. access to this program.  By using this program,
 the user acknowledges that Gaussian, Inc. is engaged in the
 business of creating and licensing software in the field of
 computational chemistry and represents and warrants to the
 licensee that it is not a competitor of Gaussian, Inc. and that
 it will not use this program in any manner prohibited above.
 ---------------------------------------------------------------
  

 Cite this work as:
 Gaussian 16, Revision A.03,
 M. J. Frisch, G. W. Trucks, H. B. Schlegel, G. E. Scuseria, 
 M. A. Robb, J. R. Cheeseman, G. Scalmani, V. Barone, 
 G. A. Petersson, H. Nakatsuji, X. Li, M. Caricato, A. V. Marenich, 
 J. Bloino, B. G. Janesko, R. Gomperts, B. Mennucci, H. P. Hratchian, 
 J. V. Ortiz, A. F. Izmaylov, J. L. Sonnenberg, D. Williams-Young, 
 F. Ding, F. Lipparini, F. Egidi, J. Goings, B. Peng, A. Petrone, 
 T. Henderson, D. Ranasinghe, V. G. Zakrzewski, J. Gao, N. Rega, 
 G. Zheng, W. Liang, M. Hada, M. Ehara, K. Toyota, R. Fukuda, 
 J. Hasegawa, M. Ishida, T. Nakajima, Y. Honda, O. Kitao, H. Nakai, 
 T. Vreven, K. Throssell, J. A. Montgomery, Jr., J. E. Peralta, 
 F. Ogliaro, M. J. Bearpark, J. J. Heyd, E. N. Brothers, K. N. Kudin, 
 V. N. Staroverov, T. A. Keith, R. Kobayashi, J. Normand, 
 K. Raghavachari, A. P. Rendell, J. C. Burant, S. S. Iyengar, 
 J. Tomasi, M. Cossi, J. M. Millam, M. Klene, C. Adamo, R. Cammi, 
 J. W. Ochterski, R. L. Martin, K. Morokuma, O. Farkas, 
 J. B. Foresman, and D. J. Fox, Gaussian, Inc., Wallingford CT, 2016.
 
 ******************************************
 Gaussian 16:  ES64L-G16RevA.03 25-Dec-2016
                10-Dec-2023 
 ******************************************
 %NProcShared=4
 Will use up to    4 processors via shared memory.
 %Mem=4GB
 %Chk=H2O_H2O_1493.chk
 ------------------
 #p CCSD(T)/CEP-31G
 ------------------
 1/38=1,172=1/1;
 2/12=2,17=6,18=5,40=1/2;
 3/5=9,6=1,11=9,25=1,30=1/1,2,3;
 4//1;
 5/5=2,38=5/2;
 8/6=4,9=120000,10=1/1,4;
 9/5=7,14=2/13;
 6/7=2,8=2,9=2,10=2/1;
 99/5=1,9=1/99;
 Leave Link    1 at Sun Dec 10 06:46:55 2023, MaxMem=   536870912 cpu:               0.2 elap:               0.1
 (Enter /usr/site/hpc/x86_64/glibc-2.17/broadwell/gaussian/g16_a.03/pgi-16.5/g16/l101.exe)
 ------------
 H2O_H2O_1493
 ------------
 Symbolic Z-matrix:
 Charge =  0 Multiplicity = 1
 O                     0.       -0.00983   0. 
 H                    -0.79957  -0.58097   0. 
 H                     0.79957  -0.58097   0. 
 O                    -2.62738  -1.874     0. 
 H                    -3.46101  -1.35386   0. 
 H                    -2.84905  -2.83127   0. 
 
 ITRead=  0  0  0  0  0  0
 MicOpt= -1 -1 -1 -1 -1 -1
 NAtoms=      6 NQM=        6 NQMF=       0 NMMI=      0 NMMIF=      0
                NMic=       0 NMicF=      0.
                    Isotopes and Nuclear Properties:
 (Nuclear quadrupole moments (NQMom) in fm**2, nuclear magnetic moments (NMagM)
  in nuclear magnetons)

  Atom         1           2           3           4           5           6
 IAtWgt=          16           1           1          16           1           1
 AtmWgt=  15.9949146   1.0078250   1.0078250  15.9949146   1.0078250   1.0078250
 NucSpn=           0           1           1           0           1           1
 AtZEff=  -0.0000000  -0.0000000  -0.0000000  -0.0000000  -0.0000000  -0.0000000
 NQMom=    0.0000000   0.0000000   0.0000000   0.0000000   0.0000000   0.0000000
 NMagM=    0.0000000   2.7928460   2.7928460   0.0000000   2.7928460   2.7928460
 AtZNuc=   8.0000000   1.0000000   1.0000000   8.0000000   1.0000000   1.0000000
 Leave Link  101 at Sun Dec 10 06:46:55 2023, MaxMem=   536870912 cpu:               0.3 elap:               0.1
 (Enter /usr/site/hpc/x86_64/glibc-2.17/broadwell/gaussian/g16_a.03/pgi-16.5/g16/l202.exe)
                          Input orientation:                          
 ---------------------------------------------------------------------
 Center     Atomic      Atomic             Coordinates (Angstroms)
 Number     Number       Type             X           Y           Z
 ---------------------------------------------------------------------
      1          8           0        0.000000   -0.009833    0.000000
      2          1           0       -0.799571   -0.580965    0.000000
      3          1           0        0.799571   -0.580965    0.000000
      4          8           0       -2.627375   -1.874001    0.000000
      5          1           0       -3.461014   -1.353856    0.000000
      6          1           0       -2.849049   -2.831272    0.000000
 ---------------------------------------------------------------------
                    Distance matrix (angstroms):
                    1          2          3          4          5
     1  O    0.000000
     2  H    0.982601   0.000000
     3  H    0.982601   1.599142   0.000000
     4  O    3.221525   2.238930   3.662772   0.000000
     5  H    3.712818   2.771397   4.330121   0.982601   0.000000
     6  H    4.009688   3.043722   4.286760   0.982602   1.599143
                    6
     6  H    0.000000
 Stoichiometry    H4O2
 Framework group  CS[SG(H4O2)]
 Deg. of freedom     9
 Full point group                 CS      NOp   2
 Largest Abelian subgroup         CS      NOp   2
 Largest concise Abelian subgroup C1      NOp   1
                         Standard orientation:                         
 ---------------------------------------------------------------------
 Center     Atomic      Atomic             Coordinates (Angstroms)
 Number     Number       Type             X           Y           Z
 ---------------------------------------------------------------------
      1          8           0        0.033872    1.699493   -0.000000
      2          1           0        0.030754    0.716896   -0.000000
      3          1           0       -0.894606    2.021107   -0.000000
      4          8           0        0.033872   -1.522032    0.000000
      5          1           0        0.940479   -1.900935    0.000000
      6          1           0       -0.618575   -2.256757    0.000000
 ---------------------------------------------------------------------
 Rotational constants (GHZ):         244.6475898           5.2287875           5.1193725
 Leave Link  202 at Sun Dec 10 06:46:55 2023, MaxMem=   536870912 cpu:               0.0 elap:               0.0
 (Enter /usr/site/hpc/x86_64/glibc-2.17/broadwell/gaussian/g16_a.03/pgi-16.5/g16/l301.exe)
 Standard basis: CEP-31G (6D, 10F)
 Ernie: Thresh=  0.10000D-02 Tol=  0.10000D-05 Strict=F.
 There are    20 symmetry adapted cartesian basis functions of A'  symmetry.
 There are     4 symmetry adapted cartesian basis functions of A"  symmetry.
 There are    20 symmetry adapted basis functions of A'  symmetry.
 There are     4 symmetry adapted basis functions of A"  symmetry.
    24 basis functions,    48 primitive gaussians,    24 cartesian basis functions
     8 alpha electrons        8 beta electrons
       nuclear repulsion energy        24.0428513414 Hartrees.
 IExCor=    0 DFT=F Ex=HF Corr=None ExCW=0 ScaHFX=  1.000000
 ScaDFX=  1.000000  1.000000  1.000000  1.000000 ScalE2=  1.000000  1.000000
 IRadAn=      5 IRanWt=     -1 IRanGd=            0 ICorTp=0 IEmpDi=  4
 NAtoms=    6 NActive=    6 NUniq=    6 SFac= 1.00D+00 NAtFMM=   60 NAOKFM=F Big=F
 Integral buffers will be    131072 words long.
 Raffenetti 1 integral format.
 Two-electron integral symmetry is turned on.
 Leave Link  301 at Sun Dec 10 06:46:55 2023, MaxMem=   536870912 cpu:               0.2 elap:               0.1
 (Enter /usr/site/hpc/x86_64/glibc-2.17/broadwell/gaussian/g16_a.03/pgi-16.5/g16/l302.exe)
 NPDir=0 NMtPBC=     1 NCelOv=     1 NCel=       1 NClECP=     1 NCelD=      1
         NCelK=      1 NCelE2=     1 NClLst=     1 CellRange=     0.0.
 One-electron integrals computed using PRISM.
 One-electron integral symmetry used in STVInt
   2 Symmetry operations used in ECPInt.
 ECPInt:  NShTT=      78 NPrTT=     318 LenC2=      79 LenP2D=     286.
 LDataN:  DoStor=T MaxTD1= 2 Len=   12
 NBasis=    24 RedAO= T EigKep=  2.58D-02  NBF=    20     4
 NBsUse=    24 1.00D-06 EigRej= -1.00D+00 NBFU=    20     4
 Leave Link  302 at Sun Dec 10 06:46:55 2023, MaxMem=   536870912 cpu:               0.4 elap:               0.1
 (Enter /usr/site/hpc/x86_64/glibc-2.17/broadwell/gaussian/g16_a.03/pgi-16.5/g16/l303.exe)
 DipDrv:  MaxL=1.
 Leave Link  303 at Sun Dec 10 06:46:55 2023, MaxMem=   536870912 cpu:               0.1 elap:               0.0
 (Enter /usr/site/hpc/x86_64/glibc-2.17/broadwell/gaussian/g16_a.03/pgi-16.5/g16/l401.exe)
 ExpMin= 1.78D-01 ExpMax= 1.92D+01 ExpMxC= 1.92D+01 IAcc=3 IRadAn=         5 AccDes= 0.00D+00
 Harris functional with IExCor=  205 and IRadAn=       5 diagonalized for initial guess.
 HarFok:  IExCor=  205 AccDes= 0.00D+00 IRadAn=         5 IDoV= 1 UseB2=F ITyADJ=14
 ICtDFT=  3500011 ScaDFX=  1.000000  1.000000  1.000000  1.000000
 FoFCou: FMM=F IPFlag=           0 FMFlag=      100000 FMFlg1=           0
         NFxFlg=           0 DoJE=T BraDBF=F KetDBF=T FulRan=T
         wScrn=  0.000000 ICntrl=       500 IOpCl=  0 I1Cent=   200000004 NGrid=           0
         NMat0=    1 NMatS0=      1 NMatT0=    0 NMatD0=    1 NMtDS0=    0 NMtDT0=    0
 Petite list used in FoFCou.
 Harris En= -34.4808577125987    
 JPrj=0 DoOrth=F DoCkMO=F.
 Initial guess orbital symmetries:
       Occupied  (A') (A') (A') (A') (A') (A') (A") (A")
       Virtual   (A') (A') (A') (A') (A") (A') (A") (A') (A') (A')
                 (A') (A') (A') (A') (A') (A')
 The electronic state of the initial guess is 1-A'.
 Leave Link  401 at Sun Dec 10 06:46:55 2023, MaxMem=   536870912 cpu:               0.5 elap:               0.1
 (Enter /usr/site/hpc/x86_64/glibc-2.17/broadwell/gaussian/g16_a.03/pgi-16.5/g16/l502.exe)
 Keep R1 ints in memory in symmetry-blocked form, NReq=852581.
 FoFCou: FMM=F IPFlag=           0 FMFlag=           0 FMFlg1=           0
         NFxFlg=           0 DoJE=F BraDBF=F KetDBF=F FulRan=T
         wScrn=  0.000000 ICntrl=       600 IOpCl=  0 I1Cent=           0 NGrid=           0
         NMat0=    1 NMatS0=    300 NMatT0=    0 NMatD0=    1 NMtDS0=    0 NMtDT0=    0
 Petite list used in FoFCou.
 Closed shell SCF:
 Using DIIS extrapolation, IDIIS=  1040.
 NGot=   536870912 LenX=   536840576 LenY=   536839559
 Requested convergence on RMS density matrix=1.00D-08 within 128 cycles.
 Requested convergence on MAX density matrix=1.00D-06.
 Requested convergence on             energy=1.00D-06.
 No special actions if energy rises.

 Cycle   1  Pass 1  IDiag  1:
 E= -33.5748811165427    
 DIIS: error= 6.16D-02 at cycle   1 NSaved=   1.
 NSaved= 1 IEnMin= 1 EnMin= -33.5748811165427     IErMin= 1 ErrMin= 6.16D-02
 ErrMax= 6.16D-02  0.00D+00 EMaxC= 1.00D-01 BMatC= 9.55D-02 BMatP= 9.55D-02
 IDIUse=3 WtCom= 3.84D-01 WtEn= 6.16D-01
 Coeff-Com:  0.100D+01
 Coeff-En:   0.100D+01
 Coeff:      0.100D+01
 Gap=     0.584 Goal=   None    Shift=    0.000
 GapD=    0.584 DampG=2.000 DampE=0.500 DampFc=1.0000 IDamp=-1.
 RMSDP=1.44D-02 MaxDP=1.19D-01              OVMax= 9.38D-02

 Cycle   2  Pass 1  IDiag  1:
 E= -33.6335799923068     Delta-E=       -0.058698875764 Rises=F Damp=F
 DIIS: error= 3.50D-02 at cycle   2 NSaved=   2.
 NSaved= 2 IEnMin= 2 EnMin= -33.6335799923068     IErMin= 2 ErrMin= 3.50D-02
 ErrMax= 3.50D-02  0.00D+00 EMaxC= 1.00D-01 BMatC= 3.41D-02 BMatP= 9.55D-02
 IDIUse=3 WtCom= 6.50D-01 WtEn= 3.50D-01
 Coeff-Com:  0.371D+00 0.629D+00
 Coeff-En:   0.933D-01 0.907D+00
 Coeff:      0.274D+00 0.726D+00
 Gap=     0.654 Goal=   None    Shift=    0.000
 RMSDP=6.04D-03 MaxDP=5.25D-02 DE=-5.87D-02 OVMax= 3.41D-02

 Cycle   3  Pass 1  IDiag  1:
 E= -33.6607962743950     Delta-E=       -0.027216282088 Rises=F Damp=F
 DIIS: error= 6.34D-03 at cycle   3 NSaved=   3.
 NSaved= 3 IEnMin= 3 EnMin= -33.6607962743950     IErMin= 3 ErrMin= 6.34D-03
 ErrMax= 6.34D-03  0.00D+00 EMaxC= 1.00D-01 BMatC= 8.05D-04 BMatP= 3.41D-02
 IDIUse=3 WtCom= 9.37D-01 WtEn= 6.34D-02
 Coeff-Com: -0.111D+00-0.162D-01 0.113D+01
 Coeff-En:   0.000D+00 0.000D+00 0.100D+01
 Coeff:     -0.104D+00-0.152D-01 0.112D+01
 Gap=     0.647 Goal=   None    Shift=    0.000
 RMSDP=1.02D-03 MaxDP=8.71D-03 DE=-2.72D-02 OVMax= 7.39D-03

 Cycle   4  Pass 1  IDiag  1:
 E= -33.6615839344906     Delta-E=       -0.000787660096 Rises=F Damp=F
 DIIS: error= 6.15D-04 at cycle   4 NSaved=   4.
 NSaved= 4 IEnMin= 4 EnMin= -33.6615839344906     IErMin= 4 ErrMin= 6.15D-04
 ErrMax= 6.15D-04  0.00D+00 EMaxC= 1.00D-01 BMatC= 4.62D-06 BMatP= 8.05D-04
 IDIUse=3 WtCom= 9.94D-01 WtEn= 6.15D-03
 Coeff-Com:  0.394D-01-0.162D-01-0.491D+00 0.147D+01
 Coeff-En:   0.000D+00 0.000D+00 0.000D+00 0.100D+01
 Coeff:      0.392D-01-0.161D-01-0.488D+00 0.147D+01
 Gap=     0.649 Goal=   None    Shift=    0.000
 RMSDP=2.20D-04 MaxDP=1.69D-03 DE=-7.88D-04 OVMax= 1.10D-03

 Cycle   5  Pass 1  IDiag  1:
 E= -33.6615947095227     Delta-E=       -0.000010775032 Rises=F Damp=F
 DIIS: error= 5.58D-05 at cycle   5 NSaved=   5.
 NSaved= 5 IEnMin= 5 EnMin= -33.6615947095227     IErMin= 5 ErrMin= 5.58D-05
 ErrMax= 5.58D-05  0.00D+00 EMaxC= 1.00D-01 BMatC= 3.93D-08 BMatP= 4.62D-06
 IDIUse=1 WtCom= 1.00D+00 WtEn= 0.00D+00
 Coeff-Com: -0.761D-02 0.328D-02 0.959D-01-0.341D+00 0.125D+01
 Coeff:     -0.761D-02 0.328D-02 0.959D-01-0.341D+00 0.125D+01
 Gap=     0.649 Goal=   None    Shift=    0.000
 RMSDP=1.88D-05 MaxDP=1.75D-04 DE=-1.08D-05 OVMax= 9.99D-05

 Cycle   6  Pass 1  IDiag  1:
 E= -33.6615948066940     Delta-E=       -0.000000097171 Rises=F Damp=F
 DIIS: error= 7.89D-06 at cycle   6 NSaved=   6.
 NSaved= 6 IEnMin= 6 EnMin= -33.6615948066940     IErMin= 6 ErrMin= 7.89D-06
 ErrMax= 7.89D-06  0.00D+00 EMaxC= 1.00D-01 BMatC= 1.39D-09 BMatP= 3.93D-08
 IDIUse=1 WtCom= 1.00D+00 WtEn= 0.00D+00
 Coeff-Com:  0.119D-02-0.423D-03-0.148D-01 0.575D-01-0.330D+00 0.129D+01
 Coeff:      0.119D-02-0.423D-03-0.148D-01 0.575D-01-0.330D+00 0.129D+01
 Gap=     0.649 Goal=   None    Shift=    0.000
 RMSDP=3.39D-06 MaxDP=1.89D-05 DE=-9.72D-08 OVMax= 2.79D-05

 Cycle   7  Pass 1  IDiag  1:
 E= -33.6615948104284     Delta-E=       -0.000000003734 Rises=F Damp=F
 DIIS: error= 1.74D-06 at cycle   7 NSaved=   7.
 NSaved= 7 IEnMin= 7 EnMin= -33.6615948104284     IErMin= 7 ErrMin= 1.74D-06
 ErrMax= 1.74D-06  0.00D+00 EMaxC= 1.00D-01 BMatC= 1.15D-10 BMatP= 1.39D-09
 IDIUse=1 WtCom= 1.00D+00 WtEn= 0.00D+00
 Coeff-Com:  0.406D-03-0.203D-03-0.523D-02 0.190D-01-0.658D-01-0.136D-01
 Coeff-Com:  0.107D+01
 Coeff:      0.406D-03-0.203D-03-0.523D-02 0.190D-01-0.658D-01-0.136D-01
 Coeff:      0.107D+01
 Gap=     0.649 Goal=   None    Shift=    0.000
 RMSDP=7.44D-07 MaxDP=7.33D-06 DE=-3.73D-09 OVMax= 6.54D-06

 Cycle   8  Pass 1  IDiag  1:
 E= -33.6615948106531     Delta-E=       -0.000000000225 Rises=F Damp=F
 DIIS: error= 9.50D-07 at cycle   8 NSaved=   8.
 NSaved= 8 IEnMin= 8 EnMin= -33.6615948106531     IErMin= 8 ErrMin= 9.50D-07
 ErrMax= 9.50D-07  0.00D+00 EMaxC= 1.00D-01 BMatC= 1.85D-11 BMatP= 1.15D-10
 IDIUse=1 WtCom= 1.00D+00 WtEn= 0.00D+00
 Coeff-Com: -0.679D-05-0.178D-04 0.317D-04-0.685D-03 0.188D-01-0.156D+00
 Coeff-Com:  0.274D+00 0.864D+00
 Coeff:     -0.679D-05-0.178D-04 0.317D-04-0.685D-03 0.188D-01-0.156D+00
 Coeff:      0.274D+00 0.864D+00
 Gap=     0.649 Goal=   None    Shift=    0.000
 RMSDP=2.58D-07 MaxDP=1.62D-06 DE=-2.25D-10 OVMax= 2.63D-06

 Cycle   9  Pass 1  IDiag  1:
 E= -33.6615948106808     Delta-E=       -0.000000000028 Rises=F Damp=F
 DIIS: error= 1.69D-07 at cycle   9 NSaved=   9.
 NSaved= 9 IEnMin= 9 EnMin= -33.6615948106808     IErMin= 9 ErrMin= 1.69D-07
 ErrMax= 1.69D-07  0.00D+00 EMaxC= 1.00D-01 BMatC= 5.89D-13 BMatP= 1.85D-11
 IDIUse=1 WtCom= 1.00D+00 WtEn= 0.00D+00
 Coeff-Com:  0.681D-05 0.493D-05-0.553D-04 0.281D-03-0.596D-02 0.564D-01
 Coeff-Com: -0.142D+00-0.279D+00 0.137D+01
 Coeff:      0.681D-05 0.493D-05-0.553D-04 0.281D-03-0.596D-02 0.564D-01
 Coeff:     -0.142D+00-0.279D+00 0.137D+01
 Gap=     0.649 Goal=   None    Shift=    0.000
 RMSDP=1.02D-07 MaxDP=4.41D-07 DE=-2.77D-11 OVMax= 7.06D-07

 Cycle  10  Pass 1  IDiag  1:
 E= -33.6615948106825     Delta-E=       -0.000000000002 Rises=F Damp=F
 DIIS: error= 1.57D-08 at cycle  10 NSaved=  10.
 NSaved=10 IEnMin=10 EnMin= -33.6615948106825     IErMin=10 ErrMin= 1.57D-08
 ErrMax= 1.57D-08  0.00D+00 EMaxC= 1.00D-01 BMatC= 9.34D-15 BMatP= 5.89D-13
 IDIUse=1 WtCom= 1.00D+00 WtEn= 0.00D+00
 Coeff-Com:  0.426D-06-0.184D-05-0.118D-04 0.365D-04 0.812D-03-0.110D-01
 Coeff-Com:  0.319D-01 0.511D-01-0.381D+00 0.131D+01
 Coeff:      0.426D-06-0.184D-05-0.118D-04 0.365D-04 0.812D-03-0.110D-01
 Coeff:      0.319D-01 0.511D-01-0.381D+00 0.131D+01
 Gap=     0.649 Goal=   None    Shift=    0.000
 RMSDP=1.65D-08 MaxDP=7.84D-08 DE=-1.63D-12 OVMax= 1.10D-07

 Cycle  11  Pass 1  IDiag  1:
 E= -33.6615948106825     Delta-E=       -0.000000000000 Rises=F Damp=F
 DIIS: error= 1.33D-09 at cycle  11 NSaved=  11.
 NSaved=11 IEnMin=11 EnMin= -33.6615948106825     IErMin=11 ErrMin= 1.33D-09
 ErrMax= 1.33D-09  0.00D+00 EMaxC= 1.00D-01 BMatC= 6.04D-17 BMatP= 9.34D-15
 IDIUse=1 WtCom= 1.00D+00 WtEn= 0.00D+00
 Coeff-Com: -0.102D-06 0.385D-06 0.258D-05-0.856D-05-0.173D-03 0.237D-02
 Coeff-Com: -0.699D-02-0.112D-01 0.853D-01-0.335D+00 0.127D+01
 Coeff:     -0.102D-06 0.385D-06 0.258D-05-0.856D-05-0.173D-03 0.237D-02
 Coeff:     -0.699D-02-0.112D-01 0.853D-01-0.335D+00 0.127D+01
 Gap=     0.649 Goal=   None    Shift=    0.000
 RMSDP=1.25D-09 MaxDP=7.69D-09 DE=-1.42D-14 OVMax= 8.53D-09

 SCF Done:  E(RHF) =  -33.6615948107     A.U. after   11 cycles
            NFock= 11  Conv=0.12D-08     -V/T= 2.2560
 KE= 2.680097332138D+01 PE=-1.297639606636D+02 EE= 4.525854119015D+01
 Leave Link  502 at Sun Dec 10 06:46:55 2023, MaxMem=   536870912 cpu:               0.3 elap:               0.1
 (Enter /usr/site/hpc/x86_64/glibc-2.17/broadwell/gaussian/g16_a.03/pgi-16.5/g16/l801.exe)
 Windowed orbitals will be sorted by symmetry type.
 Range of M.O.s used for correlation:     1    24
 NBasis=    24 NAE=     8 NBE=     8 NFC=     0 NFV=     0
 NROrb=     24 NOA=     8 NOB=     8 NVA=    16 NVB=    16
 Leave Link  801 at Sun Dec 10 06:46:55 2023, MaxMem=   536870912 cpu:               0.1 elap:               0.0
 (Enter /usr/site/hpc/x86_64/glibc-2.17/broadwell/gaussian/g16_a.03/pgi-16.5/g16/l804.exe)
 Closed-shell transformation, MDV=   536870912 ITran=4 ISComp=2.
 Unit  1 TFree=       1025975 TCopy=        210600.
 Semi-Direct transformation.
 ModeAB=           2 MOrb=             8 LenV=     536741745
 LASXX=        22470 LTotXX=       22470 LenRXX=       22470
 LTotAB=       26208 MaxLAS=       57600 LenRXY=       57600
 NonZer=       62208 LenScr=      524288 LnRSAI=           0
 LnScr1=           0 LExtra=           0 Total=       604358
 MaxDsk=          -1 SrtSym=           F ITran=            4
 DoSDTr:  NPSUse=  4
 JobTyp=0 Pass  1:  I=   1 to   8.
 (rs|ai) integrals will be sorted in core.
 Complete sort for first half transformation.
 First half transformation complete.
 Complete sort for second half transformation.
 Second half transformation complete.
 Spin components of T(2) and E(2):
     alpha-alpha T2 =       0.9091716032D-02 E2=     -0.2612576154D-01
     alpha-beta  T2 =       0.5947295215D-01 E2=     -0.1765467945D+00
     beta-beta   T2 =       0.9091716032D-02 E2=     -0.2612576154D-01
 ANorm=    0.1038102299D+01
 E2 =    -0.2287983176D+00 EUMP2 =    -0.33890393128316D+02
 Leave Link  804 at Sun Dec 10 06:46:56 2023, MaxMem=   536870912 cpu:               0.2 elap:               0.1
 (Enter /usr/site/hpc/x86_64/glibc-2.17/broadwell/gaussian/g16_a.03/pgi-16.5/g16/l913.exe)
 CIDS:  MDV=   536870912.
 IFCWin=0 IBDFC=1 NFBD=     0     0 NFCmp=     0     0 NFFFC=     0     0
 Using DD3R+UMP44R for 1st iteration.
 Using DD4RQ for 2nd and later iterations.
 Keep R2 and R3 ints in memory in symmetry-blocked form, NReq=865189.
 FoFCou: FMM=F IPFlag=           0 FMFlag=           0 FMFlg1=           0
         NFxFlg=           0 DoJE=F BraDBF=F KetDBF=F FulRan=T
         wScrn=  0.000000 ICntrl=       600 IOpCl=  0 I1Cent=           0 NGrid=           0
         NMat0=    1 NMatS0=    300 NMatT0=    0 NMatD0=    1 NMtDS0=    0 NMtDT0=    0
 Petite list used in FoFCou.
 CIDS: In Core Option IDoMem=           1.
 CCSD(T)
 =======
 Iterations=  50 Convergence= 0.100D-06
 Produce multiple copies of IABC intergrals
 Iteration Nr.   1
 **********************
 DD1Dir will call FoFMem   1 times, MxPair=        72
 NAB=    36 NAA=     0 NBB=     0.
 MP4(R+Q)= -0.72236594D-03
 Maximum subspace dimension=  5
 A-vector RMS=  5.8604183D-03 Max=  1.2708472D-02 conv= 1.00D-05.
 RLE energy=       -0.2345667648
 E3=       -0.51794078D-02        EUMP3=      -0.33895572536D+02
 E4(DQ)=   -0.58106108D-02        UMP4(DQ)=   -0.33901383147D+02
 E4(SDQ)=  -0.79013316D-02        UMP4(SDQ)=  -0.33903473868D+02
 VARIATIONAL ENERGIES WITH THE FIRST-ORDER WAVEFUNCTION:
 DE(Corr)= -0.23442525     E(Corr)=     -33.896020058    
 NORM(A)=   0.10414349D+01
 Iteration Nr.   2
 **********************
 DD1Dir will call FoFMem   1 times, MxPair=        72
 NAB=    36 NAA=     0 NBB=     0.
 A-vector RMS=  9.6623966D-04 Max=  2.6935788D-03 conv= 1.00D-05.
 RLE energy=       -0.2422917111
 DE(Corr)= -0.24038824     E(CORR)=     -33.901983049     Delta=-5.96D-03
 NORM(A)=   0.10451817D+01
 Iteration Nr.   3
 **********************
 DD1Dir will call FoFMem   1 times, MxPair=        72
 NAB=    36 NAA=     0 NBB=     0.
 A-vector RMS=  3.8020125D-04 Max=  7.7936246D-04 conv= 1.00D-05.
 RLE energy=       -0.2428343139
 DE(Corr)= -0.24238862     E(CORR)=     -33.903983433     Delta=-2.00D-03
 NORM(A)=   0.10457286D+01
 Iteration Nr.   4
 **********************
 DD1Dir will call FoFMem   1 times, MxPair=        72
 NAB=    36 NAA=     0 NBB=     0.
 A-vector RMS=  8.7327476D-05 Max=  2.2323297D-04 conv= 1.00D-05.
 RLE energy=       -0.2428816847
 DE(Corr)= -0.24284722     E(CORR)=     -33.904442036     Delta=-4.59D-04
 NORM(A)=   0.10457950D+01
 Iteration Nr.   5
 **********************
 DD1Dir will call FoFMem   1 times, MxPair=        72
 NAB=    36 NAA=     0 NBB=     0.
 A-vector RMS=  3.8140643D-05 Max=  1.1875878D-04 conv= 1.00D-05.
 RLE energy=       -0.2428811471
 DE(Corr)= -0.24287839     E(CORR)=     -33.904473199     Delta=-3.12D-05
 NORM(A)=   0.10458029D+01
 Iteration Nr.   6
 **********************
 DD1Dir will call FoFMem   1 times, MxPair=        72
 NAB=    36 NAA=     0 NBB=     0.
 A-vector RMS=  1.3770730D-05 Max=  4.8205288D-05 conv= 1.00D-05.
 RLE energy=       -0.2428783953
 DE(Corr)= -0.24288094     E(CORR)=     -33.904475753     Delta=-2.55D-06
 NORM(A)=   0.10458047D+01
 Iteration Nr.   7
 **********************
 DD1Dir will call FoFMem   1 times, MxPair=        72
 NAB=    36 NAA=     0 NBB=     0.
 A-vector RMS=  4.9899372D-06 Max=  1.8354729D-05 conv= 1.00D-05.
 RLE energy=       -0.2428801104
 DE(Corr)= -0.24288057     E(CORR)=     -33.904475377     Delta= 3.75D-07
 NORM(A)=   0.10458062D+01
 Iteration Nr.   8
 **********************
 DD1Dir will call FoFMem   1 times, MxPair=        72
 NAB=    36 NAA=     0 NBB=     0.
 A-vector RMS=  1.6603272D-06 Max=  7.6812833D-06 conv= 1.00D-05.
 RLE energy=       -0.2428801467
 DE(Corr)= -0.24288028     E(CORR)=     -33.904475088     Delta= 2.89D-07
 NORM(A)=   0.10458066D+01
 Iteration Nr.   9
 **********************
 DD1Dir will call FoFMem   1 times, MxPair=        72
 NAB=    36 NAA=     0 NBB=     0.
 A-vector RMS=  4.8071627D-07 Max=  2.4000584D-06 conv= 1.00D-05.
 RLE energy=       -0.2428803418
 DE(Corr)= -0.24288039     E(CORR)=     -33.904475196     Delta=-1.09D-07
 NORM(A)=   0.10458069D+01
 Iteration Nr.  10
 **********************
 DD1Dir will call FoFMem   1 times, MxPair=        72
 NAB=    36 NAA=     0 NBB=     0.
 A-vector RMS=  1.3419721D-07 Max=  6.0495971D-07 conv= 1.00D-05.
 RLE energy=       -0.2428804893
 DE(Corr)= -0.24288046     E(CORR)=     -33.904475274     Delta=-7.71D-08
 NORM(A)=   0.10458070D+01
 CI/CC converged in   10 iterations to DelEn=-7.71D-08 Conv= 1.00D-07 ErrA1= 1.34D-07 Conv= 1.00D-05
 Wavefunction amplitudes converged. E(Corr)=     -33.904475274    
 Largest amplitude= 5.06D-02
 IPart=  3 IA=    2   12.50% done.
 IPart=  2 IA=    3   24.17% done.
 IPart=  4 IA=    4   35.00% done.
 IPart=  4 IA=    5   45.00% done.
 IPart=  3 IA=    6   54.17% done.
 IPart=  2 IA=    7   62.50% done.
 IPart=  1 IA=    8   70.00% done.
 IPart=  2 IA=   10   82.50% done.
 IPart=  4 IA=   12   91.67% done.
 Time for triples=        0.26 seconds.
 T4(CCSD)= -0.32165651D-02
 T5(CCSD)=  0.53828595D-03
 CCSD(T)= -0.33907153553D+02
 Discarding MO integrals.
 Leave Link  913 at Sun Dec 10 06:46:56 2023, MaxMem=   536870912 cpu:               1.0 elap:               0.2
 (Enter /usr/site/hpc/x86_64/glibc-2.17/broadwell/gaussian/g16_a.03/pgi-16.5/g16/l601.exe)
 Copying SCF densities to generalized density rwf, IOpCl= 0 IROHF=0.

 **********************************************************************

            Population analysis using the SCF density.

 **********************************************************************

 Orbital symmetries:
       Occupied  (A') (A') (A') (A') (A') (A") (A') (A")
       Virtual   (A') (A') (A') (A') (A") (A') (A") (A') (A') (A')
                 (A') (A') (A') (A') (A') (A')
 The electronic state is 1-A'.
 Alpha  occ. eigenvalues --   -1.37951  -1.32309  -0.73601  -0.68203  -0.58476
 Alpha  occ. eigenvalues --   -0.52656  -0.52108  -0.46991
 Alpha virt. eigenvalues --    0.17934   0.25250   0.28616   0.39174   0.77107
 Alpha virt. eigenvalues --    0.80353   0.84354   0.86375   0.90482   0.98612
 Alpha virt. eigenvalues --    1.15286   1.19159   1.21533   1.34494   2.49909
 Alpha virt. eigenvalues --    3.08006
          Condensed to atoms (all electrons):
               1          2          3          4          5          6
     1  O    6.245792   0.276328   0.262461  -0.002755   0.000093   0.000040
     2  H    0.276328   0.329902  -0.023493  -0.004928   0.000336   0.000349
     3  H    0.262461  -0.023493   0.402170   0.000386  -0.000002  -0.000009
     4  O   -0.002755  -0.004928   0.000386   6.251393   0.268650   0.270130
     5  H    0.000093   0.000336  -0.000002   0.268650   0.362135  -0.022811
     6  H    0.000040   0.000349  -0.000009   0.270130  -0.022811   0.359057
 Mulliken charges:
               1
     1  O   -0.781959
     2  H    0.421507
     3  H    0.358487
     4  O   -0.782876
     5  H    0.391599
     6  H    0.393244
 Sum of Mulliken charges =  -0.00000
 Mulliken charges with hydrogens summed into heavy atoms:
               1
     1  O   -0.001966
     4  O    0.001966
 Electronic spatial extent (au):  <R**2>=            190.6581
 Charge=             -0.0000 electrons
 Dipole moment (field-independent basis, Debye):
    X=             -1.5139    Y=             -4.4831    Z=              0.0000  Tot=              4.7318
 Quadrupole moment (field-independent basis, Debye-Ang):
   XX=             -9.4055   YY=             -8.1173   ZZ=            -15.0096
   XY=             -5.1350   XZ=              0.0000   YZ=             -0.0000
 Traceless Quadrupole moment (field-independent basis, Debye-Ang):
   XX=              1.4386   YY=              2.7268   ZZ=             -4.1655
   XY=             -5.1350   XZ=              0.0000   YZ=             -0.0000
 Octapole moment (field-independent basis, Debye-Ang**2):
  XXX=             -0.7541  YYY=            -31.9343  ZZZ=              0.0000  XYY=             -9.5357
  XXY=             -3.4907  XXZ=              0.0000  XZZ=             -0.2833  YZZ=             -0.9190
  YYZ=              0.0000  XYZ=              0.0000
 Hexadecapole moment (field-independent basis, Debye-Ang**3):
 XXXX=            -11.6539 YYYY=           -176.5819 ZZZZ=            -12.2622 XXXY=             -2.7910
 XXXZ=              0.0000 YYYX=            -14.7875 YYYZ=              0.0000 ZZZX=             -0.0000
 ZZZY=              0.0000 XXYY=            -24.3565 XXZZ=             -4.5540 YYZZ=            -44.0308
 XXYZ=              0.0000 YYXZ=              0.0000 ZZXY=              0.6170
 N-N= 2.404285134136D+01 E-N=-1.297639606641D+02  KE= 2.680097332138D+01
 Symmetry A'   KE= 1.794251164776D+01
 Symmetry A"   KE= 8.858461673620D+00
 Leave Link  601 at Sun Dec 10 06:46:56 2023, MaxMem=   536870912 cpu:               0.1 elap:               0.0
 (Enter /usr/site/hpc/x86_64/glibc-2.17/broadwell/gaussian/g16_a.03/pgi-16.5/g16/l9999.exe)
 1\1\GINC-N044\SP\RCCSD(T)-FC\CEP-31G\H4O2\ROOT\10-Dec-2023\0\\#p CCSD(
 T)/CEP-31G\\H2O_H2O_1493\\0,1\O,0,0.,-0.009833,0.\H,0,-0.799571,-0.580
 965,0.\H,0,0.799571,-0.580965,0.\O,0,-2.627375,-1.874001,0.\H,0,-3.461
 014,-1.353856,0.\H,0,-2.849049,-2.831272,0.\\Version=ES64L-G16RevA.03\
 State=1-A'\HF=-33.6615948\MP2=-33.8903931\MP3=-33.8955725\MP4D=-33.900
 6608\MP4DQ=-33.9013831\MP4SDQ=-33.9034739\CCSD=-33.9044753\CCSD(T)=-33
 .9071536\RMSD=1.246e-09\PG=CS [SG(H4O2)]\\@


 DESK:  A WASTEBASKET WITH DRAWERS.
 Job cpu time:       0 days  0 hours  0 minutes  3.5 seconds.
 Elapsed time:       0 days  0 hours  0 minutes  1.0 seconds.
 File lengths (MBytes):  RWF=     72 Int=      0 D2E=      0 Chk=      8 Scr=      8
 Normal termination of Gaussian 16 at Sun Dec 10 06:46:56 2023.
