 Entering Gaussian System, Link 0=g16
 Input=H2O_H2O_3058.com
 Output=H2O_H2O_3058.log
 Initial command:
 /usr/site/hpc/x86_64/glibc-2.17/broadwell/gaussian/g16_a.03/pgi-16.5/g16/l1.exe "/gpfs/gpfs1/scratch/c7441090/OH Coord/Gau-1174835.inp" -scrdir="/gpfs/gpfs1/scratch/c7441090/OH Coord/"
 Entering Link 1 = /usr/site/hpc/x86_64/glibc-2.17/broadwell/gaussian/g16_a.03/pgi-16.5/g16/l1.exe PID=   1174836.
  
 Copyright (c) 1988,1990,1992,1993,1995,1998,2003,2009,2016,
            Gaussian, Inc.  All Rights Reserved.
  
 This is part of the Gaussian(R) 16 program.  It is based on
 the Gaussian(R) 09 system (copyright 2009, Gaussian, Inc.),
 the Gaussian(R) 03 system (copyright 2003, Gaussian, Inc.),
 the Gaussian(R) 98 system (copyright 1998, Gaussian, Inc.),
 the Gaussian(R) 94 system (copyright 1995, Gaussian, Inc.),
 the Gaussian 92(TM) system (copyright 1992, Gaussian, Inc.),
 the Gaussian 90(TM) system (copyright 1990, Gaussian, Inc.),
 the Gaussian 88(TM) system (copyright 1988, Gaussian, Inc.),
 the Gaussian 86(TM) system (copyright 1986, Carnegie Mellon
 University), and the Gaussian 82(TM) system (copyright 1983,
 Carnegie Mellon University). Gaussian is a federally registered
 trademark of Gaussian, Inc.
  
 This software contains proprietary and confidential information,
 including trade secrets, belonging to Gaussian, Inc.
  
 This software is provided under written license and may be
 used, copied, transmitted, or stored only in accord with that
 written license.
  
 The following legend is applicable only to US Government
 contracts under FAR:
  
                    RESTRICTED RIGHTS LEGEND
  
 Use, reproduction and disclosure by the US Government is
 subject to restrictions as set forth in subparagraphs (a)
 and (c) of the Commercial Computer Software - Restricted
 Rights clause in FAR 52.227-19.
  
 Gaussian, Inc.
 340 Quinnipiac St., Bldg. 40, Wallingford CT 06492
  
  
 ---------------------------------------------------------------
 Warning -- This program may not be used in any manner that
 competes with the business of Gaussian, Inc. or will provide
 assistance to any competitor of Gaussian, Inc.  The licensee
 of this program is prohibited from giving any competitor of
 Gaussian, Inc. access to this program.  By using this program,
 the user acknowledges that Gaussian, Inc. is engaged in the
 business of creating and licensing software in the field of
 computational chemistry and represents and warrants to the
 licensee that it is not a competitor of Gaussian, Inc. and that
 it will not use this program in any manner prohibited above.
 ---------------------------------------------------------------
  

 Cite this work as:
 Gaussian 16, Revision A.03,
 M. J. Frisch, G. W. Trucks, H. B. Schlegel, G. E. Scuseria, 
 M. A. Robb, J. R. Cheeseman, G. Scalmani, V. Barone, 
 G. A. Petersson, H. Nakatsuji, X. Li, M. Caricato, A. V. Marenich, 
 J. Bloino, B. G. Janesko, R. Gomperts, B. Mennucci, H. P. Hratchian, 
 J. V. Ortiz, A. F. Izmaylov, J. L. Sonnenberg, D. Williams-Young, 
 F. Ding, F. Lipparini, F. Egidi, J. Goings, B. Peng, A. Petrone, 
 T. Henderson, D. Ranasinghe, V. G. Zakrzewski, J. Gao, N. Rega, 
 G. Zheng, W. Liang, M. Hada, M. Ehara, K. Toyota, R. Fukuda, 
 J. Hasegawa, M. Ishida, T. Nakajima, Y. Honda, O. Kitao, H. Nakai, 
 T. Vreven, K. Throssell, J. A. Montgomery, Jr., J. E. Peralta, 
 F. Ogliaro, M. J. Bearpark, J. J. Heyd, E. N. Brothers, K. N. Kudin, 
 V. N. Staroverov, T. A. Keith, R. Kobayashi, J. Normand, 
 K. Raghavachari, A. P. Rendell, J. C. Burant, S. S. Iyengar, 
 J. Tomasi, M. Cossi, J. M. Millam, M. Klene, C. Adamo, R. Cammi, 
 J. W. Ochterski, R. L. Martin, K. Morokuma, O. Farkas, 
 J. B. Foresman, and D. J. Fox, Gaussian, Inc., Wallingford CT, 2016.
 
 ******************************************
 Gaussian 16:  ES64L-G16RevA.03 25-Dec-2016
                10-Dec-2023 
 ******************************************
 %NProcShared=4
 Will use up to    4 processors via shared memory.
 %Mem=4GB
 %Chk=H2O_H2O_3058.chk
 ------------------
 #p CCSD(T)/CEP-31G
 ------------------
 1/38=1,172=1/1;
 2/12=2,17=6,18=5,40=1/2;
 3/5=9,6=1,11=9,25=1,30=1/1,2,3;
 4//1;
 5/5=2,38=5/2;
 8/6=4,9=120000,10=1/1,4;
 9/5=7,14=2/13;
 6/7=2,8=2,9=2,10=2/1;
 99/5=1,9=1/99;
 Leave Link    1 at Sun Dec 10 06:28:05 2023, MaxMem=   536870912 cpu:               0.2 elap:               0.1
 (Enter /usr/site/hpc/x86_64/glibc-2.17/broadwell/gaussian/g16_a.03/pgi-16.5/g16/l101.exe)
 ------------
 H2O_H2O_3058
 ------------
 Symbolic Z-matrix:
 Charge =  0 Multiplicity = 1
 O                     0.       -0.00983   0. 
 H                    -0.79957  -0.58097   0. 
 H                     0.79957  -0.58097   0. 
 O                    -3.64563  -2.60907   0. 
 H                    -4.62364  -2.7039    0. 
 H                    -3.23874  -3.50347   0. 
 
 ITRead=  0  0  0  0  0  0
 MicOpt= -1 -1 -1 -1 -1 -1
 NAtoms=      6 NQM=        6 NQMF=       0 NMMI=      0 NMMIF=      0
                NMic=       0 NMicF=      0.
                    Isotopes and Nuclear Properties:
 (Nuclear quadrupole moments (NQMom) in fm**2, nuclear magnetic moments (NMagM)
  in nuclear magnetons)

  Atom         1           2           3           4           5           6
 IAtWgt=          16           1           1          16           1           1
 AtmWgt=  15.9949146   1.0078250   1.0078250  15.9949146   1.0078250   1.0078250
 NucSpn=           0           1           1           0           1           1
 AtZEff=  -0.0000000  -0.0000000  -0.0000000  -0.0000000  -0.0000000  -0.0000000
 NQMom=    0.0000000   0.0000000   0.0000000   0.0000000   0.0000000   0.0000000
 NMagM=    0.0000000   2.7928460   2.7928460   0.0000000   2.7928460   2.7928460
 AtZNuc=   8.0000000   1.0000000   1.0000000   8.0000000   1.0000000   1.0000000
 Leave Link  101 at Sun Dec 10 06:28:05 2023, MaxMem=   536870912 cpu:               0.3 elap:               0.1
 (Enter /usr/site/hpc/x86_64/glibc-2.17/broadwell/gaussian/g16_a.03/pgi-16.5/g16/l202.exe)
                          Input orientation:                          
 ---------------------------------------------------------------------
 Center     Atomic      Atomic             Coordinates (Angstroms)
 Number     Number       Type             X           Y           Z
 ---------------------------------------------------------------------
      1          8           0        0.000000   -0.009833    0.000000
      2          1           0       -0.799571   -0.580965    0.000000
      3          1           0        0.799571   -0.580965    0.000000
      4          8           0       -3.645627   -2.609067    0.000000
      5          1           0       -4.623642   -2.703896    0.000000
      6          1           0       -3.238744   -3.503467    0.000000
 ---------------------------------------------------------------------
                    Distance matrix (angstroms):
                    1          2          3          4          5
     1  O    0.000000
     2  H    0.982601   0.000000
     3  H    0.982601   1.599142   0.000000
     4  O    4.477344   3.494744   4.885999   0.000000
     5  H    5.351265   4.373826   5.823923   0.982602   0.000000
     6  H    4.763921   3.806650   4.984878   0.982601   1.599142
                    6
     6  H    0.000000
 Stoichiometry    H4O2
 Framework group  CS[SG(H4O2)]
 Deg. of freedom     9
 Full point group                 CS      NOp   2
 Largest Abelian subgroup         CS      NOp   2
 Largest concise Abelian subgroup C1      NOp   1
                         Standard orientation:                         
 ---------------------------------------------------------------------
 Center     Atomic      Atomic             Coordinates (Angstroms)
 Number     Number       Type             X           Y           Z
 ---------------------------------------------------------------------
      1          8           0        0.070199    2.323794   -0.000000
      2          1           0        0.069337    1.341193   -0.000000
      3          1           0       -0.859014    2.643276    0.000000
      4          8           0        0.070199   -2.153551   -0.000000
      5          1           0        0.560753   -3.004939   -0.000000
      6          1           0       -0.894264   -2.341477    0.000000
 ---------------------------------------------------------------------
 Rotational constants (GHZ):         255.2483822           2.7466558           2.7174144
 Leave Link  202 at Sun Dec 10 06:28:05 2023, MaxMem=   536870912 cpu:               0.0 elap:               0.0
 (Enter /usr/site/hpc/x86_64/glibc-2.17/broadwell/gaussian/g16_a.03/pgi-16.5/g16/l301.exe)
 Standard basis: CEP-31G (6D, 10F)
 Ernie: Thresh=  0.10000D-02 Tol=  0.10000D-05 Strict=F.
 There are    20 symmetry adapted cartesian basis functions of A'  symmetry.
 There are     4 symmetry adapted cartesian basis functions of A"  symmetry.
 There are    20 symmetry adapted basis functions of A'  symmetry.
 There are     4 symmetry adapted basis functions of A"  symmetry.
    24 basis functions,    48 primitive gaussians,    24 cartesian basis functions
     8 alpha electrons        8 beta electrons
       nuclear repulsion energy        21.1169826534 Hartrees.
 IExCor=    0 DFT=F Ex=HF Corr=None ExCW=0 ScaHFX=  1.000000
 ScaDFX=  1.000000  1.000000  1.000000  1.000000 ScalE2=  1.000000  1.000000
 IRadAn=      5 IRanWt=     -1 IRanGd=            0 ICorTp=0 IEmpDi=  4
 NAtoms=    6 NActive=    6 NUniq=    6 SFac= 1.00D+00 NAtFMM=   60 NAOKFM=F Big=F
 Integral buffers will be    131072 words long.
 Raffenetti 1 integral format.
 Two-electron integral symmetry is turned on.
 Leave Link  301 at Sun Dec 10 06:28:05 2023, MaxMem=   536870912 cpu:               0.2 elap:               0.1
 (Enter /usr/site/hpc/x86_64/glibc-2.17/broadwell/gaussian/g16_a.03/pgi-16.5/g16/l302.exe)
 NPDir=0 NMtPBC=     1 NCelOv=     1 NCel=       1 NClECP=     1 NCelD=      1
         NCelK=      1 NCelE2=     1 NClLst=     1 CellRange=     0.0.
 One-electron integrals computed using PRISM.
 One-electron integral symmetry used in STVInt
   2 Symmetry operations used in ECPInt.
 ECPInt:  NShTT=      78 NPrTT=     318 LenC2=      79 LenP2D=     272.
 LDataN:  DoStor=T MaxTD1= 2 Len=   12
 NBasis=    24 RedAO= T EigKep=  3.74D-02  NBF=    20     4
 NBsUse=    24 1.00D-06 EigRej= -1.00D+00 NBFU=    20     4
 Leave Link  302 at Sun Dec 10 06:28:05 2023, MaxMem=   536870912 cpu:               0.3 elap:               0.1
 (Enter /usr/site/hpc/x86_64/glibc-2.17/broadwell/gaussian/g16_a.03/pgi-16.5/g16/l303.exe)
 DipDrv:  MaxL=1.
 Leave Link  303 at Sun Dec 10 06:28:05 2023, MaxMem=   536870912 cpu:               0.1 elap:               0.0
 (Enter /usr/site/hpc/x86_64/glibc-2.17/broadwell/gaussian/g16_a.03/pgi-16.5/g16/l401.exe)
 ExpMin= 1.78D-01 ExpMax= 1.92D+01 ExpMxC= 1.92D+01 IAcc=3 IRadAn=         5 AccDes= 0.00D+00
 Harris functional with IExCor=  205 and IRadAn=       5 diagonalized for initial guess.
 HarFok:  IExCor=  205 AccDes= 0.00D+00 IRadAn=         5 IDoV= 1 UseB2=F ITyADJ=14
 ICtDFT=  3500011 ScaDFX=  1.000000  1.000000  1.000000  1.000000
 FoFCou: FMM=F IPFlag=           0 FMFlag=      100000 FMFlg1=           0
         NFxFlg=           0 DoJE=T BraDBF=F KetDBF=T FulRan=T
         wScrn=  0.000000 ICntrl=       500 IOpCl=  0 I1Cent=   200000004 NGrid=           0
         NMat0=    1 NMatS0=      1 NMatT0=    0 NMatD0=    1 NMtDS0=    0 NMtDT0=    0
 Petite list used in FoFCou.
 Harris En= -34.4765229560273    
 JPrj=0 DoOrth=F DoCkMO=F.
 Initial guess orbital symmetries:
       Occupied  (A') (A') (A') (A') (A') (A') (A") (A")
       Virtual   (A') (A') (A') (A') (A") (A") (A') (A') (A') (A')
                 (A') (A') (A') (A') (A') (A')
 The electronic state of the initial guess is 1-A'.
 Leave Link  401 at Sun Dec 10 06:28:05 2023, MaxMem=   536870912 cpu:               0.4 elap:               0.1
 (Enter /usr/site/hpc/x86_64/glibc-2.17/broadwell/gaussian/g16_a.03/pgi-16.5/g16/l502.exe)
 Keep R1 ints in memory in symmetry-blocked form, NReq=852196.
 FoFCou: FMM=F IPFlag=           0 FMFlag=           0 FMFlg1=           0
         NFxFlg=           0 DoJE=F BraDBF=F KetDBF=F FulRan=T
         wScrn=  0.000000 ICntrl=       600 IOpCl=  0 I1Cent=           0 NGrid=           0
         NMat0=    1 NMatS0=    300 NMatT0=    0 NMatD0=    1 NMtDS0=    0 NMtDT0=    0
 Petite list used in FoFCou.
 Closed shell SCF:
 Using DIIS extrapolation, IDIIS=  1040.
 NGot=   536870912 LenX=   536840576 LenY=   536839559
 Requested convergence on RMS density matrix=1.00D-08 within 128 cycles.
 Requested convergence on MAX density matrix=1.00D-06.
 Requested convergence on             energy=1.00D-06.
 No special actions if energy rises.

 Cycle   1  Pass 1  IDiag  1:
 E= -33.5614652834895    
 DIIS: error= 6.81D-02 at cycle   1 NSaved=   1.
 NSaved= 1 IEnMin= 1 EnMin= -33.5614652834895     IErMin= 1 ErrMin= 6.81D-02
 ErrMax= 6.81D-02  0.00D+00 EMaxC= 1.00D-01 BMatC= 1.01D-01 BMatP= 1.01D-01
 IDIUse=3 WtCom= 3.19D-01 WtEn= 6.81D-01
 Coeff-Com:  0.100D+01
 Coeff-En:   0.100D+01
 Coeff:      0.100D+01
 Gap=     0.595 Goal=   None    Shift=    0.000
 GapD=    0.595 DampG=2.000 DampE=0.500 DampFc=1.0000 IDamp=-1.
 RMSDP=1.47D-02 MaxDP=1.18D-01              OVMax= 9.80D-02

 Cycle   2  Pass 1  IDiag  1:
 E= -33.6233013445218     Delta-E=       -0.061836061032 Rises=F Damp=F
 DIIS: error= 3.70D-02 at cycle   2 NSaved=   2.
 NSaved= 2 IEnMin= 2 EnMin= -33.6233013445218     IErMin= 2 ErrMin= 3.70D-02
 ErrMax= 3.70D-02  0.00D+00 EMaxC= 1.00D-01 BMatC= 3.76D-02 BMatP= 1.01D-01
 IDIUse=3 WtCom= 6.30D-01 WtEn= 3.70D-01
 Coeff-Com:  0.376D+00 0.624D+00
 Coeff-En:   0.110D+00 0.890D+00
 Coeff:      0.278D+00 0.722D+00
 Gap=     0.681 Goal=   None    Shift=    0.000
 RMSDP=6.35D-03 MaxDP=5.37D-02 DE=-6.18D-02 OVMax= 3.54D-02

 Cycle   3  Pass 1  IDiag  1:
 E= -33.6533738261568     Delta-E=       -0.030072481635 Rises=F Damp=F
 DIIS: error= 7.02D-03 at cycle   3 NSaved=   3.
 NSaved= 3 IEnMin= 3 EnMin= -33.6533738261568     IErMin= 3 ErrMin= 7.02D-03
 ErrMax= 7.02D-03  0.00D+00 EMaxC= 1.00D-01 BMatC= 8.68D-04 BMatP= 3.76D-02
 IDIUse=3 WtCom= 9.30D-01 WtEn= 7.02D-02
 Coeff-Com: -0.113D+00-0.170D-01 0.113D+01
 Coeff-En:   0.000D+00 0.000D+00 0.100D+01
 Coeff:     -0.105D+00-0.158D-01 0.112D+01
 Gap=     0.673 Goal=   None    Shift=    0.000
 RMSDP=1.04D-03 MaxDP=8.93D-03 DE=-3.01D-02 OVMax= 7.89D-03

 Cycle   4  Pass 1  IDiag  1:
 E= -33.6542349890917     Delta-E=       -0.000861162935 Rises=F Damp=F
 DIIS: error= 7.28D-04 at cycle   4 NSaved=   4.
 NSaved= 4 IEnMin= 4 EnMin= -33.6542349890917     IErMin= 4 ErrMin= 7.28D-04
 ErrMax= 7.28D-04  0.00D+00 EMaxC= 1.00D-01 BMatC= 5.56D-06 BMatP= 8.68D-04
 IDIUse=3 WtCom= 9.93D-01 WtEn= 7.28D-03
 Coeff-Com:  0.436D-01-0.171D-01-0.530D+00 0.150D+01
 Coeff-En:   0.000D+00 0.000D+00 0.000D+00 0.100D+01
 Coeff:      0.433D-01-0.170D-01-0.527D+00 0.150D+01
 Gap=     0.675 Goal=   None    Shift=    0.000
 RMSDP=2.31D-04 MaxDP=1.98D-03 DE=-8.61D-04 OVMax= 9.43D-04

 Cycle   5  Pass 1  IDiag  1:
 E= -33.6542474955200     Delta-E=       -0.000012506428 Rises=F Damp=F
 DIIS: error= 4.84D-05 at cycle   5 NSaved=   5.
 NSaved= 5 IEnMin= 5 EnMin= -33.6542474955200     IErMin= 5 ErrMin= 4.84D-05
 ErrMax= 4.84D-05  0.00D+00 EMaxC= 1.00D-01 BMatC= 3.70D-08 BMatP= 5.56D-06
 IDIUse=1 WtCom= 1.00D+00 WtEn= 0.00D+00
 Coeff-Com: -0.592D-02 0.266D-02 0.733D-01-0.255D+00 0.118D+01
 Coeff:     -0.592D-02 0.266D-02 0.733D-01-0.255D+00 0.118D+01
 Gap=     0.675 Goal=   None    Shift=    0.000
 RMSDP=1.52D-05 MaxDP=1.61D-04 DE=-1.25D-05 OVMax= 1.06D-04

 Cycle   6  Pass 1  IDiag  1:
 E= -33.6542475813662     Delta-E=       -0.000000085846 Rises=F Damp=F
 DIIS: error= 1.05D-05 at cycle   6 NSaved=   6.
 NSaved= 6 IEnMin= 6 EnMin= -33.6542475813662     IErMin= 6 ErrMin= 1.05D-05
 ErrMax= 1.05D-05  0.00D+00 EMaxC= 1.00D-01 BMatC= 3.66D-09 BMatP= 3.70D-08
 IDIUse=1 WtCom= 1.00D+00 WtEn= 0.00D+00
 Coeff-Com: -0.187D-02 0.857D-03 0.232D-01-0.707D-01 0.105D+00 0.943D+00
 Coeff:     -0.187D-02 0.857D-03 0.232D-01-0.707D-01 0.105D+00 0.943D+00
 Gap=     0.675 Goal=   None    Shift=    0.000
 RMSDP=3.28D-06 MaxDP=2.70D-05 DE=-8.58D-08 OVMax= 3.33D-05

 Cycle   7  Pass 1  IDiag  1:
 E= -33.6542475874169     Delta-E=       -0.000000006051 Rises=F Damp=F
 DIIS: error= 4.68D-06 at cycle   7 NSaved=   7.
 NSaved= 7 IEnMin= 7 EnMin= -33.6542475874169     IErMin= 7 ErrMin= 4.68D-06
 ErrMax= 4.68D-06  0.00D+00 EMaxC= 1.00D-01 BMatC= 6.33D-10 BMatP= 3.66D-09
 IDIUse=1 WtCom= 1.00D+00 WtEn= 0.00D+00
 Coeff-Com:  0.869D-03-0.350D-03-0.106D-01 0.371D-01-0.192D+00 0.126D+00
 Coeff-Com:  0.104D+01
 Coeff:      0.869D-03-0.350D-03-0.106D-01 0.371D-01-0.192D+00 0.126D+00
 Coeff:      0.104D+01
 Gap=     0.675 Goal=   None    Shift=    0.000
 RMSDP=1.70D-06 MaxDP=1.55D-05 DE=-6.05D-09 OVMax= 1.67D-05

 Cycle   8  Pass 1  IDiag  1:
 E= -33.6542475886553     Delta-E=       -0.000000001238 Rises=F Damp=F
 DIIS: error= 1.04D-06 at cycle   8 NSaved=   8.
 NSaved= 8 IEnMin= 8 EnMin= -33.6542475886553     IErMin= 8 ErrMin= 1.04D-06
 ErrMax= 1.04D-06  0.00D+00 EMaxC= 1.00D-01 BMatC= 2.35D-11 BMatP= 6.33D-10
 IDIUse=1 WtCom= 1.00D+00 WtEn= 0.00D+00
 Coeff-Com:  0.697D-06-0.241D-04-0.663D-04-0.663D-03 0.285D-01-0.891D-01
 Coeff-Com: -0.213D+00 0.127D+01
 Coeff:      0.697D-06-0.241D-04-0.663D-04-0.663D-03 0.285D-01-0.891D-01
 Coeff:     -0.213D+00 0.127D+01
 Gap=     0.675 Goal=   None    Shift=    0.000
 RMSDP=5.29D-07 MaxDP=2.88D-06 DE=-1.24D-09 OVMax= 4.08D-06

 Cycle   9  Pass 1  IDiag  1:
 E= -33.6542475887183     Delta-E=       -0.000000000063 Rises=F Damp=F
 DIIS: error= 1.39D-07 at cycle   9 NSaved=   9.
 NSaved= 9 IEnMin= 9 EnMin= -33.6542475887183     IErMin= 9 ErrMin= 1.39D-07
 ErrMax= 1.39D-07  0.00D+00 EMaxC= 1.00D-01 BMatC= 6.16D-13 BMatP= 2.35D-11
 IDIUse=1 WtCom= 1.00D+00 WtEn= 0.00D+00
 Coeff-Com:  0.373D-05 0.629D-05-0.181D-04 0.346D-03-0.107D-01 0.350D-01
 Coeff-Com:  0.769D-01-0.541D+00 0.144D+01
 Coeff:      0.373D-05 0.629D-05-0.181D-04 0.346D-03-0.107D-01 0.350D-01
 Coeff:      0.769D-01-0.541D+00 0.144D+01
 Gap=     0.675 Goal=   None    Shift=    0.000
 RMSDP=1.16D-07 MaxDP=5.00D-07 DE=-6.30D-11 OVMax= 7.81D-07

 Cycle  10  Pass 1  IDiag  1:
 E= -33.6542475887200     Delta-E=       -0.000000000002 Rises=F Damp=F
 DIIS: error= 8.97D-09 at cycle  10 NSaved=  10.
 NSaved=10 IEnMin=10 EnMin= -33.6542475887200     IErMin=10 ErrMin= 8.97D-09
 ErrMax= 8.97D-09  0.00D+00 EMaxC= 1.00D-01 BMatC= 3.37D-15 BMatP= 6.16D-13
 IDIUse=1 WtCom= 1.00D+00 WtEn= 0.00D+00
 Coeff-Com:  0.191D-06-0.164D-05-0.838D-05-0.316D-04 0.212D-02-0.750D-02
 Coeff-Com: -0.159D-01 0.115D+00-0.366D+00 0.127D+01
 Coeff:      0.191D-06-0.164D-05-0.838D-05-0.316D-04 0.212D-02-0.750D-02
 Coeff:     -0.159D-01 0.115D+00-0.366D+00 0.127D+01
 Gap=     0.675 Goal=   None    Shift=    0.000
 RMSDP=1.23D-08 MaxDP=6.04D-08 DE=-1.72D-12 OVMax= 7.45D-08

 Cycle  11  Pass 1  IDiag  1:
 E= -33.6542475887200     Delta-E=        0.000000000000 Rises=F Damp=F
 DIIS: error= 5.18D-10 at cycle  11 NSaved=  11.
 NSaved=11 IEnMin=10 EnMin= -33.6542475887200     IErMin=11 ErrMin= 5.18D-10
 ErrMax= 5.18D-10  0.00D+00 EMaxC= 1.00D-01 BMatC= 1.01D-17 BMatP= 3.37D-15
 IDIUse=1 WtCom= 1.00D+00 WtEn= 0.00D+00
 Coeff-Com: -0.776D-07 0.281D-06 0.189D-05 0.349D-05-0.348D-03 0.126D-02
 Coeff-Com:  0.262D-02-0.194D-01 0.629D-01-0.250D+00 0.120D+01
 Coeff:     -0.776D-07 0.281D-06 0.189D-05 0.349D-05-0.348D-03 0.126D-02
 Coeff:      0.262D-02-0.194D-01 0.629D-01-0.250D+00 0.120D+01
 Gap=     0.675 Goal=   None    Shift=    0.000
 RMSDP=4.78D-10 MaxDP=2.60D-09 DE= 4.26D-14 OVMax= 2.73D-09

 SCF Done:  E(RHF) =  -33.6542475887     A.U. after   11 cycles
            NFock= 11  Conv=0.48D-09     -V/T= 2.2569
 KE= 2.677610223918D+01 PE=-1.238385337679D+02 EE= 4.229120128662D+01
 Leave Link  502 at Sun Dec 10 06:28:06 2023, MaxMem=   536870912 cpu:               0.3 elap:               0.1
 (Enter /usr/site/hpc/x86_64/glibc-2.17/broadwell/gaussian/g16_a.03/pgi-16.5/g16/l801.exe)
 Windowed orbitals will be sorted by symmetry type.
 Range of M.O.s used for correlation:     1    24
 NBasis=    24 NAE=     8 NBE=     8 NFC=     0 NFV=     0
 NROrb=     24 NOA=     8 NOB=     8 NVA=    16 NVB=    16
 Leave Link  801 at Sun Dec 10 06:28:06 2023, MaxMem=   536870912 cpu:               0.1 elap:               0.0
 (Enter /usr/site/hpc/x86_64/glibc-2.17/broadwell/gaussian/g16_a.03/pgi-16.5/g16/l804.exe)
 Closed-shell transformation, MDV=   536870912 ITran=4 ISComp=2.
 Unit  1 TFree=       1025975 TCopy=        210600.
 Semi-Direct transformation.
 ModeAB=           2 MOrb=             8 LenV=     536742082
 LASXX=        22470 LTotXX=       22470 LenRXX=       22470
 LTotAB=       26208 MaxLAS=       57600 LenRXY=       57600
 NonZer=       61248 LenScr=      524288 LnRSAI=           0
 LnScr1=           0 LExtra=           0 Total=       604358
 MaxDsk=          -1 SrtSym=           F ITran=            4
 DoSDTr:  NPSUse=  4
 JobTyp=0 Pass  1:  I=   1 to   8.
 (rs|ai) integrals will be sorted in core.
 Complete sort for first half transformation.
 First half transformation complete.
 Complete sort for second half transformation.
 Second half transformation complete.
 Spin components of T(2) and E(2):
     alpha-alpha T2 =       0.9070886995D-02 E2=     -0.2591381315D-01
     alpha-beta  T2 =       0.5985114508D-01 E2=     -0.1765303613D+00
     beta-beta   T2 =       0.9070886995D-02 E2=     -0.2591381315D-01
 ANorm=    0.1038264378D+01
 E2 =    -0.2283579876D+00 EUMP2 =    -0.33882605576357D+02
 Leave Link  804 at Sun Dec 10 06:28:06 2023, MaxMem=   536870912 cpu:               0.2 elap:               0.1
 (Enter /usr/site/hpc/x86_64/glibc-2.17/broadwell/gaussian/g16_a.03/pgi-16.5/g16/l913.exe)
 CIDS:  MDV=   536870912.
 IFCWin=0 IBDFC=1 NFBD=     0     0 NFCmp=     0     0 NFFFC=     0     0
 Using DD3R+UMP44R for 1st iteration.
 Using DD4RQ for 2nd and later iterations.
 Keep R2 and R3 ints in memory in symmetry-blocked form, NReq=864804.
 FoFCou: FMM=F IPFlag=           0 FMFlag=           0 FMFlg1=           0
         NFxFlg=           0 DoJE=F BraDBF=F KetDBF=F FulRan=T
         wScrn=  0.000000 ICntrl=       600 IOpCl=  0 I1Cent=           0 NGrid=           0
         NMat0=    1 NMatS0=    300 NMatT0=    0 NMatD0=    1 NMtDS0=    0 NMtDT0=    0
 Petite list used in FoFCou.
 CIDS: In Core Option IDoMem=           1.
 CCSD(T)
 =======
 Iterations=  50 Convergence= 0.100D-06
 Produce multiple copies of IABC intergrals
 Iteration Nr.   1
 **********************
 DD1Dir will call FoFMem   1 times, MxPair=        72
 NAB=    36 NAA=     0 NBB=     0.
 MP4(R+Q)= -0.74951424D-03
 Maximum subspace dimension=  5
 A-vector RMS=  5.7729201D-03 Max=  1.3196848D-02 conv= 1.00D-05.
 RLE energy=       -0.2343726974
 E3=       -0.53869925D-02        EUMP3=      -0.33887992569D+02
 E4(DQ)=   -0.59027848D-02        UMP4(DQ)=   -0.33893895354D+02
 E4(SDQ)=  -0.79398161D-02        UMP4(SDQ)=  -0.33895932385D+02
 VARIATIONAL ENERGIES WITH THE FIRST-ORDER WAVEFUNCTION:
 DE(Corr)= -0.23421868     E(Corr)=     -33.888466273    
 NORM(A)=   0.10416801D+01
 Iteration Nr.   2
 **********************
 DD1Dir will call FoFMem   1 times, MxPair=        72
 NAB=    36 NAA=     0 NBB=     0.
 A-vector RMS=  9.7963487D-04 Max=  2.6286890D-03 conv= 1.00D-05.
 RLE energy=       -0.2421314221
 DE(Corr)= -0.24019757     E(CORR)=     -33.894445163     Delta=-5.98D-03
 NORM(A)=   0.10454584D+01
 Iteration Nr.   3
 **********************
 DD1Dir will call FoFMem   1 times, MxPair=        72
 NAB=    36 NAA=     0 NBB=     0.
 A-vector RMS=  3.8172362D-04 Max=  1.0182052D-03 conv= 1.00D-05.
 RLE energy=       -0.2426818836
 DE(Corr)= -0.24223442     E(CORR)=     -33.896482005     Delta=-2.04D-03
 NORM(A)=   0.10460166D+01
 Iteration Nr.   4
 **********************
 DD1Dir will call FoFMem   1 times, MxPair=        72
 NAB=    36 NAA=     0 NBB=     0.
 A-vector RMS=  9.3521993D-05 Max=  2.5869332D-04 conv= 1.00D-05.
 RLE energy=       -0.2427287979
 DE(Corr)= -0.24269306     E(CORR)=     -33.896940653     Delta=-4.59D-04
 NORM(A)=   0.10460892D+01
 Iteration Nr.   5
 **********************
 DD1Dir will call FoFMem   1 times, MxPair=        72
 NAB=    36 NAA=     0 NBB=     0.
 A-vector RMS=  4.1079387D-05 Max=  1.3140405D-04 conv= 1.00D-05.
 RLE energy=       -0.2427273963
 DE(Corr)= -0.24272514     E(CORR)=     -33.896972726     Delta=-3.21D-05
 NORM(A)=   0.10460992D+01
 Iteration Nr.   6
 **********************
 DD1Dir will call FoFMem   1 times, MxPair=        72
 NAB=    36 NAA=     0 NBB=     0.
 A-vector RMS=  1.2938764D-05 Max=  4.6873168D-05 conv= 1.00D-05.
 RLE energy=       -0.2427256225
 DE(Corr)= -0.24272741     E(CORR)=     -33.896974995     Delta=-2.27D-06
 NORM(A)=   0.10461022D+01
 Iteration Nr.   7
 **********************
 DD1Dir will call FoFMem   1 times, MxPair=        72
 NAB=    36 NAA=     0 NBB=     0.
 A-vector RMS=  4.1321634D-06 Max=  1.0800576D-05 conv= 1.00D-05.
 RLE energy=       -0.2427268992
 DE(Corr)= -0.24272685     E(CORR)=     -33.896974439     Delta= 5.56D-07
 NORM(A)=   0.10461036D+01
 Iteration Nr.   8
 **********************
 DD1Dir will call FoFMem   1 times, MxPair=        72
 NAB=    36 NAA=     0 NBB=     0.
 A-vector RMS=  1.2821802D-06 Max=  4.3785020D-06 conv= 1.00D-05.
 RLE energy=       -0.2427265674
 DE(Corr)= -0.24272670     E(CORR)=     -33.896974287     Delta= 1.52D-07
 NORM(A)=   0.10461039D+01
 Iteration Nr.   9
 **********************
 DD1Dir will call FoFMem   1 times, MxPair=        72
 NAB=    36 NAA=     0 NBB=     0.
 A-vector RMS=  2.7205099D-07 Max=  1.0326426D-06 conv= 1.00D-05.
 RLE energy=       -0.2427267457
 DE(Corr)= -0.24272676     E(CORR)=     -33.896974351     Delta=-6.38D-08
 NORM(A)=   0.10461041D+01
 CI/CC converged in    9 iterations to DelEn=-6.38D-08 Conv= 1.00D-07 ErrA1= 2.72D-07 Conv= 1.00D-05
 Wavefunction amplitudes converged. E(Corr)=     -33.896974351    
 Largest amplitude= 5.84D-02
 IPart=  4 IA=    2   12.50% done.
 IPart=  3 IA=    3   24.17% done.
 IPart=  2 IA=    4   35.00% done.
 IPart=  2 IA=    5   45.00% done.
 IPart=  3 IA=    6   54.17% done.
 IPart=  1 IA=    7   62.50% done.
 IPart=  4 IA=    8   70.00% done.
 IPart=  4 IA=   10   82.50% done.
 IPart=  1 IA=   12   91.67% done.
 Time for triples=        0.24 seconds.
 T4(CCSD)= -0.30960781D-02
 T5(CCSD)=  0.52858445D-03
 CCSD(T)= -0.33899541844D+02
 Discarding MO integrals.
 Leave Link  913 at Sun Dec 10 06:28:06 2023, MaxMem=   536870912 cpu:               0.9 elap:               0.2
 (Enter /usr/site/hpc/x86_64/glibc-2.17/broadwell/gaussian/g16_a.03/pgi-16.5/g16/l601.exe)
 Copying SCF densities to generalized density rwf, IOpCl= 0 IROHF=0.

 **********************************************************************

            Population analysis using the SCF density.

 **********************************************************************

 Orbital symmetries:
       Occupied  (A') (A') (A') (A') (A') (A') (A") (A")
       Virtual   (A') (A') (A') (A') (A") (A") (A') (A') (A') (A')
                 (A') (A') (A') (A') (A') (A')
 The electronic state is 1-A'.
 Alpha  occ. eigenvalues --   -1.36718  -1.34249  -0.72374  -0.69854  -0.56600
 Alpha  occ. eigenvalues --   -0.54036  -0.51322  -0.48849
 Alpha virt. eigenvalues --    0.18679   0.22058   0.29377   0.32159   0.79251
 Alpha virt. eigenvalues --    0.81652   0.82491   0.84713   0.85236   0.87975
 Alpha virt. eigenvalues --    1.16255   1.19015   1.20662   1.25503   2.56121
 Alpha virt. eigenvalues --    2.60605
          Condensed to atoms (all electrons):
               1          2          3          4          5          6
     1  O    6.222964   0.266674   0.261321  -0.000077   0.000001   0.000004
     2  H    0.266674   0.369641  -0.023106   0.000692  -0.000007  -0.000027
     3  H    0.261321  -0.023106   0.397681  -0.000000   0.000000   0.000000
     4  O   -0.000077   0.000692  -0.000000   6.219032   0.267135   0.263002
     5  H    0.000001  -0.000007   0.000000   0.267135   0.377104  -0.023227
     6  H    0.000004  -0.000027   0.000000   0.263002  -0.023227   0.388808
 Mulliken charges:
               1
     1  O   -0.750886
     2  H    0.386134
     3  H    0.364104
     4  O   -0.749783
     5  H    0.378993
     6  H    0.371439
 Sum of Mulliken charges =  -0.00000
 Mulliken charges with hydrogens summed into heavy atoms:
               1
     1  O   -0.000649
     4  O    0.000649
 Electronic spatial extent (au):  <R**2>=            328.9432
 Charge=             -0.0000 electrons
 Dipole moment (field-independent basis, Debye):
    X=             -3.2060    Y=             -4.0654    Z=              0.0000  Tot=              5.1775
 Quadrupole moment (field-independent basis, Debye-Ang):
   XX=            -10.0285   YY=             -7.0292   ZZ=            -14.9932
   XY=             -4.4824   XZ=             -0.0000   YZ=              0.0000
 Traceless Quadrupole moment (field-independent basis, Debye-Ang):
   XX=              0.6552   YY=              3.6544   ZZ=             -4.3096
   XY=             -4.4824   XZ=             -0.0000   YZ=              0.0000
 Octapole moment (field-independent basis, Debye-Ang**2):
  XXX=             -3.5147  YYY=            -57.8011  ZZZ=              0.0000  XYY=            -17.0622
  XXY=             -3.2242  XXZ=              0.0000  XZZ=             -0.6009  YZZ=             -0.7868
  YYZ=              0.0000  XYZ=              0.0000
 Hexadecapole moment (field-independent basis, Debye-Ang**3):
 XXXX=            -12.2661 YYYY=           -305.6876 ZZZZ=            -12.2295 XXXY=              0.0334
 XXXZ=             -0.0000 YYYX=            -48.3684 YYYZ=              0.0000 ZZZX=              0.0000
 ZZZY=             -0.0000 XXYY=            -50.3013 XXZZ=             -4.5589 YYZZ=            -80.2207
 XXYZ=              0.0000 YYXZ=             -0.0000 ZZXY=              0.3799
 N-N= 2.111698265341D+01 E-N=-1.238385337690D+02  KE= 2.677610223918D+01
 Symmetry A'   KE= 1.789724344066D+01
 Symmetry A"   KE= 8.878858798528D+00
 Leave Link  601 at Sun Dec 10 06:28:06 2023, MaxMem=   536870912 cpu:               0.1 elap:               0.0
 (Enter /usr/site/hpc/x86_64/glibc-2.17/broadwell/gaussian/g16_a.03/pgi-16.5/g16/l9999.exe)
 1\1\GINC-N033\SP\RCCSD(T)-FC\CEP-31G\H4O2\ROOT\10-Dec-2023\0\\#p CCSD(
 T)/CEP-31G\\H2O_H2O_3058\\0,1\O,0,0.,-0.009833,0.\H,0,-0.799571,-0.580
 965,0.\H,0,0.799571,-0.580965,0.\O,0,-3.645627,-2.609067,0.\H,0,-4.623
 642,-2.703896,0.\H,0,-3.238744,-3.503467,0.\\Version=ES64L-G16RevA.03\
 State=1-A'\HF=-33.6542476\MP2=-33.8826056\MP3=-33.8879926\MP4D=-33.893
 1458\MP4DQ=-33.8938954\MP4SDQ=-33.8959324\CCSD=-33.8969744\CCSD(T)=-33
 .8995418\RMSD=4.784e-10\PG=CS [SG(H4O2)]\\@


 YOU KNOW YOU'VE SPOKEN TOO LONG WHEN THE AUDIENCE STOPS LOOKING AT
 THEIR WATCHES AND STARTS SHAKING THEM.
 Job cpu time:       0 days  0 hours  0 minutes  3.3 seconds.
 Elapsed time:       0 days  0 hours  0 minutes  1.0 seconds.
 File lengths (MBytes):  RWF=     72 Int=      0 D2E=      0 Chk=      8 Scr=      8
 Normal termination of Gaussian 16 at Sun Dec 10 06:28:06 2023.
