 Entering Gaussian System, Link 0=g16
 Input=H2O_H2O_3981.com
 Output=H2O_H2O_3981.log
 Initial command:
 /usr/site/hpc/x86_64/glibc-2.17/broadwell/gaussian/g16_a.03/pgi-16.5/g16/l1.exe "/gpfs/gpfs1/scratch/c7441090/OH Coord/Gau-1254101.inp" -scrdir="/gpfs/gpfs1/scratch/c7441090/OH Coord/"
 Entering Link 1 = /usr/site/hpc/x86_64/glibc-2.17/broadwell/gaussian/g16_a.03/pgi-16.5/g16/l1.exe PID=   1254102.
  
 Copyright (c) 1988,1990,1992,1993,1995,1998,2003,2009,2016,
            Gaussian, Inc.  All Rights Reserved.
  
 This is part of the Gaussian(R) 16 program.  It is based on
 the Gaussian(R) 09 system (copyright 2009, Gaussian, Inc.),
 the Gaussian(R) 03 system (copyright 2003, Gaussian, Inc.),
 the Gaussian(R) 98 system (copyright 1998, Gaussian, Inc.),
 the Gaussian(R) 94 system (copyright 1995, Gaussian, Inc.),
 the Gaussian 92(TM) system (copyright 1992, Gaussian, Inc.),
 the Gaussian 90(TM) system (copyright 1990, Gaussian, Inc.),
 the Gaussian 88(TM) system (copyright 1988, Gaussian, Inc.),
 the Gaussian 86(TM) system (copyright 1986, Carnegie Mellon
 University), and the Gaussian 82(TM) system (copyright 1983,
 Carnegie Mellon University). Gaussian is a federally registered
 trademark of Gaussian, Inc.
  
 This software contains proprietary and confidential information,
 including trade secrets, belonging to Gaussian, Inc.
  
 This software is provided under written license and may be
 used, copied, transmitted, or stored only in accord with that
 written license.
  
 The following legend is applicable only to US Government
 contracts under FAR:
  
                    RESTRICTED RIGHTS LEGEND
  
 Use, reproduction and disclosure by the US Government is
 subject to restrictions as set forth in subparagraphs (a)
 and (c) of the Commercial Computer Software - Restricted
 Rights clause in FAR 52.227-19.
  
 Gaussian, Inc.
 340 Quinnipiac St., Bldg. 40, Wallingford CT 06492
  
  
 ---------------------------------------------------------------
 Warning -- This program may not be used in any manner that
 competes with the business of Gaussian, Inc. or will provide
 assistance to any competitor of Gaussian, Inc.  The licensee
 of this program is prohibited from giving any competitor of
 Gaussian, Inc. access to this program.  By using this program,
 the user acknowledges that Gaussian, Inc. is engaged in the
 business of creating and licensing software in the field of
 computational chemistry and represents and warrants to the
 licensee that it is not a competitor of Gaussian, Inc. and that
 it will not use this program in any manner prohibited above.
 ---------------------------------------------------------------
  

 Cite this work as:
 Gaussian 16, Revision A.03,
 M. J. Frisch, G. W. Trucks, H. B. Schlegel, G. E. Scuseria, 
 M. A. Robb, J. R. Cheeseman, G. Scalmani, V. Barone, 
 G. A. Petersson, H. Nakatsuji, X. Li, M. Caricato, A. V. Marenich, 
 J. Bloino, B. G. Janesko, R. Gomperts, B. Mennucci, H. P. Hratchian, 
 J. V. Ortiz, A. F. Izmaylov, J. L. Sonnenberg, D. Williams-Young, 
 F. Ding, F. Lipparini, F. Egidi, J. Goings, B. Peng, A. Petrone, 
 T. Henderson, D. Ranasinghe, V. G. Zakrzewski, J. Gao, N. Rega, 
 G. Zheng, W. Liang, M. Hada, M. Ehara, K. Toyota, R. Fukuda, 
 J. Hasegawa, M. Ishida, T. Nakajima, Y. Honda, O. Kitao, H. Nakai, 
 T. Vreven, K. Throssell, J. A. Montgomery, Jr., J. E. Peralta, 
 F. Ogliaro, M. J. Bearpark, J. J. Heyd, E. N. Brothers, K. N. Kudin, 
 V. N. Staroverov, T. A. Keith, R. Kobayashi, J. Normand, 
 K. Raghavachari, A. P. Rendell, J. C. Burant, S. S. Iyengar, 
 J. Tomasi, M. Cossi, J. M. Millam, M. Klene, C. Adamo, R. Cammi, 
 J. W. Ochterski, R. L. Martin, K. Morokuma, O. Farkas, 
 J. B. Foresman, and D. J. Fox, Gaussian, Inc., Wallingford CT, 2016.
 
 ******************************************
 Gaussian 16:  ES64L-G16RevA.03 25-Dec-2016
                10-Dec-2023 
 ******************************************
 %NProcShared=4
 Will use up to    4 processors via shared memory.
 %Mem=4GB
 %Chk=H2O_H2O_3981.chk
 ------------------
 #p CCSD(T)/CEP-31G
 ------------------
 1/38=1,172=1/1;
 2/12=2,17=6,18=5,40=1/2;
 3/5=9,6=1,11=9,25=1,30=1/1,2,3;
 4//1;
 5/5=2,38=5/2;
 8/6=4,9=120000,10=1/1,4;
 9/5=7,14=2/13;
 6/7=2,8=2,9=2,10=2/1;
 99/5=1,9=1/99;
 Leave Link    1 at Sun Dec 10 06:44:38 2023, MaxMem=   536870912 cpu:               0.2 elap:               0.1
 (Enter /usr/site/hpc/x86_64/glibc-2.17/broadwell/gaussian/g16_a.03/pgi-16.5/g16/l101.exe)
 ------------
 H2O_H2O_3981
 ------------
 Symbolic Z-matrix:
 Charge =  0 Multiplicity = 1
 O                     0.       -0.00983   0. 
 H                    -0.79957  -0.58097   0. 
 H                     0.79957  -0.58097   0. 
 O                    -4.24494  -3.03855   0. 
 H                    -5.20221  -3.26022   0. 
 H                    -3.7248   -3.87219   0. 
 
 ITRead=  0  0  0  0  0  0
 MicOpt= -1 -1 -1 -1 -1 -1
 NAtoms=      6 NQM=        6 NQMF=       0 NMMI=      0 NMMIF=      0
                NMic=       0 NMicF=      0.
                    Isotopes and Nuclear Properties:
 (Nuclear quadrupole moments (NQMom) in fm**2, nuclear magnetic moments (NMagM)
  in nuclear magnetons)

  Atom         1           2           3           4           5           6
 IAtWgt=          16           1           1          16           1           1
 AtmWgt=  15.9949146   1.0078250   1.0078250  15.9949146   1.0078250   1.0078250
 NucSpn=           0           1           1           0           1           1
 AtZEff=  -0.0000000  -0.0000000  -0.0000000  -0.0000000  -0.0000000  -0.0000000
 NQMom=    0.0000000   0.0000000   0.0000000   0.0000000   0.0000000   0.0000000
 NMagM=    0.0000000   2.7928460   2.7928460   0.0000000   2.7928460   2.7928460
 AtZNuc=   8.0000000   1.0000000   1.0000000   8.0000000   1.0000000   1.0000000
 Leave Link  101 at Sun Dec 10 06:44:38 2023, MaxMem=   536870912 cpu:               0.3 elap:               0.1
 (Enter /usr/site/hpc/x86_64/glibc-2.17/broadwell/gaussian/g16_a.03/pgi-16.5/g16/l202.exe)
                          Input orientation:                          
 ---------------------------------------------------------------------
 Center     Atomic      Atomic             Coordinates (Angstroms)
 Number     Number       Type             X           Y           Z
 ---------------------------------------------------------------------
      1          8           0        0.000000   -0.009833    0.000000
      2          1           0       -0.799571   -0.580965    0.000000
      3          1           0        0.799571   -0.580965    0.000000
      4          8           0       -4.244943   -3.038549    0.000000
      5          1           0       -5.202213   -3.260224    0.000000
      6          1           0       -3.724798   -3.872189    0.000000
 ---------------------------------------------------------------------
                    Distance matrix (angstroms):
                    1          2          3          4          5
     1  O    0.000000
     2  H    0.982601   0.000000
     3  H    0.982601   1.599142   0.000000
     4  O    5.214658   4.232057   5.611314   0.000000
     5  H    6.134172   5.153803   6.572659   0.982601   0.000000
     6  H    5.365810   4.403307   5.594825   0.982602   1.599142
                    6
     6  H    0.000000
 Stoichiometry    H4O2
 Framework group  CS[SG(H4O2)]
 Deg. of freedom     9
 Full point group                 CS      NOp   2
 Largest Abelian subgroup         CS      NOp   2
 Largest concise Abelian subgroup C1      NOp   1
                         Standard orientation:                         
 ---------------------------------------------------------------------
 Center     Atomic      Atomic             Coordinates (Angstroms)
 Number     Number       Type             X           Y           Z
 ---------------------------------------------------------------------
      1          8           0        0.076752    2.688940   -0.000000
      2          1           0        0.076224    1.706338   -0.000000
      3          1           0       -0.852570    3.008105   -0.000000
      4          8           0        0.076752   -2.525719    0.000000
      5          1           0        0.452289   -3.433726    0.000000
      6          1           0       -0.903970   -2.586485    0.000000
 ---------------------------------------------------------------------
 Rotational constants (GHZ):         265.1202796           2.0351373           2.0196340
 Leave Link  202 at Sun Dec 10 06:44:38 2023, MaxMem=   536870912 cpu:               0.1 elap:               0.0
 (Enter /usr/site/hpc/x86_64/glibc-2.17/broadwell/gaussian/g16_a.03/pgi-16.5/g16/l301.exe)
 Standard basis: CEP-31G (6D, 10F)
 Ernie: Thresh=  0.10000D-02 Tol=  0.10000D-05 Strict=F.
 There are    20 symmetry adapted cartesian basis functions of A'  symmetry.
 There are     4 symmetry adapted cartesian basis functions of A"  symmetry.
 There are    20 symmetry adapted basis functions of A'  symmetry.
 There are     4 symmetry adapted basis functions of A"  symmetry.
    24 basis functions,    48 primitive gaussians,    24 cartesian basis functions
     8 alpha electrons        8 beta electrons
       nuclear repulsion energy        20.0635398808 Hartrees.
 IExCor=    0 DFT=F Ex=HF Corr=None ExCW=0 ScaHFX=  1.000000
 ScaDFX=  1.000000  1.000000  1.000000  1.000000 ScalE2=  1.000000  1.000000
 IRadAn=      5 IRanWt=     -1 IRanGd=            0 ICorTp=0 IEmpDi=  4
 NAtoms=    6 NActive=    6 NUniq=    6 SFac= 1.00D+00 NAtFMM=   60 NAOKFM=F Big=F
 Integral buffers will be    131072 words long.
 Raffenetti 1 integral format.
 Two-electron integral symmetry is turned on.
 Leave Link  301 at Sun Dec 10 06:44:38 2023, MaxMem=   536870912 cpu:               0.2 elap:               0.1
 (Enter /usr/site/hpc/x86_64/glibc-2.17/broadwell/gaussian/g16_a.03/pgi-16.5/g16/l302.exe)
 NPDir=0 NMtPBC=     1 NCelOv=     1 NCel=       1 NClECP=     1 NCelD=      1
         NCelK=      1 NCelE2=     1 NClLst=     1 CellRange=     0.0.
 One-electron integrals computed using PRISM.
 One-electron integral symmetry used in STVInt
   2 Symmetry operations used in ECPInt.
 ECPInt:  NShTT=      78 NPrTT=     318 LenC2=      79 LenP2D=     257.
 LDataN:  DoStor=T MaxTD1= 2 Len=   12
 NBasis=    24 RedAO= T EigKep=  3.83D-02  NBF=    20     4
 NBsUse=    24 1.00D-06 EigRej= -1.00D+00 NBFU=    20     4
 Leave Link  302 at Sun Dec 10 06:44:38 2023, MaxMem=   536870912 cpu:               0.3 elap:               0.1
 (Enter /usr/site/hpc/x86_64/glibc-2.17/broadwell/gaussian/g16_a.03/pgi-16.5/g16/l303.exe)
 DipDrv:  MaxL=1.
 Leave Link  303 at Sun Dec 10 06:44:38 2023, MaxMem=   536870912 cpu:               0.1 elap:               0.0
 (Enter /usr/site/hpc/x86_64/glibc-2.17/broadwell/gaussian/g16_a.03/pgi-16.5/g16/l401.exe)
 ExpMin= 1.78D-01 ExpMax= 1.92D+01 ExpMxC= 1.92D+01 IAcc=3 IRadAn=         5 AccDes= 0.00D+00
 Harris functional with IExCor=  205 and IRadAn=       5 diagonalized for initial guess.
 HarFok:  IExCor=  205 AccDes= 0.00D+00 IRadAn=         5 IDoV= 1 UseB2=F ITyADJ=14
 ICtDFT=  3500011 ScaDFX=  1.000000  1.000000  1.000000  1.000000
 FoFCou: FMM=F IPFlag=           0 FMFlag=      100000 FMFlg1=           0
         NFxFlg=           0 DoJE=T BraDBF=F KetDBF=T FulRan=T
         wScrn=  0.000000 ICntrl=       500 IOpCl=  0 I1Cent=   200000004 NGrid=           0
         NMat0=    1 NMatS0=      1 NMatT0=    0 NMatD0=    1 NMtDS0=    0 NMtDT0=    0
 Petite list used in FoFCou.
 Harris En= -34.4763590586022    
 JPrj=0 DoOrth=F DoCkMO=F.
 Initial guess orbital symmetries:
       Occupied  (A') (A') (A') (A') (A') (A') (A") (A")
       Virtual   (A') (A') (A') (A') (A") (A") (A') (A') (A') (A')
                 (A') (A') (A') (A') (A') (A')
 The electronic state of the initial guess is 1-A'.
 Leave Link  401 at Sun Dec 10 06:44:38 2023, MaxMem=   536870912 cpu:               0.4 elap:               0.1
 (Enter /usr/site/hpc/x86_64/glibc-2.17/broadwell/gaussian/g16_a.03/pgi-16.5/g16/l502.exe)
 Keep R1 ints in memory in symmetry-blocked form, NReq=852048.
 FoFCou: FMM=F IPFlag=           0 FMFlag=           0 FMFlg1=           0
         NFxFlg=           0 DoJE=F BraDBF=F KetDBF=F FulRan=T
         wScrn=  0.000000 ICntrl=       600 IOpCl=  0 I1Cent=           0 NGrid=           0
         NMat0=    1 NMatS0=    300 NMatT0=    0 NMatD0=    1 NMtDS0=    0 NMtDT0=    0
 Petite list used in FoFCou.
 Closed shell SCF:
 Using DIIS extrapolation, IDIIS=  1040.
 NGot=   536870912 LenX=   536840576 LenY=   536839559
 Requested convergence on RMS density matrix=1.00D-08 within 128 cycles.
 Requested convergence on MAX density matrix=1.00D-06.
 Requested convergence on             energy=1.00D-06.
 No special actions if energy rises.

 Cycle   1  Pass 1  IDiag  1:
 E= -33.5592701911407    
 DIIS: error= 6.85D-02 at cycle   1 NSaved=   1.
 NSaved= 1 IEnMin= 1 EnMin= -33.5592701911407     IErMin= 1 ErrMin= 6.85D-02
 ErrMax= 6.85D-02  0.00D+00 EMaxC= 1.00D-01 BMatC= 1.02D-01 BMatP= 1.02D-01
 IDIUse=3 WtCom= 3.15D-01 WtEn= 6.85D-01
 Coeff-Com:  0.100D+01
 Coeff-En:   0.100D+01
 Coeff:      0.100D+01
 Gap=     0.602 Goal=   None    Shift=    0.000
 GapD=    0.602 DampG=2.000 DampE=0.500 DampFc=1.0000 IDamp=-1.
 RMSDP=1.48D-02 MaxDP=1.17D-01              OVMax= 9.84D-02

 Cycle   2  Pass 1  IDiag  1:
 E= -33.6216931408787     Delta-E=       -0.062422949738 Rises=F Damp=F
 DIIS: error= 3.72D-02 at cycle   2 NSaved=   2.
 NSaved= 2 IEnMin= 2 EnMin= -33.6216931408787     IErMin= 2 ErrMin= 3.72D-02
 ErrMax= 3.72D-02  0.00D+00 EMaxC= 1.00D-01 BMatC= 3.80D-02 BMatP= 1.02D-01
 IDIUse=3 WtCom= 6.28D-01 WtEn= 3.72D-01
 Coeff-Com:  0.377D+00 0.623D+00
 Coeff-En:   0.109D+00 0.891D+00
 Coeff:      0.277D+00 0.723D+00
 Gap=     0.692 Goal=   None    Shift=    0.000
 RMSDP=6.37D-03 MaxDP=5.40D-02 DE=-6.24D-02 OVMax= 3.56D-02

 Cycle   3  Pass 1  IDiag  1:
 E= -33.6520432013027     Delta-E=       -0.030350060424 Rises=F Damp=F
 DIIS: error= 7.10D-03 at cycle   3 NSaved=   3.
 NSaved= 3 IEnMin= 3 EnMin= -33.6520432013027     IErMin= 3 ErrMin= 7.10D-03
 ErrMax= 7.10D-03  0.00D+00 EMaxC= 1.00D-01 BMatC= 8.85D-04 BMatP= 3.80D-02
 IDIUse=3 WtCom= 9.29D-01 WtEn= 7.10D-02
 Coeff-Com: -0.114D+00-0.168D-01 0.113D+01
 Coeff-En:   0.000D+00 0.000D+00 0.100D+01
 Coeff:     -0.106D+00-0.156D-01 0.112D+01
 Gap=     0.684 Goal=   None    Shift=    0.000
 RMSDP=1.06D-03 MaxDP=8.84D-03 DE=-3.04D-02 OVMax= 7.98D-03

 Cycle   4  Pass 1  IDiag  1:
 E= -33.6529243522448     Delta-E=       -0.000881150942 Rises=F Damp=F
 DIIS: error= 7.43D-04 at cycle   4 NSaved=   4.
 NSaved= 4 IEnMin= 4 EnMin= -33.6529243522448     IErMin= 4 ErrMin= 7.43D-04
 ErrMax= 7.43D-04  0.00D+00 EMaxC= 1.00D-01 BMatC= 5.73D-06 BMatP= 8.85D-04
 IDIUse=3 WtCom= 9.93D-01 WtEn= 7.43D-03
 Coeff-Com:  0.438D-01-0.173D-01-0.529D+00 0.150D+01
 Coeff-En:   0.000D+00 0.000D+00 0.000D+00 0.100D+01
 Coeff:      0.435D-01-0.172D-01-0.525D+00 0.150D+01
 Gap=     0.686 Goal=   None    Shift=    0.000
 RMSDP=2.34D-04 MaxDP=2.00D-03 DE=-8.81D-04 OVMax= 9.50D-04

 Cycle   5  Pass 1  IDiag  1:
 E= -33.6529371669009     Delta-E=       -0.000012814656 Rises=F Damp=F
 DIIS: error= 4.89D-05 at cycle   5 NSaved=   5.
 NSaved= 5 IEnMin= 5 EnMin= -33.6529371669009     IErMin= 5 ErrMin= 4.89D-05
 ErrMax= 4.89D-05  0.00D+00 EMaxC= 1.00D-01 BMatC= 3.65D-08 BMatP= 5.73D-06
 IDIUse=1 WtCom= 1.00D+00 WtEn= 0.00D+00
 Coeff-Com: -0.708D-02 0.314D-02 0.866D-01-0.293D+00 0.121D+01
 Coeff:     -0.708D-02 0.314D-02 0.866D-01-0.293D+00 0.121D+01
 Gap=     0.686 Goal=   None    Shift=    0.000
 RMSDP=1.54D-05 MaxDP=1.45D-04 DE=-1.28D-05 OVMax= 9.87D-05

 Cycle   6  Pass 1  IDiag  1:
 E= -33.6529372568599     Delta-E=       -0.000000089959 Rises=F Damp=F
 DIIS: error= 1.06D-05 at cycle   6 NSaved=   6.
 NSaved= 6 IEnMin= 6 EnMin= -33.6529372568599     IErMin= 6 ErrMin= 1.06D-05
 ErrMax= 1.06D-05  0.00D+00 EMaxC= 1.00D-01 BMatC= 2.03D-09 BMatP= 3.65D-08
 IDIUse=1 WtCom= 1.00D+00 WtEn= 0.00D+00
 Coeff-Com:  0.125D-02-0.443D-03-0.149D-01 0.562D-01-0.399D+00 0.136D+01
 Coeff:      0.125D-02-0.443D-03-0.149D-01 0.562D-01-0.399D+00 0.136D+01
 Gap=     0.686 Goal=   None    Shift=    0.000
 RMSDP=3.80D-06 MaxDP=2.48D-05 DE=-9.00D-08 OVMax= 3.37D-05

 Cycle   7  Pass 1  IDiag  1:
 E= -33.6529372624512     Delta-E=       -0.000000005591 Rises=F Damp=F
 DIIS: error= 2.20D-06 at cycle   7 NSaved=   7.
 NSaved= 7 IEnMin= 7 EnMin= -33.6529372624512     IErMin= 7 ErrMin= 2.20D-06
 ErrMax= 2.20D-06  0.00D+00 EMaxC= 1.00D-01 BMatC= 1.16D-10 BMatP= 2.03D-09
 IDIUse=1 WtCom= 1.00D+00 WtEn= 0.00D+00
 Coeff-Com:  0.289D-03-0.157D-03-0.361D-02 0.111D-01-0.155D-01-0.167D+00
 Coeff-Com:  0.118D+01
 Coeff:      0.289D-03-0.157D-03-0.361D-02 0.111D-01-0.155D-01-0.167D+00
 Coeff:      0.118D+01
 Gap=     0.686 Goal=   None    Shift=    0.000
 RMSDP=9.50D-07 MaxDP=5.70D-06 DE=-5.59D-09 OVMax= 8.43D-06

 Cycle   8  Pass 1  IDiag  1:
 E= -33.6529372627240     Delta-E=       -0.000000000273 Rises=F Damp=F
 DIIS: error= 6.42D-07 at cycle   8 NSaved=   8.
 NSaved= 8 IEnMin= 8 EnMin= -33.6529372627240     IErMin= 8 ErrMin= 6.42D-07
 ErrMax= 6.42D-07  0.00D+00 EMaxC= 1.00D-01 BMatC= 1.81D-11 BMatP= 1.16D-10
 IDIUse=1 WtCom= 1.00D+00 WtEn= 0.00D+00
 Coeff-Com: -0.787D-07-0.228D-04-0.587D-04-0.742D-03 0.292D-01-0.172D+00
 Coeff-Com:  0.341D+00 0.802D+00
 Coeff:     -0.787D-07-0.228D-04-0.587D-04-0.742D-03 0.292D-01-0.172D+00
 Coeff:      0.341D+00 0.802D+00
 Gap=     0.686 Goal=   None    Shift=    0.000
 RMSDP=2.67D-07 MaxDP=1.44D-06 DE=-2.73D-10 OVMax= 2.21D-06

 Cycle   9  Pass 1  IDiag  1:
 E= -33.6529372627493     Delta-E=       -0.000000000025 Rises=F Damp=F
 DIIS: error= 1.48D-07 at cycle   9 NSaved=   9.
 NSaved= 9 IEnMin= 9 EnMin= -33.6529372627493     IErMin= 9 ErrMin= 1.48D-07
 ErrMax= 1.48D-07  0.00D+00 EMaxC= 1.00D-01 BMatC= 6.62D-13 BMatP= 1.81D-11
 IDIUse=1 WtCom= 1.00D+00 WtEn= 0.00D+00
 Coeff-Com:  0.370D-05 0.663D-05-0.144D-04 0.388D-03-0.119D-01 0.727D-01
 Coeff-Com: -0.187D+00-0.266D+00 0.139D+01
 Coeff:      0.370D-05 0.663D-05-0.144D-04 0.388D-03-0.119D-01 0.727D-01
 Coeff:     -0.187D+00-0.266D+00 0.139D+01
 Gap=     0.686 Goal=   None    Shift=    0.000
 RMSDP=1.18D-07 MaxDP=4.72D-07 DE=-2.53D-11 OVMax= 8.06D-07

 Cycle  10  Pass 1  IDiag  1:
 E= -33.6529372627510     Delta-E=       -0.000000000002 Rises=F Damp=F
 DIIS: error= 8.66D-09 at cycle  10 NSaved=  10.
 NSaved=10 IEnMin=10 EnMin= -33.6529372627510     IErMin=10 ErrMin= 8.66D-09
 ErrMax= 8.66D-09  0.00D+00 EMaxC= 1.00D-01 BMatC= 2.95D-15 BMatP= 6.62D-13
 IDIUse=1 WtCom= 1.00D+00 WtEn= 0.00D+00
 Coeff-Com:  0.111D-06-0.176D-05-0.841D-05-0.480D-04 0.252D-02-0.163D-01
 Coeff-Com:  0.429D-01 0.563D-01-0.362D+00 0.128D+01
 Coeff:      0.111D-06-0.176D-05-0.841D-05-0.480D-04 0.252D-02-0.163D-01
 Coeff:      0.429D-01 0.563D-01-0.362D+00 0.128D+01
 Gap=     0.686 Goal=   None    Shift=    0.000
 RMSDP=1.19D-08 MaxDP=5.73D-08 DE=-1.71D-12 OVMax= 7.01D-08

 Cycle  11  Pass 1  IDiag  1:
 E= -33.6529372627510     Delta-E=       -0.000000000000 Rises=F Damp=F
 DIIS: error= 4.31D-10 at cycle  11 NSaved=  11.
 NSaved=11 IEnMin=11 EnMin= -33.6529372627510     IErMin=11 ErrMin= 4.31D-10
 ErrMax= 4.31D-10  0.00D+00 EMaxC= 1.00D-01 BMatC= 5.37D-18 BMatP= 2.95D-15
 IDIUse=1 WtCom= 1.00D+00 WtEn= 0.00D+00
 Coeff-Com: -0.746D-07 0.295D-06 0.199D-05 0.562D-05-0.401D-03 0.263D-02
 Coeff-Com: -0.701D-02-0.907D-02 0.599D-01-0.235D+00 0.119D+01
 Coeff:     -0.746D-07 0.295D-06 0.199D-05 0.562D-05-0.401D-03 0.263D-02
 Coeff:     -0.701D-02-0.907D-02 0.599D-01-0.235D+00 0.119D+01
 Gap=     0.686 Goal=   None    Shift=    0.000
 RMSDP=3.10D-10 MaxDP=1.74D-09 DE=-4.26D-14 OVMax= 1.59D-09

 SCF Done:  E(RHF) =  -33.6529372628     A.U. after   11 cycles
            NFock= 11  Conv=0.31D-09     -V/T= 2.2569
 KE= 2.677484898944D+01 PE=-1.217173432805D+02 EE= 4.122601714747D+01
 Leave Link  502 at Sun Dec 10 06:44:38 2023, MaxMem=   536870912 cpu:               0.3 elap:               0.1
 (Enter /usr/site/hpc/x86_64/glibc-2.17/broadwell/gaussian/g16_a.03/pgi-16.5/g16/l801.exe)
 Windowed orbitals will be sorted by symmetry type.
 Range of M.O.s used for correlation:     1    24
 NBasis=    24 NAE=     8 NBE=     8 NFC=     0 NFV=     0
 NROrb=     24 NOA=     8 NOB=     8 NVA=    16 NVB=    16
 Leave Link  801 at Sun Dec 10 06:44:38 2023, MaxMem=   536870912 cpu:               0.1 elap:               0.0
 (Enter /usr/site/hpc/x86_64/glibc-2.17/broadwell/gaussian/g16_a.03/pgi-16.5/g16/l804.exe)
 Closed-shell transformation, MDV=   536870912 ITran=4 ISComp=2.
 Unit  1 TFree=       1025975 TCopy=        210600.
 Semi-Direct transformation.
 ModeAB=           4 MOrb=             8 LenV=     536742390
 LASXX=        22470 LTotXX=       22470 LenRXX=       48678
 LTotAB=       26208 MaxLAS=       56256 LenRXY=           0
 NonZer=       71148 LenScr=      524288 LnRSAI=       56256
 LnScr1=      524288 LExtra=           0 Total=      1153510
 MaxDsk=          -1 SrtSym=           T ITran=            4
 DoSDTr:  NPSUse=  4
 JobTyp=0 Pass  1:  I=   1 to   8.
 (rs|ai) integrals will be sorted in core.
 Complete sort for first half transformation.
 First half transformation complete.
 Complete sort for second half transformation.
 Second half transformation complete.
 Spin components of T(2) and E(2):
     alpha-alpha T2 =       0.9065384026D-02 E2=     -0.2589415224D-01
     alpha-beta  T2 =       0.5988413002D-01 E2=     -0.1765373687D+00
     beta-beta   T2 =       0.9065384026D-02 E2=     -0.2589415224D-01
 ANorm=    0.1038274963D+01
 E2 =    -0.2283256732D+00 EUMP2 =    -0.33881262935939D+02
 Leave Link  804 at Sun Dec 10 06:44:38 2023, MaxMem=   536870912 cpu:               0.2 elap:               0.1
 (Enter /usr/site/hpc/x86_64/glibc-2.17/broadwell/gaussian/g16_a.03/pgi-16.5/g16/l913.exe)
 CIDS:  MDV=   536870912.
 IFCWin=0 IBDFC=1 NFBD=     0     0 NFCmp=     0     0 NFFFC=     0     0
 Using DD3R+UMP44R for 1st iteration.
 Using DD4RQ for 2nd and later iterations.
 Keep R2 and R3 ints in memory in symmetry-blocked form, NReq=864656.
 FoFCou: FMM=F IPFlag=           0 FMFlag=           0 FMFlg1=           0
         NFxFlg=           0 DoJE=F BraDBF=F KetDBF=F FulRan=T
         wScrn=  0.000000 ICntrl=       600 IOpCl=  0 I1Cent=           0 NGrid=           0
         NMat0=    1 NMatS0=    300 NMatT0=    0 NMatD0=    1 NMtDS0=    0 NMtDT0=    0
 Petite list used in FoFCou.
 CIDS: In Core Option IDoMem=           1.
 CCSD(T)
 =======
 Iterations=  50 Convergence= 0.100D-06
 Produce multiple copies of IABC intergrals
 Iteration Nr.   1
 **********************
 DD1Dir will call FoFMem   1 times, MxPair=        72
 NAB=    36 NAA=     0 NBB=     0.
 MP4(R+Q)= -0.74516516D-03
 Maximum subspace dimension=  5
 A-vector RMS=  5.7532643D-03 Max=  1.3211523D-02 conv= 1.00D-05.
 RLE energy=       -0.2343758986
 E3=       -0.54237682D-02        EUMP3=      -0.33886686704D+02
 E4(DQ)=   -0.59064151D-02        UMP4(DQ)=   -0.33892593119D+02
 E4(SDQ)=  -0.79324495D-02        UMP4(SDQ)=  -0.33894619154D+02
 VARIATIONAL ENERGIES WITH THE FIRST-ORDER WAVEFUNCTION:
 DE(Corr)= -0.23422006     E(Corr)=     -33.887157319    
 NORM(A)=   0.10417024D+01
 Iteration Nr.   2
 **********************
 DD1Dir will call FoFMem   1 times, MxPair=        72
 NAB=    36 NAA=     0 NBB=     0.
 A-vector RMS=  9.8243813D-04 Max=  2.6947579D-03 conv= 1.00D-05.
 RLE energy=       -0.2421393282
 DE(Corr)= -0.24019824     E(CORR)=     -33.893135502     Delta=-5.98D-03
 NORM(A)=   0.10454883D+01
 Iteration Nr.   3
 **********************
 DD1Dir will call FoFMem   1 times, MxPair=        72
 NAB=    36 NAA=     0 NBB=     0.
 A-vector RMS=  3.8176617D-04 Max=  1.1131444D-03 conv= 1.00D-05.
 RLE energy=       -0.2426892574
 DE(Corr)= -0.24224236     E(CORR)=     -33.895179619     Delta=-2.04D-03
 NORM(A)=   0.10460479D+01
 Iteration Nr.   4
 **********************
 DD1Dir will call FoFMem   1 times, MxPair=        72
 NAB=    36 NAA=     0 NBB=     0.
 A-vector RMS=  9.2300580D-05 Max=  2.4974115D-04 conv= 1.00D-05.
 RLE energy=       -0.2427359412
 DE(Corr)= -0.24270012     E(CORR)=     -33.895637381     Delta=-4.58D-04
 NORM(A)=   0.10461216D+01
 Iteration Nr.   5
 **********************
 DD1Dir will call FoFMem   1 times, MxPair=        72
 NAB=    36 NAA=     0 NBB=     0.
 A-vector RMS=  4.1284451D-05 Max=  1.4574914D-04 conv= 1.00D-05.
 RLE energy=       -0.2427342107
 DE(Corr)= -0.24273219     E(CORR)=     -33.895669457     Delta=-3.21D-05
 NORM(A)=   0.10461320D+01
 Iteration Nr.   6
 **********************
 DD1Dir will call FoFMem   1 times, MxPair=        72
 NAB=    36 NAA=     0 NBB=     0.
 A-vector RMS=  1.1533815D-05 Max=  4.1331071D-05 conv= 1.00D-05.
 RLE energy=       -0.2427332707
 DE(Corr)= -0.24273435     E(CORR)=     -33.895671615     Delta=-2.16D-06
 NORM(A)=   0.10461355D+01
 Iteration Nr.   7
 **********************
 DD1Dir will call FoFMem   1 times, MxPair=        72
 NAB=    36 NAA=     0 NBB=     0.
 A-vector RMS=  3.4636298D-06 Max=  1.1289245D-05 conv= 1.00D-05.
 RLE energy=       -0.2427342223
 DE(Corr)= -0.24273375     E(CORR)=     -33.895671011     Delta= 6.04D-07
 NORM(A)=   0.10461368D+01
 Iteration Nr.   8
 **********************
 DD1Dir will call FoFMem   1 times, MxPair=        72
 NAB=    36 NAA=     0 NBB=     0.
 A-vector RMS=  7.7748141D-07 Max=  2.4990336D-06 conv= 1.00D-05.
 RLE energy=       -0.2427337149
 DE(Corr)= -0.24273377     E(CORR)=     -33.895671034     Delta=-2.33D-08
 NORM(A)=   0.10461369D+01
 CI/CC converged in    8 iterations to DelEn=-2.33D-08 Conv= 1.00D-07 ErrA1= 7.77D-07 Conv= 1.00D-05
 Wavefunction amplitudes converged. E(Corr)=     -33.895671034    
 Largest amplitude= 5.86D-02
 IPart=  2 IA=    2   12.50% done.
 IPart=  3 IA=    3   24.17% done.
 IPart=  4 IA=    4   35.00% done.
 IPart=  4 IA=    5   45.00% done.
 IPart=  3 IA=    6   54.17% done.
 IPart=  2 IA=    7   62.50% done.
 IPart=  1 IA=    8   70.00% done.
 IPart=  3 IA=   10   82.50% done.
 IPart=  2 IA=   12   91.67% done.
 Time for triples=        0.23 seconds.
 T4(CCSD)= -0.30859318D-02
 T5(CCSD)=  0.52582621D-03
 CCSD(T)= -0.33898231140D+02
 Discarding MO integrals.
 Leave Link  913 at Sun Dec 10 06:44:39 2023, MaxMem=   536870912 cpu:               0.8 elap:               0.2
 (Enter /usr/site/hpc/x86_64/glibc-2.17/broadwell/gaussian/g16_a.03/pgi-16.5/g16/l601.exe)
 Copying SCF densities to generalized density rwf, IOpCl= 0 IROHF=0.

 **********************************************************************

            Population analysis using the SCF density.

 **********************************************************************

 Orbital symmetries:
       Occupied  (A') (A') (A') (A') (A') (A') (A") (A")
       Virtual   (A') (A') (A') (A') (A") (A") (A') (A') (A') (A')
                 (A') (A') (A') (A') (A') (A')
 The electronic state is 1-A'.
 Alpha  occ. eigenvalues --   -1.36400  -1.34730  -0.72048  -0.70347  -0.56204
 Alpha  occ. eigenvalues --   -0.54492  -0.50987  -0.49315
 Alpha virt. eigenvalues --    0.19320   0.21229   0.29666   0.31459   0.79576
 Alpha virt. eigenvalues --    0.81207   0.82425   0.84221   0.85565   0.87422
 Alpha virt. eigenvalues --    1.16545   1.18249   1.20970   1.22925   2.56497
 Alpha virt. eigenvalues --    2.58385
          Condensed to atoms (all electrons):
               1          2          3          4          5          6
     1  O    6.218212   0.265442   0.262009  -0.000003   0.000000   0.000000
     2  H    0.265442   0.378656  -0.023343   0.000046  -0.000000  -0.000002
     3  H    0.262009  -0.023343   0.394929  -0.000000   0.000000   0.000000
     4  O   -0.000003   0.000046  -0.000000   6.216987   0.265796   0.262826
     5  H    0.000000  -0.000000   0.000000   0.265796   0.381774  -0.023375
     6  H    0.000000  -0.000002   0.000000   0.262826  -0.023375   0.390651
 Mulliken charges:
               1
     1  O   -0.745660
     2  H    0.379202
     3  H    0.366406
     4  O   -0.745651
     5  H    0.375805
     6  H    0.369899
 Sum of Mulliken charges =   0.00000
 Mulliken charges with hydrogens summed into heavy atoms:
               1
     1  O   -0.000053
     4  O    0.000053
 Electronic spatial extent (au):  <R**2>=            430.8163
 Charge=              0.0000 electrons
 Dipole moment (field-independent basis, Debye):
    X=             -3.5225    Y=             -3.8462    Z=              0.0000  Tot=              5.2155
 Quadrupole moment (field-independent basis, Debye-Ang):
   XX=            -10.3190   YY=             -6.9543   ZZ=            -14.9906
   XY=             -4.2385   XZ=              0.0000   YZ=             -0.0000
 Traceless Quadrupole moment (field-independent basis, Debye-Ang):
   XX=              0.4356   YY=              3.8003   ZZ=             -4.2360
   XY=             -4.2385   XZ=              0.0000   YZ=             -0.0000
 Octapole moment (field-independent basis, Debye-Ang**2):
  XXX=             -3.8551  YYY=            -75.9935  ZZZ=              0.0000  XYY=            -24.3746
  XXY=             -2.6434  XXZ=              0.0000  XZZ=             -0.6607  YZZ=             -0.7348
  YYZ=              0.0000  XYZ=              0.0000
 Hexadecapole moment (field-independent basis, Debye-Ang**3):
 XXXX=            -12.3048 YYYY=           -398.5485 ZZZZ=            -12.2249 XXXY=              0.3163
 XXXZ=             -0.0000 YYYX=            -65.0309 YYYZ=              0.0000 ZZZX=             -0.0000
 ZZZY=              0.0000 XXYY=            -71.1237 XXZZ=             -4.5514 YYZZ=           -106.9613
 XXYZ=              0.0000 YYXZ=              0.0000 ZZXY=              0.3307
 N-N= 2.006353988083D+01 E-N=-1.217173432837D+02  KE= 2.677484898944D+01
 Symmetry A'   KE= 1.789386576699D+01
 Symmetry A"   KE= 8.880983222448D+00
 Leave Link  601 at Sun Dec 10 06:44:39 2023, MaxMem=   536870912 cpu:               0.1 elap:               0.0
 (Enter /usr/site/hpc/x86_64/glibc-2.17/broadwell/gaussian/g16_a.03/pgi-16.5/g16/l9999.exe)
 1\1\GINC-N033\SP\RCCSD(T)-FC\CEP-31G\H4O2\ROOT\10-Dec-2023\0\\#p CCSD(
 T)/CEP-31G\\H2O_H2O_3981\\0,1\O,0,0.,-0.009833,0.\H,0,-0.799571,-0.580
 965,0.\H,0,0.799571,-0.580965,0.\O,0,-4.244943,-3.038549,0.\H,0,-5.202
 213,-3.260224,0.\H,0,-3.724798,-3.872189,0.\\Version=ES64L-G16RevA.03\
 State=1-A'\HF=-33.6529373\MP2=-33.8812629\MP3=-33.8866867\MP4D=-33.891
 848\MP4DQ=-33.8925931\MP4SDQ=-33.8946192\CCSD=-33.895671\CCSD(T)=-33.8
 982311\RMSD=3.100e-10\PG=CS [SG(H4O2)]\\@


 WE ARE REACHING THE STAGE WHERE THE PROBLEMS WE MUST SOLVE ARE 
 GOING TO BECOME INSOLUBLE WITHOUT COMPUTERS.
 I DO NOT FEAR COMPUTERS.  I FEAR THE LACK OF THEM.

                                   -- ISSAC ASIMOV
 Job cpu time:       0 days  0 hours  0 minutes  3.2 seconds.
 Elapsed time:       0 days  0 hours  0 minutes  1.0 seconds.
 File lengths (MBytes):  RWF=     72 Int=      0 D2E=      0 Chk=      8 Scr=      8
 Normal termination of Gaussian 16 at Sun Dec 10 06:44:39 2023.
