 Entering Gaussian System, Link 0=g16
 Input=H2O_H2O_3391.com
 Output=H2O_H2O_3391.log
 Initial command:
 /usr/site/hpc/x86_64/glibc-2.17/broadwell/gaussian/g16_a.03/pgi-16.5/g16/l1.exe "/gpfs/gpfs1/scratch/c7441090/OH Coord/Gau-1203639.inp" -scrdir="/gpfs/gpfs1/scratch/c7441090/OH Coord/"
 Entering Link 1 = /usr/site/hpc/x86_64/glibc-2.17/broadwell/gaussian/g16_a.03/pgi-16.5/g16/l1.exe PID=   1203640.
  
 Copyright (c) 1988,1990,1992,1993,1995,1998,2003,2009,2016,
            Gaussian, Inc.  All Rights Reserved.
  
 This is part of the Gaussian(R) 16 program.  It is based on
 the Gaussian(R) 09 system (copyright 2009, Gaussian, Inc.),
 the Gaussian(R) 03 system (copyright 2003, Gaussian, Inc.),
 the Gaussian(R) 98 system (copyright 1998, Gaussian, Inc.),
 the Gaussian(R) 94 system (copyright 1995, Gaussian, Inc.),
 the Gaussian 92(TM) system (copyright 1992, Gaussian, Inc.),
 the Gaussian 90(TM) system (copyright 1990, Gaussian, Inc.),
 the Gaussian 88(TM) system (copyright 1988, Gaussian, Inc.),
 the Gaussian 86(TM) system (copyright 1986, Carnegie Mellon
 University), and the Gaussian 82(TM) system (copyright 1983,
 Carnegie Mellon University). Gaussian is a federally registered
 trademark of Gaussian, Inc.
  
 This software contains proprietary and confidential information,
 including trade secrets, belonging to Gaussian, Inc.
  
 This software is provided under written license and may be
 used, copied, transmitted, or stored only in accord with that
 written license.
  
 The following legend is applicable only to US Government
 contracts under FAR:
  
                    RESTRICTED RIGHTS LEGEND
  
 Use, reproduction and disclosure by the US Government is
 subject to restrictions as set forth in subparagraphs (a)
 and (c) of the Commercial Computer Software - Restricted
 Rights clause in FAR 52.227-19.
  
 Gaussian, Inc.
 340 Quinnipiac St., Bldg. 40, Wallingford CT 06492
  
  
 ---------------------------------------------------------------
 Warning -- This program may not be used in any manner that
 competes with the business of Gaussian, Inc. or will provide
 assistance to any competitor of Gaussian, Inc.  The licensee
 of this program is prohibited from giving any competitor of
 Gaussian, Inc. access to this program.  By using this program,
 the user acknowledges that Gaussian, Inc. is engaged in the
 business of creating and licensing software in the field of
 computational chemistry and represents and warrants to the
 licensee that it is not a competitor of Gaussian, Inc. and that
 it will not use this program in any manner prohibited above.
 ---------------------------------------------------------------
  

 Cite this work as:
 Gaussian 16, Revision A.03,
 M. J. Frisch, G. W. Trucks, H. B. Schlegel, G. E. Scuseria, 
 M. A. Robb, J. R. Cheeseman, G. Scalmani, V. Barone, 
 G. A. Petersson, H. Nakatsuji, X. Li, M. Caricato, A. V. Marenich, 
 J. Bloino, B. G. Janesko, R. Gomperts, B. Mennucci, H. P. Hratchian, 
 J. V. Ortiz, A. F. Izmaylov, J. L. Sonnenberg, D. Williams-Young, 
 F. Ding, F. Lipparini, F. Egidi, J. Goings, B. Peng, A. Petrone, 
 T. Henderson, D. Ranasinghe, V. G. Zakrzewski, J. Gao, N. Rega, 
 G. Zheng, W. Liang, M. Hada, M. Ehara, K. Toyota, R. Fukuda, 
 J. Hasegawa, M. Ishida, T. Nakajima, Y. Honda, O. Kitao, H. Nakai, 
 T. Vreven, K. Throssell, J. A. Montgomery, Jr., J. E. Peralta, 
 F. Ogliaro, M. J. Bearpark, J. J. Heyd, E. N. Brothers, K. N. Kudin, 
 V. N. Staroverov, T. A. Keith, R. Kobayashi, J. Normand, 
 K. Raghavachari, A. P. Rendell, J. C. Burant, S. S. Iyengar, 
 J. Tomasi, M. Cossi, J. M. Millam, M. Klene, C. Adamo, R. Cammi, 
 J. W. Ochterski, R. L. Martin, K. Morokuma, O. Farkas, 
 J. B. Foresman, and D. J. Fox, Gaussian, Inc., Wallingford CT, 2016.
 
 ******************************************
 Gaussian 16:  ES64L-G16RevA.03 25-Dec-2016
                10-Dec-2023 
 ******************************************
 %NProcShared=4
 Will use up to    4 processors via shared memory.
 %Mem=4GB
 %Chk=H2O_H2O_3391.chk
 ------------------
 #p CCSD(T)/CEP-31G
 ------------------
 1/38=1,172=1/1;
 2/12=2,17=6,18=5,40=1/2;
 3/5=9,6=1,11=9,25=1,30=1/1,2,3;
 4//1;
 5/5=2,38=5/2;
 8/6=4,9=120000,10=1/1,4;
 9/5=7,14=2/13;
 6/7=2,8=2,9=2,10=2/1;
 99/5=1,9=1/99;
 Leave Link    1 at Sun Dec 10 06:34:04 2023, MaxMem=   536870912 cpu:               0.2 elap:               0.1
 (Enter /usr/site/hpc/x86_64/glibc-2.17/broadwell/gaussian/g16_a.03/pgi-16.5/g16/l101.exe)
 ------------
 H2O_H2O_3391
 ------------
 Symbolic Z-matrix:
 Charge =  0 Multiplicity = 1
 O                     0.       -0.00983   0. 
 H                    -0.79957  -0.58097   0. 
 H                     0.79957  -0.58097   0. 
 O                    -3.8602   -2.75617   0. 
 H                    -4.7546   -2.34928   0. 
 H                    -3.95503  -3.73418   0. 
 
 ITRead=  0  0  0  0  0  0
 MicOpt= -1 -1 -1 -1 -1 -1
 NAtoms=      6 NQM=        6 NQMF=       0 NMMI=      0 NMMIF=      0
                NMic=       0 NMicF=      0.
                    Isotopes and Nuclear Properties:
 (Nuclear quadrupole moments (NQMom) in fm**2, nuclear magnetic moments (NMagM)
  in nuclear magnetons)

  Atom         1           2           3           4           5           6
 IAtWgt=          16           1           1          16           1           1
 AtmWgt=  15.9949146   1.0078250   1.0078250  15.9949146   1.0078250   1.0078250
 NucSpn=           0           1           1           0           1           1
 AtZEff=  -0.0000000  -0.0000000  -0.0000000  -0.0000000  -0.0000000  -0.0000000
 NQMom=    0.0000000   0.0000000   0.0000000   0.0000000   0.0000000   0.0000000
 NMagM=    0.0000000   2.7928460   2.7928460   0.0000000   2.7928460   2.7928460
 AtZNuc=   8.0000000   1.0000000   1.0000000   8.0000000   1.0000000   1.0000000
 Leave Link  101 at Sun Dec 10 06:34:04 2023, MaxMem=   536870912 cpu:               0.3 elap:               0.1
 (Enter /usr/site/hpc/x86_64/glibc-2.17/broadwell/gaussian/g16_a.03/pgi-16.5/g16/l202.exe)
                          Input orientation:                          
 ---------------------------------------------------------------------
 Center     Atomic      Atomic             Coordinates (Angstroms)
 Number     Number       Type             X           Y           Z
 ---------------------------------------------------------------------
      1          8           0        0.000000   -0.009833    0.000000
      2          1           0       -0.799571   -0.580965    0.000000
      3          1           0        0.799571   -0.580965    0.000000
      4          8           0       -3.860202   -2.756167    0.000000
      5          1           0       -4.754603   -2.349284    0.000000
      6          1           0       -3.955031   -3.734182    0.000000
 ---------------------------------------------------------------------
                    Distance matrix (angstroms):
                    1          2          3          4          5
     1  O    0.000000
     2  H    0.982601   0.000000
     3  H    0.982601   1.599142   0.000000
     4  O    4.737458   3.754859   5.142469   0.000000
     5  H    5.298989   4.332347   5.828876   0.982602   0.000000
     6  H    5.432591   4.460909   5.705175   0.982602   1.599143
                    6
     6  H    0.000000
 Stoichiometry    H4O2
 Framework group  CS[SG(H4O2)]
 Deg. of freedom     9
 Full point group                 CS      NOp   2
 Largest Abelian subgroup         CS      NOp   2
 Largest concise Abelian subgroup C1      NOp   1
                         Standard orientation:                         
 ---------------------------------------------------------------------
 Center     Atomic      Atomic             Coordinates (Angstroms)
 Number     Number       Type             X           Y           Z
 ---------------------------------------------------------------------
      1          8           0        0.041133    2.458695   -0.000000
      2          1           0        0.039276    1.476095   -0.000000
      3          1           0       -0.887756    2.779117   -0.000000
      4          8           0        0.041133   -2.278763    0.000000
      5          1           0        0.891161   -2.771671    0.000000
      6          1           0       -0.700806   -2.922994    0.000000
 ---------------------------------------------------------------------
 Rotational constants (GHZ):         241.1014796           2.4525389           2.4278424
 Leave Link  202 at Sun Dec 10 06:34:04 2023, MaxMem=   536870912 cpu:               0.0 elap:               0.0
 (Enter /usr/site/hpc/x86_64/glibc-2.17/broadwell/gaussian/g16_a.03/pgi-16.5/g16/l301.exe)
 Standard basis: CEP-31G (6D, 10F)
 Ernie: Thresh=  0.10000D-02 Tol=  0.10000D-05 Strict=F.
 There are    20 symmetry adapted cartesian basis functions of A'  symmetry.
 There are     4 symmetry adapted cartesian basis functions of A"  symmetry.
 There are    20 symmetry adapted basis functions of A'  symmetry.
 There are     4 symmetry adapted basis functions of A"  symmetry.
    24 basis functions,    48 primitive gaussians,    24 cartesian basis functions
     8 alpha electrons        8 beta electrons
       nuclear repulsion energy        20.6791277220 Hartrees.
 IExCor=    0 DFT=F Ex=HF Corr=None ExCW=0 ScaHFX=  1.000000
 ScaDFX=  1.000000  1.000000  1.000000  1.000000 ScalE2=  1.000000  1.000000
 IRadAn=      5 IRanWt=     -1 IRanGd=            0 ICorTp=0 IEmpDi=  4
 NAtoms=    6 NActive=    6 NUniq=    6 SFac= 1.00D+00 NAtFMM=   60 NAOKFM=F Big=F
 Integral buffers will be    131072 words long.
 Raffenetti 1 integral format.
 Two-electron integral symmetry is turned on.
 Leave Link  301 at Sun Dec 10 06:34:04 2023, MaxMem=   536870912 cpu:               0.2 elap:               0.1
 (Enter /usr/site/hpc/x86_64/glibc-2.17/broadwell/gaussian/g16_a.03/pgi-16.5/g16/l302.exe)
 NPDir=0 NMtPBC=     1 NCelOv=     1 NCel=       1 NClECP=     1 NCelD=      1
         NCelK=      1 NCelE2=     1 NClLst=     1 CellRange=     0.0.
 One-electron integrals computed using PRISM.
 One-electron integral symmetry used in STVInt
   2 Symmetry operations used in ECPInt.
 ECPInt:  NShTT=      78 NPrTT=     318 LenC2=      79 LenP2D=     265.
 LDataN:  DoStor=T MaxTD1= 2 Len=   12
 NBasis=    24 RedAO= T EigKep=  3.79D-02  NBF=    20     4
 NBsUse=    24 1.00D-06 EigRej= -1.00D+00 NBFU=    20     4
 Leave Link  302 at Sun Dec 10 06:34:04 2023, MaxMem=   536870912 cpu:               0.3 elap:               0.1
 (Enter /usr/site/hpc/x86_64/glibc-2.17/broadwell/gaussian/g16_a.03/pgi-16.5/g16/l303.exe)
 DipDrv:  MaxL=1.
 Leave Link  303 at Sun Dec 10 06:34:04 2023, MaxMem=   536870912 cpu:               0.1 elap:               0.0
 (Enter /usr/site/hpc/x86_64/glibc-2.17/broadwell/gaussian/g16_a.03/pgi-16.5/g16/l401.exe)
 ExpMin= 1.78D-01 ExpMax= 1.92D+01 ExpMxC= 1.92D+01 IAcc=3 IRadAn=         5 AccDes= 0.00D+00
 Harris functional with IExCor=  205 and IRadAn=       5 diagonalized for initial guess.
 HarFok:  IExCor=  205 AccDes= 0.00D+00 IRadAn=         5 IDoV= 1 UseB2=F ITyADJ=14
 ICtDFT=  3500011 ScaDFX=  1.000000  1.000000  1.000000  1.000000
 FoFCou: FMM=F IPFlag=           0 FMFlag=      100000 FMFlg1=           0
         NFxFlg=           0 DoJE=T BraDBF=F KetDBF=T FulRan=T
         wScrn=  0.000000 ICntrl=       500 IOpCl=  0 I1Cent=   200000004 NGrid=           0
         NMat0=    1 NMatS0=      1 NMatT0=    0 NMatD0=    1 NMtDS0=    0 NMtDT0=    0
 Petite list used in FoFCou.
 Harris En= -34.4764656522028    
 JPrj=0 DoOrth=F DoCkMO=F.
 Initial guess orbital symmetries:
       Occupied  (A') (A') (A') (A') (A') (A') (A") (A")
       Virtual   (A') (A') (A') (A') (A") (A") (A') (A') (A') (A')
                 (A') (A') (A') (A') (A') (A')
 The electronic state of the initial guess is 1-A'.
 Leave Link  401 at Sun Dec 10 06:34:04 2023, MaxMem=   536870912 cpu:               0.4 elap:               0.1
 (Enter /usr/site/hpc/x86_64/glibc-2.17/broadwell/gaussian/g16_a.03/pgi-16.5/g16/l502.exe)
 Keep R1 ints in memory in symmetry-blocked form, NReq=852107.
 FoFCou: FMM=F IPFlag=           0 FMFlag=           0 FMFlg1=           0
         NFxFlg=           0 DoJE=F BraDBF=F KetDBF=F FulRan=T
         wScrn=  0.000000 ICntrl=       600 IOpCl=  0 I1Cent=           0 NGrid=           0
         NMat0=    1 NMatS0=    300 NMatT0=    0 NMatD0=    1 NMtDS0=    0 NMtDT0=    0
 Petite list used in FoFCou.
 Closed shell SCF:
 Using DIIS extrapolation, IDIIS=  1040.
 NGot=   536870912 LenX=   536840576 LenY=   536839559
 Requested convergence on RMS density matrix=1.00D-08 within 128 cycles.
 Requested convergence on MAX density matrix=1.00D-06.
 Requested convergence on             energy=1.00D-06.
 No special actions if energy rises.

 Cycle   1  Pass 1  IDiag  1:
 E= -33.5619490345506    
 DIIS: error= 6.74D-02 at cycle   1 NSaved=   1.
 NSaved= 1 IEnMin= 1 EnMin= -33.5619490345506     IErMin= 1 ErrMin= 6.74D-02
 ErrMax= 6.74D-02  0.00D+00 EMaxC= 1.00D-01 BMatC= 1.01D-01 BMatP= 1.01D-01
 IDIUse=3 WtCom= 3.26D-01 WtEn= 6.74D-01
 Coeff-Com:  0.100D+01
 Coeff-En:   0.100D+01
 Coeff:      0.100D+01
 Gap=     0.600 Goal=   None    Shift=    0.000
 GapD=    0.600 DampG=2.000 DampE=0.500 DampFc=1.0000 IDamp=-1.
 RMSDP=1.46D-02 MaxDP=1.17D-01              OVMax= 9.76D-02

 Cycle   2  Pass 1  IDiag  1:
 E= -33.6237212064649     Delta-E=       -0.061772171914 Rises=F Damp=F
 DIIS: error= 3.69D-02 at cycle   2 NSaved=   2.
 NSaved= 2 IEnMin= 2 EnMin= -33.6237212064649     IErMin= 2 ErrMin= 3.69D-02
 ErrMax= 3.69D-02  0.00D+00 EMaxC= 1.00D-01 BMatC= 3.76D-02 BMatP= 1.01D-01
 IDIUse=3 WtCom= 6.31D-01 WtEn= 3.69D-01
 Coeff-Com:  0.376D+00 0.624D+00
 Coeff-En:   0.110D+00 0.890D+00
 Coeff:      0.278D+00 0.722D+00
 Gap=     0.685 Goal=   None    Shift=    0.000
 RMSDP=6.34D-03 MaxDP=5.36D-02 DE=-6.18D-02 OVMax= 3.54D-02

 Cycle   3  Pass 1  IDiag  1:
 E= -33.6537850963198     Delta-E=       -0.030063889855 Rises=F Damp=F
 DIIS: error= 6.93D-03 at cycle   3 NSaved=   3.
 NSaved= 3 IEnMin= 3 EnMin= -33.6537850963198     IErMin= 3 ErrMin= 6.93D-03
 ErrMax= 6.93D-03  0.00D+00 EMaxC= 1.00D-01 BMatC= 8.61D-04 BMatP= 3.76D-02
 IDIUse=3 WtCom= 9.31D-01 WtEn= 6.93D-02
 Coeff-Com: -0.113D+00-0.176D-01 0.113D+01
 Coeff-En:   0.000D+00 0.000D+00 0.100D+01
 Coeff:     -0.105D+00-0.164D-01 0.112D+01
 Gap=     0.678 Goal=   None    Shift=    0.000
 RMSDP=1.03D-03 MaxDP=9.04D-03 DE=-3.01D-02 OVMax= 7.84D-03

 Cycle   4  Pass 1  IDiag  1:
 E= -33.6546386470138     Delta-E=       -0.000853550694 Rises=F Damp=F
 DIIS: error= 7.22D-04 at cycle   4 NSaved=   4.
 NSaved= 4 IEnMin= 4 EnMin= -33.6546386470138     IErMin= 4 ErrMin= 7.22D-04
 ErrMax= 7.22D-04  0.00D+00 EMaxC= 1.00D-01 BMatC= 5.45D-06 BMatP= 8.61D-04
 IDIUse=3 WtCom= 9.93D-01 WtEn= 7.22D-03
 Coeff-Com:  0.438D-01-0.167D-01-0.534D+00 0.151D+01
 Coeff-En:   0.000D+00 0.000D+00 0.000D+00 0.100D+01
 Coeff:      0.435D-01-0.166D-01-0.530D+00 0.150D+01
 Gap=     0.680 Goal=   None    Shift=    0.000
 RMSDP=2.30D-04 MaxDP=1.98D-03 DE=-8.54D-04 OVMax= 9.32D-04

 Cycle   5  Pass 1  IDiag  1:
 E= -33.6546509714437     Delta-E=       -0.000012324430 Rises=F Damp=F
 DIIS: error= 4.74D-05 at cycle   5 NSaved=   5.
 NSaved= 5 IEnMin= 5 EnMin= -33.6546509714437     IErMin= 5 ErrMin= 4.74D-05
 ErrMax= 4.74D-05  0.00D+00 EMaxC= 1.00D-01 BMatC= 3.52D-08 BMatP= 5.45D-06
 IDIUse=1 WtCom= 1.00D+00 WtEn= 0.00D+00
 Coeff-Com: -0.611D-02 0.268D-02 0.758D-01-0.260D+00 0.119D+01
 Coeff:     -0.611D-02 0.268D-02 0.758D-01-0.260D+00 0.119D+01
 Gap=     0.680 Goal=   None    Shift=    0.000
 RMSDP=1.48D-05 MaxDP=1.55D-04 DE=-1.23D-05 OVMax= 1.03D-04

 Cycle   6  Pass 1  IDiag  1:
 E= -33.6546510534457     Delta-E=       -0.000000082002 Rises=F Damp=F
 DIIS: error= 1.04D-05 at cycle   6 NSaved=   6.
 NSaved= 6 IEnMin= 6 EnMin= -33.6546510534457     IErMin= 6 ErrMin= 1.04D-05
 ErrMax= 1.04D-05  0.00D+00 EMaxC= 1.00D-01 BMatC= 3.23D-09 BMatP= 3.52D-08
 IDIUse=1 WtCom= 1.00D+00 WtEn= 0.00D+00
 Coeff-Com: -0.159D-02 0.722D-03 0.198D-01-0.591D-01 0.627D-01 0.977D+00
 Coeff:     -0.159D-02 0.722D-03 0.198D-01-0.591D-01 0.627D-01 0.977D+00
 Gap=     0.680 Goal=   None    Shift=    0.000
 RMSDP=3.21D-06 MaxDP=2.59D-05 DE=-8.20D-08 OVMax= 3.24D-05

 Cycle   7  Pass 1  IDiag  1:
 E= -33.6546510590388     Delta-E=       -0.000000005593 Rises=F Damp=F
 DIIS: error= 4.39D-06 at cycle   7 NSaved=   7.
 NSaved= 7 IEnMin= 7 EnMin= -33.6546510590388     IErMin= 7 ErrMin= 4.39D-06
 ErrMax= 4.39D-06  0.00D+00 EMaxC= 1.00D-01 BMatC= 5.97D-10 BMatP= 3.23D-09
 IDIUse=1 WtCom= 1.00D+00 WtEn= 0.00D+00
 Coeff-Com:  0.855D-03-0.340D-03-0.105D-01 0.364D-01-0.191D+00 0.161D+00
 Coeff-Com:  0.100D+01
 Coeff:      0.855D-03-0.340D-03-0.105D-01 0.364D-01-0.191D+00 0.161D+00
 Coeff:      0.100D+01
 Gap=     0.680 Goal=   None    Shift=    0.000
 RMSDP=1.60D-06 MaxDP=1.81D-05 DE=-5.59D-09 OVMax= 1.60D-05

 Cycle   8  Pass 1  IDiag  1:
 E= -33.6546510601619     Delta-E=       -0.000000001123 Rises=F Damp=F
 DIIS: error= 1.04D-06 at cycle   8 NSaved=   8.
 NSaved= 8 IEnMin= 8 EnMin= -33.6546510601619     IErMin= 8 ErrMin= 1.04D-06
 ErrMax= 1.04D-06  0.00D+00 EMaxC= 1.00D-01 BMatC= 2.30D-11 BMatP= 5.97D-10
 IDIUse=1 WtCom= 1.00D+00 WtEn= 0.00D+00
 Coeff-Com: -0.141D-05-0.221D-04-0.322D-04-0.766D-03 0.295D-01-0.101D+00
 Coeff-Com: -0.199D+00 0.127D+01
 Coeff:     -0.141D-05-0.221D-04-0.322D-04-0.766D-03 0.295D-01-0.101D+00
 Coeff:     -0.199D+00 0.127D+01
 Gap=     0.680 Goal=   None    Shift=    0.000
 RMSDP=5.21D-07 MaxDP=3.11D-06 DE=-1.12D-09 OVMax= 3.97D-06

 Cycle   9  Pass 1  IDiag  1:
 E= -33.6546510602229     Delta-E=       -0.000000000061 Rises=F Damp=F
 DIIS: error= 1.39D-07 at cycle   9 NSaved=   9.
 NSaved= 9 IEnMin= 9 EnMin= -33.6546510602229     IErMin= 9 ErrMin= 1.39D-07
 ErrMax= 1.39D-07  0.00D+00 EMaxC= 1.00D-01 BMatC= 5.88D-13 BMatP= 2.30D-11
 IDIUse=1 WtCom= 1.00D+00 WtEn= 0.00D+00
 Coeff-Com:  0.412D-05 0.576D-05-0.262D-04 0.376D-03-0.112D-01 0.402D-01
 Coeff-Com:  0.716D-01-0.543D+00 0.144D+01
 Coeff:      0.412D-05 0.576D-05-0.262D-04 0.376D-03-0.112D-01 0.402D-01
 Coeff:      0.716D-01-0.543D+00 0.144D+01
 Gap=     0.680 Goal=   None    Shift=    0.000
 RMSDP=1.13D-07 MaxDP=5.24D-07 DE=-6.10D-11 OVMax= 7.55D-07

 Cycle  10  Pass 1  IDiag  1:
 E= -33.6546510602244     Delta-E=       -0.000000000002 Rises=F Damp=F
 DIIS: error= 8.61D-09 at cycle  10 NSaved=  10.
 NSaved=10 IEnMin=10 EnMin= -33.6546510602244     IErMin=10 ErrMin= 8.61D-09
 ErrMax= 8.61D-09  0.00D+00 EMaxC= 1.00D-01 BMatC= 3.07D-15 BMatP= 5.88D-13
 IDIUse=1 WtCom= 1.00D+00 WtEn= 0.00D+00
 Coeff-Com:  0.119D-06-0.159D-05-0.707D-05-0.404D-04 0.232D-02-0.895D-02
 Coeff-Com: -0.154D-01 0.120D+00-0.377D+00 0.128D+01
 Coeff:      0.119D-06-0.159D-05-0.707D-05-0.404D-04 0.232D-02-0.895D-02
 Coeff:     -0.154D-01 0.120D+00-0.377D+00 0.128D+01
 Gap=     0.680 Goal=   None    Shift=    0.000
 RMSDP=1.20D-08 MaxDP=5.77D-08 DE=-1.54D-12 OVMax= 7.16D-08

 Cycle  11  Pass 1  IDiag  1:
 E= -33.6546510602245     Delta-E=       -0.000000000000 Rises=F Damp=F
 DIIS: error= 4.67D-10 at cycle  11 NSaved=  11.
 NSaved=11 IEnMin=11 EnMin= -33.6546510602245     IErMin=11 ErrMin= 4.67D-10
 ErrMax= 4.67D-10  0.00D+00 EMaxC= 1.00D-01 BMatC= 7.00D-18 BMatP= 3.07D-15
 IDIUse=1 WtCom= 1.00D+00 WtEn= 0.00D+00
 Coeff-Com: -0.718D-07 0.261D-06 0.171D-05 0.435D-05-0.361D-03 0.142D-02
 Coeff-Com:  0.241D-02-0.191D-01 0.614D-01-0.236D+00 0.119D+01
 Coeff:     -0.718D-07 0.261D-06 0.171D-05 0.435D-05-0.361D-03 0.142D-02
 Coeff:      0.241D-02-0.191D-01 0.614D-01-0.236D+00 0.119D+01
 Gap=     0.680 Goal=   None    Shift=    0.000
 RMSDP=3.81D-10 MaxDP=2.13D-09 DE=-4.97D-14 OVMax= 2.09D-09

 SCF Done:  E(RHF) =  -33.6546510602     A.U. after   11 cycles
            NFock= 11  Conv=0.38D-09     -V/T= 2.2569
 KE= 2.677673918424D+01 PE=-1.229782982680D+02 EE= 4.186778030156D+01
 Leave Link  502 at Sun Dec 10 06:34:04 2023, MaxMem=   536870912 cpu:               0.3 elap:               0.1
 (Enter /usr/site/hpc/x86_64/glibc-2.17/broadwell/gaussian/g16_a.03/pgi-16.5/g16/l801.exe)
 Windowed orbitals will be sorted by symmetry type.
 Range of M.O.s used for correlation:     1    24
 NBasis=    24 NAE=     8 NBE=     8 NFC=     0 NFV=     0
 NROrb=     24 NOA=     8 NOB=     8 NVA=    16 NVB=    16
 Leave Link  801 at Sun Dec 10 06:34:04 2023, MaxMem=   536870912 cpu:               0.1 elap:               0.0
 (Enter /usr/site/hpc/x86_64/glibc-2.17/broadwell/gaussian/g16_a.03/pgi-16.5/g16/l804.exe)
 Closed-shell transformation, MDV=   536870912 ITran=4 ISComp=2.
 Unit  1 TFree=       1025975 TCopy=        210600.
 Semi-Direct transformation.
 ModeAB=           2 MOrb=             8 LenV=     536742226
 LASXX=        22470 LTotXX=       22470 LenRXX=       22470
 LTotAB=       26208 MaxLAS=       57600 LenRXY=       57600
 NonZer=       59520 LenScr=      524288 LnRSAI=           0
 LnScr1=           0 LExtra=           0 Total=       604358
 MaxDsk=          -1 SrtSym=           F ITran=            4
 DoSDTr:  NPSUse=  4
 JobTyp=0 Pass  1:  I=   1 to   8.
 (rs|ai) integrals will be sorted in core.
 Complete sort for first half transformation.
 First half transformation complete.
 Complete sort for second half transformation.
 Second half transformation complete.
 Spin components of T(2) and E(2):
     alpha-alpha T2 =       0.9065910292D-02 E2=     -0.2590446703D-01
     alpha-beta  T2 =       0.5982618486D-01 E2=     -0.1764833975D+00
     beta-beta   T2 =       0.9065910292D-02 E2=     -0.2590446703D-01
 ANorm=    0.1038247565D+01
 E2 =    -0.2282923316D+00 EUMP2 =    -0.33882943391811D+02
 Leave Link  804 at Sun Dec 10 06:34:04 2023, MaxMem=   536870912 cpu:               0.2 elap:               0.1
 (Enter /usr/site/hpc/x86_64/glibc-2.17/broadwell/gaussian/g16_a.03/pgi-16.5/g16/l913.exe)
 CIDS:  MDV=   536870912.
 IFCWin=0 IBDFC=1 NFBD=     0     0 NFCmp=     0     0 NFFFC=     0     0
 Using DD3R+UMP44R for 1st iteration.
 Using DD4RQ for 2nd and later iterations.
 Keep R2 and R3 ints in memory in symmetry-blocked form, NReq=864715.
 FoFCou: FMM=F IPFlag=           0 FMFlag=           0 FMFlg1=           0
         NFxFlg=           0 DoJE=F BraDBF=F KetDBF=F FulRan=T
         wScrn=  0.000000 ICntrl=       600 IOpCl=  0 I1Cent=           0 NGrid=           0
         NMat0=    1 NMatS0=    300 NMatT0=    0 NMatD0=    1 NMtDS0=    0 NMtDT0=    0
 Petite list used in FoFCou.
 CIDS: In Core Option IDoMem=           1.
 CCSD(T)
 =======
 Iterations=  50 Convergence= 0.100D-06
 Produce multiple copies of IABC intergrals
 Iteration Nr.   1
 **********************
 DD1Dir will call FoFMem   1 times, MxPair=        72
 NAB=    36 NAA=     0 NBB=     0.
 MP4(R+Q)= -0.75260644D-03
 Maximum subspace dimension=  5
 A-vector RMS=  5.7560542D-03 Max=  1.3204527D-02 conv= 1.00D-05.
 RLE energy=       -0.2343093091
 E3=       -0.53855225D-02        EUMP3=      -0.33888328914D+02
 E4(DQ)=   -0.59019775D-02        UMP4(DQ)=   -0.33894230892D+02
 E4(SDQ)=  -0.79303231D-02        UMP4(SDQ)=  -0.33896259237D+02
 VARIATIONAL ENERGIES WITH THE FIRST-ORDER WAVEFUNCTION:
 DE(Corr)= -0.23415514     E(Corr)=     -33.888806197    
 NORM(A)=   0.10416582D+01
 Iteration Nr.   2
 **********************
 DD1Dir will call FoFMem   1 times, MxPair=        72
 NAB=    36 NAA=     0 NBB=     0.
 A-vector RMS=  9.7968266D-04 Max=  2.7241949D-03 conv= 1.00D-05.
 RLE energy=       -0.2420587737
 DE(Corr)= -0.24012406     E(CORR)=     -33.894775122     Delta=-5.97D-03
 NORM(A)=   0.10454306D+01
 Iteration Nr.   3
 **********************
 DD1Dir will call FoFMem   1 times, MxPair=        72
 NAB=    36 NAA=     0 NBB=     0.
 A-vector RMS=  3.7914548D-04 Max=  1.0710871D-03 conv= 1.00D-05.
 RLE energy=       -0.2426083896
 DE(Corr)= -0.24216215     E(CORR)=     -33.896813212     Delta=-2.04D-03
 NORM(A)=   0.10459872D+01
 Iteration Nr.   4
 **********************
 DD1Dir will call FoFMem   1 times, MxPair=        72
 NAB=    36 NAA=     0 NBB=     0.
 A-vector RMS=  9.2353345D-05 Max=  2.5331244D-04 conv= 1.00D-05.
 RLE energy=       -0.2426549171
 DE(Corr)= -0.24261931     E(CORR)=     -33.897270373     Delta=-4.57D-04
 NORM(A)=   0.10460595D+01
 Iteration Nr.   5
 **********************
 DD1Dir will call FoFMem   1 times, MxPair=        72
 NAB=    36 NAA=     0 NBB=     0.
 A-vector RMS=  4.0722521D-05 Max=  1.3980864D-04 conv= 1.00D-05.
 RLE energy=       -0.2426533635
 DE(Corr)= -0.24265126     E(CORR)=     -33.897302316     Delta=-3.19D-05
 NORM(A)=   0.10460695D+01
 Iteration Nr.   6
 **********************
 DD1Dir will call FoFMem   1 times, MxPair=        72
 NAB=    36 NAA=     0 NBB=     0.
 A-vector RMS=  1.2191516D-05 Max=  4.3972891D-05 conv= 1.00D-05.
 RLE energy=       -0.2426520066
 DE(Corr)= -0.24265344     E(CORR)=     -33.897304504     Delta=-2.19D-06
 NORM(A)=   0.10460726D+01
 Iteration Nr.   7
 **********************
 DD1Dir will call FoFMem   1 times, MxPair=        72
 NAB=    36 NAA=     0 NBB=     0.
 A-vector RMS=  3.8136200D-06 Max=  1.1424668D-05 conv= 1.00D-05.
 RLE energy=       -0.2426530834
 DE(Corr)= -0.24265287     E(CORR)=     -33.897303935     Delta= 5.69D-07
 NORM(A)=   0.10460739D+01
 Iteration Nr.   8
 **********************
 DD1Dir will call FoFMem   1 times, MxPair=        72
 NAB=    36 NAA=     0 NBB=     0.
 A-vector RMS=  1.1141600D-06 Max=  3.8270436D-06 conv= 1.00D-05.
 RLE energy=       -0.2426526695
 DE(Corr)= -0.24265279     E(CORR)=     -33.897303848     Delta= 8.68D-08
 NORM(A)=   0.10460741D+01
 CI/CC converged in    8 iterations to DelEn= 8.68D-08 Conv= 1.00D-07 ErrA1= 1.11D-06 Conv= 1.00D-05
 Wavefunction amplitudes converged. E(Corr)=     -33.897303848    
 Largest amplitude= 5.86D-02
 IPart=  4 IA=    2   12.50% done.
 IPart=  2 IA=    3   24.17% done.
 IPart=  3 IA=    4   35.00% done.
 IPart=  3 IA=    5   45.00% done.
 IPart=  4 IA=    6   54.17% done.
 IPart=  1 IA=    7   62.50% done.
 IPart=  2 IA=    8   70.00% done.
 IPart=  1 IA=   10   82.50% done.
 IPart=  4 IA=   12   91.67% done.
 Time for triples=        0.24 seconds.
 T4(CCSD)= -0.30863693D-02
 T5(CCSD)=  0.52665965D-03
 CCSD(T)= -0.33899863558D+02
 Discarding MO integrals.
 Leave Link  913 at Sun Dec 10 06:34:04 2023, MaxMem=   536870912 cpu:               0.8 elap:               0.2
 (Enter /usr/site/hpc/x86_64/glibc-2.17/broadwell/gaussian/g16_a.03/pgi-16.5/g16/l601.exe)
 Copying SCF densities to generalized density rwf, IOpCl= 0 IROHF=0.

 **********************************************************************

            Population analysis using the SCF density.

 **********************************************************************

 Orbital symmetries:
       Occupied  (A') (A') (A') (A') (A') (A') (A") (A")
       Virtual   (A') (A') (A') (A') (A") (A") (A') (A') (A') (A')
                 (A') (A') (A') (A') (A') (A')
 The electronic state is 1-A'.
 Alpha  occ. eigenvalues --   -1.36550  -1.34221  -0.72193  -0.69848  -0.56452
 Alpha  occ. eigenvalues --   -0.54038  -0.51163  -0.48835
 Alpha virt. eigenvalues --    0.19151   0.21909   0.29624   0.32092   0.79401
 Alpha virt. eigenvalues --    0.81654   0.82235   0.84651   0.85423   0.87803
 Alpha virt. eigenvalues --    1.16472   1.18936   1.20896   1.24132   2.56405
 Alpha virt. eigenvalues --    2.59396
          Condensed to atoms (all electrons):
               1          2          3          4          5          6
     1  O    6.223199   0.266598   0.262511  -0.000034   0.000001   0.000000
     2  H    0.266598   0.371051  -0.023064   0.000345  -0.000007  -0.000005
     3  H    0.262511  -0.023064   0.393725  -0.000000   0.000000   0.000000
     4  O   -0.000034   0.000345  -0.000000   6.219930   0.265783   0.264710
     5  H    0.000001  -0.000007   0.000000   0.265783   0.380649  -0.023295
     6  H    0.000000  -0.000005   0.000000   0.264710  -0.023295   0.384356
 Mulliken charges:
               1
     1  O   -0.752276
     2  H    0.385082
     3  H    0.366828
     4  O   -0.750735
     5  H    0.376868
     6  H    0.374233
 Sum of Mulliken charges =  -0.00000
 Mulliken charges with hydrogens summed into heavy atoms:
               1
     1  O   -0.000367
     4  O    0.000367
 Electronic spatial extent (au):  <R**2>=            364.2856
 Charge=             -0.0000 electrons
 Dipole moment (field-independent basis, Debye):
    X=             -1.8794    Y=             -4.2676    Z=              0.0000  Tot=              4.6631
 Quadrupole moment (field-independent basis, Debye-Ang):
   XX=             -9.4100   YY=             -6.1394   ZZ=            -14.9944
   XY=             -6.7407   XZ=              0.0000   YZ=             -0.0000
 Traceless Quadrupole moment (field-independent basis, Debye-Ang):
   XX=              0.7713   YY=              4.0419   ZZ=             -4.8131
   XY=             -6.7407   XZ=              0.0000   YZ=             -0.0000
 Octapole moment (field-independent basis, Debye-Ang**2):
  XXX=             -1.3887  YYY=            -65.2289  ZZZ=              0.0000  XYY=            -16.9731
  XXY=             -4.6014  XXZ=              0.0000  XZZ=             -0.3523  YZZ=             -0.8224
  YYZ=              0.0000  XYZ=              0.0000
 Hexadecapole moment (field-independent basis, Debye-Ang**3):
 XXXX=            -11.9049 YYYY=           -343.7633 ZZZZ=            -12.2320 XXXY=             -3.0308
 XXXZ=              0.0000 YYYX=            -48.1015 YYYZ=              0.0000 ZZZX=              0.0000
 ZZZY=              0.0000 XXYY=            -50.0730 XXZZ=             -4.5602 YYZZ=            -89.3896
 XXYZ=              0.0000 YYXZ=              0.0000 ZZXY=              0.7930
 N-N= 2.067912772199D+01 E-N=-1.229782982696D+02  KE= 2.677673918424D+01
 Symmetry A'   KE= 1.789959938428D+01
 Symmetry A"   KE= 8.877139799965D+00
 Leave Link  601 at Sun Dec 10 06:34:04 2023, MaxMem=   536870912 cpu:               0.1 elap:               0.0
 (Enter /usr/site/hpc/x86_64/glibc-2.17/broadwell/gaussian/g16_a.03/pgi-16.5/g16/l9999.exe)
 1\1\GINC-N033\SP\RCCSD(T)-FC\CEP-31G\H4O2\ROOT\10-Dec-2023\0\\#p CCSD(
 T)/CEP-31G\\H2O_H2O_3391\\0,1\O,0,0.,-0.009833,0.\H,0,-0.799571,-0.580
 965,0.\H,0,0.799571,-0.580965,0.\O,0,-3.860202,-2.756167,0.\H,0,-4.754
 603,-2.349284,0.\H,0,-3.955031,-3.734182,0.\\Version=ES64L-G16RevA.03\
 State=1-A'\HF=-33.6546511\MP2=-33.8829434\MP3=-33.8883289\MP4D=-33.893
 4783\MP4DQ=-33.8942309\MP4SDQ=-33.8962592\CCSD=-33.8973038\CCSD(T)=-33
 .8998636\RMSD=3.815e-10\PG=CS [SG(H4O2)]\\@


 THE THINKER DIES, BUT HIS THOUGHTS ARE BEYOND THE 
 REACH OF DESTRUCTION.  MEN ARE MORTAL; BUT IDEAS 
 ARE IMMORTAL.
                              -- WALTER LIPPMANN
 Job cpu time:       0 days  0 hours  0 minutes  3.1 seconds.
 Elapsed time:       0 days  0 hours  0 minutes  1.0 seconds.
 File lengths (MBytes):  RWF=     72 Int=      0 D2E=      0 Chk=      8 Scr=      8
 Normal termination of Gaussian 16 at Sun Dec 10 06:34:05 2023.
