 Entering Gaussian System, Link 0=g16
 Input=H2O_H2O_3783.com
 Output=H2O_H2O_3783.log
 Initial command:
 /usr/site/hpc/x86_64/glibc-2.17/broadwell/gaussian/g16_a.03/pgi-16.5/g16/l1.exe "/gpfs/gpfs1/scratch/c7441090/OH Coord/Gau-1237121.inp" -scrdir="/gpfs/gpfs1/scratch/c7441090/OH Coord/"
 Entering Link 1 = /usr/site/hpc/x86_64/glibc-2.17/broadwell/gaussian/g16_a.03/pgi-16.5/g16/l1.exe PID=   1237122.
  
 Copyright (c) 1988,1990,1992,1993,1995,1998,2003,2009,2016,
            Gaussian, Inc.  All Rights Reserved.
  
 This is part of the Gaussian(R) 16 program.  It is based on
 the Gaussian(R) 09 system (copyright 2009, Gaussian, Inc.),
 the Gaussian(R) 03 system (copyright 2003, Gaussian, Inc.),
 the Gaussian(R) 98 system (copyright 1998, Gaussian, Inc.),
 the Gaussian(R) 94 system (copyright 1995, Gaussian, Inc.),
 the Gaussian 92(TM) system (copyright 1992, Gaussian, Inc.),
 the Gaussian 90(TM) system (copyright 1990, Gaussian, Inc.),
 the Gaussian 88(TM) system (copyright 1988, Gaussian, Inc.),
 the Gaussian 86(TM) system (copyright 1986, Carnegie Mellon
 University), and the Gaussian 82(TM) system (copyright 1983,
 Carnegie Mellon University). Gaussian is a federally registered
 trademark of Gaussian, Inc.
  
 This software contains proprietary and confidential information,
 including trade secrets, belonging to Gaussian, Inc.
  
 This software is provided under written license and may be
 used, copied, transmitted, or stored only in accord with that
 written license.
  
 The following legend is applicable only to US Government
 contracts under FAR:
  
                    RESTRICTED RIGHTS LEGEND
  
 Use, reproduction and disclosure by the US Government is
 subject to restrictions as set forth in subparagraphs (a)
 and (c) of the Commercial Computer Software - Restricted
 Rights clause in FAR 52.227-19.
  
 Gaussian, Inc.
 340 Quinnipiac St., Bldg. 40, Wallingford CT 06492
  
  
 ---------------------------------------------------------------
 Warning -- This program may not be used in any manner that
 competes with the business of Gaussian, Inc. or will provide
 assistance to any competitor of Gaussian, Inc.  The licensee
 of this program is prohibited from giving any competitor of
 Gaussian, Inc. access to this program.  By using this program,
 the user acknowledges that Gaussian, Inc. is engaged in the
 business of creating and licensing software in the field of
 computational chemistry and represents and warrants to the
 licensee that it is not a competitor of Gaussian, Inc. and that
 it will not use this program in any manner prohibited above.
 ---------------------------------------------------------------
  

 Cite this work as:
 Gaussian 16, Revision A.03,
 M. J. Frisch, G. W. Trucks, H. B. Schlegel, G. E. Scuseria, 
 M. A. Robb, J. R. Cheeseman, G. Scalmani, V. Barone, 
 G. A. Petersson, H. Nakatsuji, X. Li, M. Caricato, A. V. Marenich, 
 J. Bloino, B. G. Janesko, R. Gomperts, B. Mennucci, H. P. Hratchian, 
 J. V. Ortiz, A. F. Izmaylov, J. L. Sonnenberg, D. Williams-Young, 
 F. Ding, F. Lipparini, F. Egidi, J. Goings, B. Peng, A. Petrone, 
 T. Henderson, D. Ranasinghe, V. G. Zakrzewski, J. Gao, N. Rega, 
 G. Zheng, W. Liang, M. Hada, M. Ehara, K. Toyota, R. Fukuda, 
 J. Hasegawa, M. Ishida, T. Nakajima, Y. Honda, O. Kitao, H. Nakai, 
 T. Vreven, K. Throssell, J. A. Montgomery, Jr., J. E. Peralta, 
 F. Ogliaro, M. J. Bearpark, J. J. Heyd, E. N. Brothers, K. N. Kudin, 
 V. N. Staroverov, T. A. Keith, R. Kobayashi, J. Normand, 
 K. Raghavachari, A. P. Rendell, J. C. Burant, S. S. Iyengar, 
 J. Tomasi, M. Cossi, J. M. Millam, M. Klene, C. Adamo, R. Cammi, 
 J. W. Ochterski, R. L. Martin, K. Morokuma, O. Farkas, 
 J. B. Foresman, and D. J. Fox, Gaussian, Inc., Wallingford CT, 2016.
 
 ******************************************
 Gaussian 16:  ES64L-G16RevA.03 25-Dec-2016
                10-Dec-2023 
 ******************************************
 %NProcShared=4
 Will use up to    4 processors via shared memory.
 %Mem=4GB
 %Chk=H2O_H2O_3783.chk
 ------------------
 #p CCSD(T)/CEP-31G
 ------------------
 1/38=1,172=1/1;
 2/12=2,17=6,18=5,40=1/2;
 3/5=9,6=1,11=9,25=1,30=1/1,2,3;
 4//1;
 5/5=2,38=5/2;
 8/6=4,9=120000,10=1/1,4;
 9/5=7,14=2/13;
 6/7=2,8=2,9=2,10=2/1;
 99/5=1,9=1/99;
 Leave Link    1 at Sun Dec 10 06:41:04 2023, MaxMem=   536870912 cpu:               0.2 elap:               0.1
 (Enter /usr/site/hpc/x86_64/glibc-2.17/broadwell/gaussian/g16_a.03/pgi-16.5/g16/l101.exe)
 ------------
 H2O_H2O_3783
 ------------
 Symbolic Z-matrix:
 Charge =  0 Multiplicity = 1
 O                     0.       -0.00983   0. 
 H                    -0.79957  -0.58097   0. 
 H                     0.79957  -0.58097   0. 
 O                    -4.11627  -2.94524   0. 
 H                    -5.09428  -3.04007   0. 
 H                    -3.70938  -3.83964   0. 
 
 ITRead=  0  0  0  0  0  0
 MicOpt= -1 -1 -1 -1 -1 -1
 NAtoms=      6 NQM=        6 NQMF=       0 NMMI=      0 NMMIF=      0
                NMic=       0 NMicF=      0.
                    Isotopes and Nuclear Properties:
 (Nuclear quadrupole moments (NQMom) in fm**2, nuclear magnetic moments (NMagM)
  in nuclear magnetons)

  Atom         1           2           3           4           5           6
 IAtWgt=          16           1           1          16           1           1
 AtmWgt=  15.9949146   1.0078250   1.0078250  15.9949146   1.0078250   1.0078250
 NucSpn=           0           1           1           0           1           1
 AtZEff=  -0.0000000  -0.0000000  -0.0000000  -0.0000000  -0.0000000  -0.0000000
 NQMom=    0.0000000   0.0000000   0.0000000   0.0000000   0.0000000   0.0000000
 NMagM=    0.0000000   2.7928460   2.7928460   0.0000000   2.7928460   2.7928460
 AtZNuc=   8.0000000   1.0000000   1.0000000   8.0000000   1.0000000   1.0000000
 Leave Link  101 at Sun Dec 10 06:41:04 2023, MaxMem=   536870912 cpu:               0.3 elap:               0.1
 (Enter /usr/site/hpc/x86_64/glibc-2.17/broadwell/gaussian/g16_a.03/pgi-16.5/g16/l202.exe)
                          Input orientation:                          
 ---------------------------------------------------------------------
 Center     Atomic      Atomic             Coordinates (Angstroms)
 Number     Number       Type             X           Y           Z
 ---------------------------------------------------------------------
      1          8           0        0.000000   -0.009833    0.000000
      2          1           0       -0.799571   -0.580965    0.000000
      3          1           0        0.799571   -0.580965    0.000000
      4          8           0       -4.116265   -2.945242    0.000000
      5          1           0       -5.094280   -3.040072    0.000000
      6          1           0       -3.709382   -3.839643    0.000000
 ---------------------------------------------------------------------
                    Distance matrix (angstroms):
                    1          2          3          4          5
     1  O    0.000000
     2  H    0.982601   0.000000
     3  H    0.982601   1.599142   0.000000
     4  O    5.055716   4.073115   5.454837   0.000000
     5  H    5.927397   4.948912   6.386289   0.982602   0.000000
     6  H    5.331694   4.368751   5.563240   0.982602   1.599142
                    6
     6  H    0.000000
 Stoichiometry    H4O2
 Framework group  CS[SG(H4O2)]
 Deg. of freedom     9
 Full point group                 CS      NOp   2
 Largest Abelian subgroup         CS      NOp   2
 Largest concise Abelian subgroup C1      NOp   1
                         Standard orientation:                         
 ---------------------------------------------------------------------
 Center     Atomic      Atomic             Coordinates (Angstroms)
 Number     Number       Type             X           Y           Z
 ---------------------------------------------------------------------
      1          8           0        0.070191    2.612987   -0.000000
      2          1           0        0.069427    1.630386   -0.000000
      3          1           0       -0.859054    2.932376   -0.000000
      4          8           0        0.070191   -2.442729    0.000000
      5          1           0        0.560829   -3.294069    0.000000
      6          1           0       -0.894254   -2.630753    0.000000
 ---------------------------------------------------------------------
 Rotational constants (GHZ):         255.0778567           2.1609616           2.1428082
 Leave Link  202 at Sun Dec 10 06:41:04 2023, MaxMem=   536870912 cpu:               0.0 elap:               0.0
 (Enter /usr/site/hpc/x86_64/glibc-2.17/broadwell/gaussian/g16_a.03/pgi-16.5/g16/l301.exe)
 Standard basis: CEP-31G (6D, 10F)
 Ernie: Thresh=  0.10000D-02 Tol=  0.10000D-05 Strict=F.
 There are    20 symmetry adapted cartesian basis functions of A'  symmetry.
 There are     4 symmetry adapted cartesian basis functions of A"  symmetry.
 There are    20 symmetry adapted basis functions of A'  symmetry.
 There are     4 symmetry adapted basis functions of A"  symmetry.
    24 basis functions,    48 primitive gaussians,    24 cartesian basis functions
     8 alpha electrons        8 beta electrons
       nuclear repulsion energy        20.2538275964 Hartrees.
 IExCor=    0 DFT=F Ex=HF Corr=None ExCW=0 ScaHFX=  1.000000
 ScaDFX=  1.000000  1.000000  1.000000  1.000000 ScalE2=  1.000000  1.000000
 IRadAn=      5 IRanWt=     -1 IRanGd=            0 ICorTp=0 IEmpDi=  4
 NAtoms=    6 NActive=    6 NUniq=    6 SFac= 1.00D+00 NAtFMM=   60 NAOKFM=F Big=F
 Integral buffers will be    131072 words long.
 Raffenetti 1 integral format.
 Two-electron integral symmetry is turned on.
 Leave Link  301 at Sun Dec 10 06:41:04 2023, MaxMem=   536870912 cpu:               0.2 elap:               0.1
 (Enter /usr/site/hpc/x86_64/glibc-2.17/broadwell/gaussian/g16_a.03/pgi-16.5/g16/l302.exe)
 NPDir=0 NMtPBC=     1 NCelOv=     1 NCel=       1 NClECP=     1 NCelD=      1
         NCelK=      1 NCelE2=     1 NClLst=     1 CellRange=     0.0.
 One-electron integrals computed using PRISM.
 One-electron integral symmetry used in STVInt
   2 Symmetry operations used in ECPInt.
 ECPInt:  NShTT=      78 NPrTT=     318 LenC2=      79 LenP2D=     261.
 LDataN:  DoStor=T MaxTD1= 2 Len=   12
 NBasis=    24 RedAO= T EigKep=  3.82D-02  NBF=    20     4
 NBsUse=    24 1.00D-06 EigRej= -1.00D+00 NBFU=    20     4
 Leave Link  302 at Sun Dec 10 06:41:04 2023, MaxMem=   536870912 cpu:               0.3 elap:               0.1
 (Enter /usr/site/hpc/x86_64/glibc-2.17/broadwell/gaussian/g16_a.03/pgi-16.5/g16/l303.exe)
 DipDrv:  MaxL=1.
 Leave Link  303 at Sun Dec 10 06:41:04 2023, MaxMem=   536870912 cpu:               0.1 elap:               0.0
 (Enter /usr/site/hpc/x86_64/glibc-2.17/broadwell/gaussian/g16_a.03/pgi-16.5/g16/l401.exe)
 ExpMin= 1.78D-01 ExpMax= 1.92D+01 ExpMxC= 1.92D+01 IAcc=3 IRadAn=         5 AccDes= 0.00D+00
 Harris functional with IExCor=  205 and IRadAn=       5 diagonalized for initial guess.
 HarFok:  IExCor=  205 AccDes= 0.00D+00 IRadAn=         5 IDoV= 1 UseB2=F ITyADJ=14
 ICtDFT=  3500011 ScaDFX=  1.000000  1.000000  1.000000  1.000000
 FoFCou: FMM=F IPFlag=           0 FMFlag=      100000 FMFlg1=           0
         NFxFlg=           0 DoJE=T BraDBF=F KetDBF=T FulRan=T
         wScrn=  0.000000 ICntrl=       500 IOpCl=  0 I1Cent=   200000004 NGrid=           0
         NMat0=    1 NMatS0=      1 NMatT0=    0 NMatD0=    1 NMtDS0=    0 NMtDT0=    0
 Petite list used in FoFCou.
 Harris En= -34.4763793359022    
 JPrj=0 DoOrth=F DoCkMO=F.
 Initial guess orbital symmetries:
       Occupied  (A') (A') (A') (A') (A') (A') (A") (A")
       Virtual   (A') (A') (A') (A') (A") (A") (A') (A') (A') (A')
                 (A') (A') (A') (A') (A') (A')
 The electronic state of the initial guess is 1-A'.
 Leave Link  401 at Sun Dec 10 06:41:04 2023, MaxMem=   536870912 cpu:               0.4 elap:               0.1
 (Enter /usr/site/hpc/x86_64/glibc-2.17/broadwell/gaussian/g16_a.03/pgi-16.5/g16/l502.exe)
 Keep R1 ints in memory in symmetry-blocked form, NReq=852063.
 FoFCou: FMM=F IPFlag=           0 FMFlag=           0 FMFlg1=           0
         NFxFlg=           0 DoJE=F BraDBF=F KetDBF=F FulRan=T
         wScrn=  0.000000 ICntrl=       600 IOpCl=  0 I1Cent=           0 NGrid=           0
         NMat0=    1 NMatS0=    300 NMatT0=    0 NMatD0=    1 NMtDS0=    0 NMtDT0=    0
 Petite list used in FoFCou.
 Closed shell SCF:
 Using DIIS extrapolation, IDIIS=  1040.
 NGot=   536870912 LenX=   536840576 LenY=   536839559
 Requested convergence on RMS density matrix=1.00D-08 within 128 cycles.
 Requested convergence on MAX density matrix=1.00D-06.
 Requested convergence on             energy=1.00D-06.
 No special actions if energy rises.

 Cycle   1  Pass 1  IDiag  1:
 E= -33.5599203764390    
 DIIS: error= 6.84D-02 at cycle   1 NSaved=   1.
 NSaved= 1 IEnMin= 1 EnMin= -33.5599203764390     IErMin= 1 ErrMin= 6.84D-02
 ErrMax= 6.84D-02  0.00D+00 EMaxC= 1.00D-01 BMatC= 1.01D-01 BMatP= 1.01D-01
 IDIUse=3 WtCom= 3.16D-01 WtEn= 6.84D-01
 Coeff-Com:  0.100D+01
 Coeff-En:   0.100D+01
 Coeff:      0.100D+01
 Gap=     0.601 Goal=   None    Shift=    0.000
 GapD=    0.601 DampG=2.000 DampE=0.500 DampFc=1.0000 IDamp=-1.
 RMSDP=1.47D-02 MaxDP=1.17D-01              OVMax= 9.82D-02

 Cycle   2  Pass 1  IDiag  1:
 E= -33.6221895274221     Delta-E=       -0.062269150983 Rises=F Damp=F
 DIIS: error= 3.71D-02 at cycle   2 NSaved=   2.
 NSaved= 2 IEnMin= 2 EnMin= -33.6221895274221     IErMin= 2 ErrMin= 3.71D-02
 ErrMax= 3.71D-02  0.00D+00 EMaxC= 1.00D-01 BMatC= 3.79D-02 BMatP= 1.01D-01
 IDIUse=3 WtCom= 6.29D-01 WtEn= 3.71D-01
 Coeff-Com:  0.377D+00 0.623D+00
 Coeff-En:   0.110D+00 0.890D+00
 Coeff:      0.278D+00 0.722D+00
 Gap=     0.690 Goal=   None    Shift=    0.000
 RMSDP=6.37D-03 MaxDP=5.39D-02 DE=-6.23D-02 OVMax= 3.55D-02

 Cycle   3  Pass 1  IDiag  1:
 E= -33.6524704025348     Delta-E=       -0.030280875113 Rises=F Damp=F
 DIIS: error= 7.08D-03 at cycle   3 NSaved=   3.
 NSaved= 3 IEnMin= 3 EnMin= -33.6524704025348     IErMin= 3 ErrMin= 7.08D-03
 ErrMax= 7.08D-03  0.00D+00 EMaxC= 1.00D-01 BMatC= 8.79D-04 BMatP= 3.79D-02
 IDIUse=3 WtCom= 9.29D-01 WtEn= 7.08D-02
 Coeff-Com: -0.113D+00-0.170D-01 0.113D+01
 Coeff-En:   0.000D+00 0.000D+00 0.100D+01
 Coeff:     -0.105D+00-0.158D-01 0.112D+01
 Gap=     0.682 Goal=   None    Shift=    0.000
 RMSDP=1.05D-03 MaxDP=8.95D-03 DE=-3.03D-02 OVMax= 7.94D-03

 Cycle   4  Pass 1  IDiag  1:
 E= -33.6533447767554     Delta-E=       -0.000874374221 Rises=F Damp=F
 DIIS: error= 7.38D-04 at cycle   4 NSaved=   4.
 NSaved= 4 IEnMin= 4 EnMin= -33.6533447767554     IErMin= 4 ErrMin= 7.38D-04
 ErrMax= 7.38D-04  0.00D+00 EMaxC= 1.00D-01 BMatC= 5.67D-06 BMatP= 8.79D-04
 IDIUse=3 WtCom= 9.93D-01 WtEn= 7.38D-03
 Coeff-Com:  0.438D-01-0.172D-01-0.530D+00 0.150D+01
 Coeff-En:   0.000D+00 0.000D+00 0.000D+00 0.100D+01
 Coeff:      0.435D-01-0.171D-01-0.527D+00 0.150D+01
 Gap=     0.684 Goal=   None    Shift=    0.000
 RMSDP=2.33D-04 MaxDP=1.99D-03 DE=-8.74D-04 OVMax= 9.45D-04

 Cycle   5  Pass 1  IDiag  1:
 E= -33.6533574826936     Delta-E=       -0.000012705938 Rises=F Damp=F
 DIIS: error= 4.85D-05 at cycle   5 NSaved=   5.
 NSaved= 5 IEnMin= 5 EnMin= -33.6533574826936     IErMin= 5 ErrMin= 4.85D-05
 ErrMax= 4.85D-05  0.00D+00 EMaxC= 1.00D-01 BMatC= 3.57D-08 BMatP= 5.67D-06
 IDIUse=1 WtCom= 1.00D+00 WtEn= 0.00D+00
 Coeff-Com: -0.706D-02 0.311D-02 0.867D-01-0.292D+00 0.121D+01
 Coeff:     -0.706D-02 0.311D-02 0.867D-01-0.292D+00 0.121D+01
 Gap=     0.684 Goal=   None    Shift=    0.000
 RMSDP=1.53D-05 MaxDP=1.45D-04 DE=-1.27D-05 OVMax= 9.70D-05

 Cycle   6  Pass 1  IDiag  1:
 E= -33.6533575706764     Delta-E=       -0.000000087983 Rises=F Damp=F
 DIIS: error= 1.05D-05 at cycle   6 NSaved=   6.
 NSaved= 6 IEnMin= 6 EnMin= -33.6533575706764     IErMin= 6 ErrMin= 1.05D-05
 ErrMax= 1.05D-05  0.00D+00 EMaxC= 1.00D-01 BMatC= 1.97D-09 BMatP= 3.57D-08
 IDIUse=1 WtCom= 1.00D+00 WtEn= 0.00D+00
 Coeff-Com:  0.127D-02-0.450D-03-0.152D-01 0.570D-01-0.401D+00 0.136D+01
 Coeff:      0.127D-02-0.450D-03-0.152D-01 0.570D-01-0.401D+00 0.136D+01
 Gap=     0.684 Goal=   None    Shift=    0.000
 RMSDP=3.77D-06 MaxDP=2.64D-05 DE=-8.80D-08 OVMax= 3.34D-05

 Cycle   7  Pass 1  IDiag  1:
 E= -33.6533575761423     Delta-E=       -0.000000005466 Rises=F Damp=F
 DIIS: error= 2.16D-06 at cycle   7 NSaved=   7.
 NSaved= 7 IEnMin= 7 EnMin= -33.6533575761423     IErMin= 7 ErrMin= 2.16D-06
 ErrMax= 2.16D-06  0.00D+00 EMaxC= 1.00D-01 BMatC= 1.08D-10 BMatP= 1.97D-09
 IDIUse=1 WtCom= 1.00D+00 WtEn= 0.00D+00
 Coeff-Com:  0.235D-03-0.138D-03-0.297D-02 0.871D-02 0.215D-02-0.227D+00
 Coeff-Com:  0.122D+01
 Coeff:      0.235D-03-0.138D-03-0.297D-02 0.871D-02 0.215D-02-0.227D+00
 Coeff:      0.122D+01
 Gap=     0.684 Goal=   None    Shift=    0.000
 RMSDP=9.58D-07 MaxDP=6.84D-06 DE=-5.47D-09 OVMax= 8.31D-06

 Cycle   8  Pass 1  IDiag  1:
 E= -33.6533575764073     Delta-E=       -0.000000000265 Rises=F Damp=F
 DIIS: error= 5.97D-07 at cycle   8 NSaved=   8.
 NSaved= 8 IEnMin= 8 EnMin= -33.6533575764073     IErMin= 8 ErrMin= 5.97D-07
 ErrMax= 5.97D-07  0.00D+00 EMaxC= 1.00D-01 BMatC= 1.52D-11 BMatP= 1.08D-10
 IDIUse=1 WtCom= 1.00D+00 WtEn= 0.00D+00
 Coeff-Com: -0.931D-07-0.220D-04-0.538D-04-0.704D-03 0.281D-01-0.167D+00
 Coeff-Com:  0.357D+00 0.783D+00
 Coeff:     -0.931D-07-0.220D-04-0.538D-04-0.704D-03 0.281D-01-0.167D+00
 Coeff:      0.357D+00 0.783D+00
 Gap=     0.684 Goal=   None    Shift=    0.000
 RMSDP=2.36D-07 MaxDP=1.23D-06 DE=-2.65D-10 OVMax= 1.97D-06

 Cycle   9  Pass 1  IDiag  1:
 E= -33.6533575764279     Delta-E=       -0.000000000021 Rises=F Damp=F
 DIIS: error= 1.50D-07 at cycle   9 NSaved=   9.
 NSaved= 9 IEnMin= 9 EnMin= -33.6533575764279     IErMin= 9 ErrMin= 1.50D-07
 ErrMax= 1.50D-07  0.00D+00 EMaxC= 1.00D-01 BMatC= 6.51D-13 BMatP= 1.52D-11
 IDIUse=1 WtCom= 1.00D+00 WtEn= 0.00D+00
 Coeff-Com:  0.375D-05 0.644D-05-0.164D-04 0.381D-03-0.117D-01 0.726D-01
 Coeff-Com: -0.200D+00-0.231D+00 0.137D+01
 Coeff:      0.375D-05 0.644D-05-0.164D-04 0.381D-03-0.117D-01 0.726D-01
 Coeff:     -0.200D+00-0.231D+00 0.137D+01
 Gap=     0.684 Goal=   None    Shift=    0.000
 RMSDP=1.15D-07 MaxDP=4.93D-07 DE=-2.06D-11 OVMax= 7.63D-07

 Cycle  10  Pass 1  IDiag  1:
 E= -33.6533575764296     Delta-E=       -0.000000000002 Rises=F Damp=F
 DIIS: error= 8.68D-09 at cycle  10 NSaved=  10.
 NSaved=10 IEnMin=10 EnMin= -33.6533575764296     IErMin=10 ErrMin= 8.68D-09
 ErrMax= 8.68D-09  0.00D+00 EMaxC= 1.00D-01 BMatC= 3.00D-15 BMatP= 6.51D-13
 IDIUse=1 WtCom= 1.00D+00 WtEn= 0.00D+00
 Coeff-Com:  0.122D-06-0.172D-05-0.819D-05-0.451D-04 0.246D-02-0.161D-01
 Coeff-Com:  0.455D-01 0.473D-01-0.355D+00 0.128D+01
 Coeff:      0.122D-06-0.172D-05-0.819D-05-0.451D-04 0.246D-02-0.161D-01
 Coeff:      0.455D-01 0.473D-01-0.355D+00 0.128D+01
 Gap=     0.684 Goal=   None    Shift=    0.000
 RMSDP=1.19D-08 MaxDP=5.77D-08 DE=-1.66D-12 OVMax= 7.10D-08

 Cycle  11  Pass 1  IDiag  1:
 E= -33.6533575764296     Delta-E=       -0.000000000000 Rises=F Damp=F
 DIIS: error= 4.46D-10 at cycle  11 NSaved=  11.
 NSaved=11 IEnMin=11 EnMin= -33.6533575764296     IErMin=11 ErrMin= 4.46D-10
 ErrMax= 4.46D-10  0.00D+00 EMaxC= 1.00D-01 BMatC= 6.00D-18 BMatP= 3.00D-15
 IDIUse=1 WtCom= 1.00D+00 WtEn= 0.00D+00
 Coeff-Com: -0.743D-07 0.286D-06 0.192D-05 0.519D-05-0.390D-03 0.260D-02
 Coeff-Com: -0.741D-02-0.756D-02 0.587D-01-0.236D+00 0.119D+01
 Coeff:     -0.743D-07 0.286D-06 0.192D-05 0.519D-05-0.390D-03 0.260D-02
 Coeff:     -0.741D-02-0.756D-02 0.587D-01-0.236D+00 0.119D+01
 Gap=     0.684 Goal=   None    Shift=    0.000
 RMSDP=3.38D-10 MaxDP=1.89D-09 DE=-5.68D-14 OVMax= 1.80D-09

 SCF Done:  E(RHF) =  -33.6533575764     A.U. after   11 cycles
            NFock= 11  Conv=0.34D-09     -V/T= 2.2569
 KE= 2.677528142073D+01 PE=-1.221074157462D+02 EE= 4.142494915265D+01
 Leave Link  502 at Sun Dec 10 06:41:04 2023, MaxMem=   536870912 cpu:               0.3 elap:               0.1
 (Enter /usr/site/hpc/x86_64/glibc-2.17/broadwell/gaussian/g16_a.03/pgi-16.5/g16/l801.exe)
 Windowed orbitals will be sorted by symmetry type.
 Range of M.O.s used for correlation:     1    24
 NBasis=    24 NAE=     8 NBE=     8 NFC=     0 NFV=     0
 NROrb=     24 NOA=     8 NOB=     8 NVA=    16 NVB=    16
 Leave Link  801 at Sun Dec 10 06:41:04 2023, MaxMem=   536870912 cpu:               0.1 elap:               0.0
 (Enter /usr/site/hpc/x86_64/glibc-2.17/broadwell/gaussian/g16_a.03/pgi-16.5/g16/l804.exe)
 Closed-shell transformation, MDV=   536870912 ITran=4 ISComp=2.
 Unit  1 TFree=       1025975 TCopy=        210600.
 Semi-Direct transformation.
 ModeAB=           2 MOrb=             8 LenV=     536742241
 LASXX=        22470 LTotXX=       22470 LenRXX=       22470
 LTotAB=       26208 MaxLAS=       57600 LenRXY=       57600
 NonZer=       59520 LenScr=      524288 LnRSAI=           0
 LnScr1=           0 LExtra=           0 Total=       604358
 MaxDsk=          -1 SrtSym=           F ITran=            4
 DoSDTr:  NPSUse=  4
 JobTyp=0 Pass  1:  I=   1 to   8.
 (rs|ai) integrals will be sorted in core.
 Complete sort for first half transformation.
 First half transformation complete.
 Complete sort for second half transformation.
 Second half transformation complete.
 Spin components of T(2) and E(2):
     alpha-alpha T2 =       0.9065474983D-02 E2=     -0.2589651790D-01
     alpha-beta  T2 =       0.5986951670D-01 E2=     -0.1765228499D+00
     beta-beta   T2 =       0.9065474983D-02 E2=     -0.2589651790D-01
 ANorm=    0.1038268013D+01
 E2 =    -0.2283158857D+00 EUMP2 =    -0.33881673462135D+02
 Leave Link  804 at Sun Dec 10 06:41:04 2023, MaxMem=   536870912 cpu:               0.2 elap:               0.1
 (Enter /usr/site/hpc/x86_64/glibc-2.17/broadwell/gaussian/g16_a.03/pgi-16.5/g16/l913.exe)
 CIDS:  MDV=   536870912.
 IFCWin=0 IBDFC=1 NFBD=     0     0 NFCmp=     0     0 NFFFC=     0     0
 Using DD3R+UMP44R for 1st iteration.
 Using DD4RQ for 2nd and later iterations.
 Keep R2 and R3 ints in memory in symmetry-blocked form, NReq=864671.
 FoFCou: FMM=F IPFlag=           0 FMFlag=           0 FMFlg1=           0
         NFxFlg=           0 DoJE=F BraDBF=F KetDBF=F FulRan=T
         wScrn=  0.000000 ICntrl=       600 IOpCl=  0 I1Cent=           0 NGrid=           0
         NMat0=    1 NMatS0=    300 NMatT0=    0 NMatD0=    1 NMtDS0=    0 NMtDT0=    0
 Petite list used in FoFCou.
 CIDS: In Core Option IDoMem=           1.
 CCSD(T)
 =======
 Iterations=  50 Convergence= 0.100D-06
 Produce multiple copies of IABC intergrals
 Iteration Nr.   1
 **********************
 DD1Dir will call FoFMem   1 times, MxPair=        72
 NAB=    36 NAA=     0 NBB=     0.
 MP4(R+Q)= -0.74699319D-03
 Maximum subspace dimension=  5
 A-vector RMS=  5.7531210D-03 Max=  1.3210079D-02 conv= 1.00D-05.
 RLE energy=       -0.2343581104
 E3=       -0.54144980D-02        EUMP3=      -0.33887087960D+02
 E4(DQ)=   -0.59052128D-02        UMP4(DQ)=   -0.33892993173D+02
 E4(SDQ)=  -0.79314264D-02        UMP4(SDQ)=  -0.33895019386D+02
 VARIATIONAL ENERGIES WITH THE FIRST-ORDER WAVEFUNCTION:
 DE(Corr)= -0.23420267     E(Corr)=     -33.887560246    
 NORM(A)=   0.10416911D+01
 Iteration Nr.   2
 **********************
 DD1Dir will call FoFMem   1 times, MxPair=        72
 NAB=    36 NAA=     0 NBB=     0.
 A-vector RMS=  9.8182145D-04 Max=  2.6824336D-03 conv= 1.00D-05.
 RLE energy=       -0.2421176817
 DE(Corr)= -0.24017818     E(CORR)=     -33.893535753     Delta=-5.98D-03
 NORM(A)=   0.10454734D+01
 Iteration Nr.   3
 **********************
 DD1Dir will call FoFMem   1 times, MxPair=        72
 NAB=    36 NAA=     0 NBB=     0.
 A-vector RMS=  3.8105985D-04 Max=  1.1030301D-03 conv= 1.00D-05.
 RLE energy=       -0.2426674877
 DE(Corr)= -0.24222080     E(CORR)=     -33.895578381     Delta=-2.04D-03
 NORM(A)=   0.10460322D+01
 Iteration Nr.   4
 **********************
 DD1Dir will call FoFMem   1 times, MxPair=        72
 NAB=    36 NAA=     0 NBB=     0.
 A-vector RMS=  9.2303001D-05 Max=  2.5099551D-04 conv= 1.00D-05.
 RLE energy=       -0.2427141260
 DE(Corr)= -0.24267836     E(CORR)=     -33.896035934     Delta=-4.58D-04
 NORM(A)=   0.10461056D+01
 Iteration Nr.   5
 **********************
 DD1Dir will call FoFMem   1 times, MxPair=        72
 NAB=    36 NAA=     0 NBB=     0.
 A-vector RMS=  4.1148783D-05 Max=  1.4426603D-04 conv= 1.00D-05.
 RLE energy=       -0.2427124340
 DE(Corr)= -0.24271040     E(CORR)=     -33.896067976     Delta=-3.20D-05
 NORM(A)=   0.10461159D+01
 Iteration Nr.   6
 **********************
 DD1Dir will call FoFMem   1 times, MxPair=        72
 NAB=    36 NAA=     0 NBB=     0.
 A-vector RMS=  1.1691290D-05 Max=  4.2045051D-05 conv= 1.00D-05.
 RLE energy=       -0.2427114056
 DE(Corr)= -0.24271256     E(CORR)=     -33.896070139     Delta=-2.16D-06
 NORM(A)=   0.10461192D+01
 Iteration Nr.   7
 **********************
 DD1Dir will call FoFMem   1 times, MxPair=        72
 NAB=    36 NAA=     0 NBB=     0.
 A-vector RMS=  3.5532487D-06 Max=  1.1268605D-05 conv= 1.00D-05.
 RLE energy=       -0.2427123802
 DE(Corr)= -0.24271197     E(CORR)=     -33.896069543     Delta= 5.96D-07
 NORM(A)=   0.10461206D+01
 Iteration Nr.   8
 **********************
 DD1Dir will call FoFMem   1 times, MxPair=        72
 NAB=    36 NAA=     0 NBB=     0.
 A-vector RMS=  8.7973749D-07 Max=  2.8956577D-06 conv= 1.00D-05.
 RLE energy=       -0.2427118789
 DE(Corr)= -0.24271196     E(CORR)=     -33.896069539     Delta= 3.23D-09
 NORM(A)=   0.10461207D+01
 CI/CC converged in    8 iterations to DelEn= 3.23D-09 Conv= 1.00D-07 ErrA1= 8.80D-07 Conv= 1.00D-05
 Wavefunction amplitudes converged. E(Corr)=     -33.896069539    
 Largest amplitude= 5.86D-02
 IPart=  4 IA=    2   12.50% done.
 IPart=  2 IA=    3   24.17% done.
 IPart=  3 IA=    4   35.00% done.
 IPart=  3 IA=    5   45.00% done.
 IPart=  2 IA=    6   54.17% done.
 IPart=  4 IA=    7   62.50% done.
 IPart=  1 IA=    8   70.00% done.
 IPart=  4 IA=   10   82.50% done.
 IPart=  3 IA=   12   91.67% done.
 Time for triples=        0.26 seconds.
 T4(CCSD)= -0.30857217D-02
 T5(CCSD)=  0.52590993D-03
 CCSD(T)= -0.33898629351D+02
 Discarding MO integrals.
 Leave Link  913 at Sun Dec 10 06:41:05 2023, MaxMem=   536870912 cpu:               0.9 elap:               0.2
 (Enter /usr/site/hpc/x86_64/glibc-2.17/broadwell/gaussian/g16_a.03/pgi-16.5/g16/l601.exe)
 Copying SCF densities to generalized density rwf, IOpCl= 0 IROHF=0.

 **********************************************************************

            Population analysis using the SCF density.

 **********************************************************************

 Orbital symmetries:
       Occupied  (A') (A') (A') (A') (A') (A') (A") (A")
       Virtual   (A') (A') (A') (A') (A") (A") (A') (A') (A') (A')
                 (A') (A') (A') (A') (A') (A')
 The electronic state is 1-A'.
 Alpha  occ. eigenvalues --   -1.36447  -1.34568  -0.72094  -0.70185  -0.56275
 Alpha  occ. eigenvalues --   -0.54343  -0.51040  -0.49160
 Alpha virt. eigenvalues --    0.19269   0.21434   0.29634   0.31670   0.79524
 Alpha virt. eigenvalues --    0.81353   0.82331   0.84378   0.85506   0.87571
 Alpha virt. eigenvalues --    1.16519   1.18446   1.20925   1.23256   2.56491
 Alpha virt. eigenvalues --    2.58613
          Condensed to atoms (all electrons):
               1          2          3          4          5          6
     1  O    6.219492   0.265818   0.261976  -0.000007   0.000000   0.000000
     2  H    0.265818   0.376318  -0.023274   0.000097  -0.000001  -0.000003
     3  H    0.261976  -0.023274   0.395176  -0.000000   0.000000   0.000000
     4  O   -0.000007   0.000097  -0.000000   6.217775   0.266021   0.263095
     5  H    0.000000  -0.000001   0.000000   0.266021   0.381004  -0.023352
     6  H    0.000000  -0.000003   0.000000   0.263095  -0.023352   0.389499
 Mulliken charges:
               1
     1  O   -0.747279
     2  H    0.381047
     3  H    0.366123
     4  O   -0.746980
     5  H    0.376328
     6  H    0.370761
 Sum of Mulliken charges =  -0.00000
 Mulliken charges with hydrogens summed into heavy atoms:
               1
     1  O   -0.000109
     4  O    0.000109
 Electronic spatial extent (au):  <R**2>=            408.0958
 Charge=             -0.0000 electrons
 Dipole moment (field-independent basis, Debye):
    X=             -3.2178    Y=             -4.0198    Z=              0.0000  Tot=              5.1491
 Quadrupole moment (field-independent basis, Debye-Ang):
   XX=            -10.0259   YY=             -6.5196   ZZ=            -14.9916
   XY=             -4.7909   XZ=              0.0000   YZ=             -0.0000
 Traceless Quadrupole moment (field-independent basis, Debye-Ang):
   XX=              0.4865   YY=              3.9928   ZZ=             -4.4792
   XY=             -4.7909   XZ=              0.0000   YZ=             -0.0000
 Octapole moment (field-independent basis, Debye-Ang**2):
  XXX=             -3.5305  YYY=            -72.8655  ZZZ=              0.0000  XYY=            -21.7021
  XXY=             -3.4886  XXZ=              0.0000  XZZ=             -0.6035  YZZ=             -0.7698
  YYZ=              0.0000  XYZ=              0.0000
 Hexadecapole moment (field-independent basis, Debye-Ang**3):
 XXXX=            -12.2587 YYYY=           -379.1063 ZZZZ=            -12.2267 XXXY=              0.0704
 XXXZ=             -0.0000 YYYX=            -62.8378 YYYZ=              0.0000 ZZZX=             -0.0000
 ZZZY=              0.0000 XXYY=            -63.5549 XXZZ=             -4.5578 YYZZ=           -100.9458
 XXYZ=              0.0000 YYXZ=              0.0000 ZZXY=              0.4207
 N-N= 2.025382759636D+01 E-N=-1.221074157489D+02  KE= 2.677528142073D+01
 Symmetry A'   KE= 1.789527421581D+01
 Symmetry A"   KE= 8.880007204912D+00
 Leave Link  601 at Sun Dec 10 06:41:05 2023, MaxMem=   536870912 cpu:               0.1 elap:               0.0
 (Enter /usr/site/hpc/x86_64/glibc-2.17/broadwell/gaussian/g16_a.03/pgi-16.5/g16/l9999.exe)
 1\1\GINC-N033\SP\RCCSD(T)-FC\CEP-31G\H4O2\ROOT\10-Dec-2023\0\\#p CCSD(
 T)/CEP-31G\\H2O_H2O_3783\\0,1\O,0,0.,-0.009833,0.\H,0,-0.799571,-0.580
 965,0.\H,0,0.799571,-0.580965,0.\O,0,-4.116265,-2.945242,0.\H,0,-5.094
 28,-3.040072,0.\H,0,-3.709382,-3.839643,0.\\Version=ES64L-G16RevA.03\S
 tate=1-A'\HF=-33.6533576\MP2=-33.8816735\MP3=-33.887088\MP4D=-33.89224
 62\MP4DQ=-33.8929932\MP4SDQ=-33.8950194\CCSD=-33.8960695\CCSD(T)=-33.8
 986294\RMSD=3.378e-10\PG=CS [SG(H4O2)]\\@


 We make a living by what we get,
 we make a life by what we give.
                   -- Sir Winston Churchill
 Job cpu time:       0 days  0 hours  0 minutes  3.3 seconds.
 Elapsed time:       0 days  0 hours  0 minutes  1.0 seconds.
 File lengths (MBytes):  RWF=     72 Int=      0 D2E=      0 Chk=      8 Scr=      8
 Normal termination of Gaussian 16 at Sun Dec 10 06:41:05 2023.
