 Entering Gaussian System, Link 0=g16
 Input=H2O_H2O_2574.com
 Output=H2O_H2O_2574.log
 Initial command:
 /usr/site/hpc/x86_64/glibc-2.17/broadwell/gaussian/g16_a.03/pgi-16.5/g16/l1.exe "/gpfs/gpfs1/scratch/c7441090/OH Coord/Gau-1144720.inp" -scrdir="/gpfs/gpfs1/scratch/c7441090/OH Coord/"
 Entering Link 1 = /usr/site/hpc/x86_64/glibc-2.17/broadwell/gaussian/g16_a.03/pgi-16.5/g16/l1.exe PID=   1144721.
  
 Copyright (c) 1988,1990,1992,1993,1995,1998,2003,2009,2016,
            Gaussian, Inc.  All Rights Reserved.
  
 This is part of the Gaussian(R) 16 program.  It is based on
 the Gaussian(R) 09 system (copyright 2009, Gaussian, Inc.),
 the Gaussian(R) 03 system (copyright 2003, Gaussian, Inc.),
 the Gaussian(R) 98 system (copyright 1998, Gaussian, Inc.),
 the Gaussian(R) 94 system (copyright 1995, Gaussian, Inc.),
 the Gaussian 92(TM) system (copyright 1992, Gaussian, Inc.),
 the Gaussian 90(TM) system (copyright 1990, Gaussian, Inc.),
 the Gaussian 88(TM) system (copyright 1988, Gaussian, Inc.),
 the Gaussian 86(TM) system (copyright 1986, Carnegie Mellon
 University), and the Gaussian 82(TM) system (copyright 1983,
 Carnegie Mellon University). Gaussian is a federally registered
 trademark of Gaussian, Inc.
  
 This software contains proprietary and confidential information,
 including trade secrets, belonging to Gaussian, Inc.
  
 This software is provided under written license and may be
 used, copied, transmitted, or stored only in accord with that
 written license.
  
 The following legend is applicable only to US Government
 contracts under FAR:
  
                    RESTRICTED RIGHTS LEGEND
  
 Use, reproduction and disclosure by the US Government is
 subject to restrictions as set forth in subparagraphs (a)
 and (c) of the Commercial Computer Software - Restricted
 Rights clause in FAR 52.227-19.
  
 Gaussian, Inc.
 340 Quinnipiac St., Bldg. 40, Wallingford CT 06492
  
  
 ---------------------------------------------------------------
 Warning -- This program may not be used in any manner that
 competes with the business of Gaussian, Inc. or will provide
 assistance to any competitor of Gaussian, Inc.  The licensee
 of this program is prohibited from giving any competitor of
 Gaussian, Inc. access to this program.  By using this program,
 the user acknowledges that Gaussian, Inc. is engaged in the
 business of creating and licensing software in the field of
 computational chemistry and represents and warrants to the
 licensee that it is not a competitor of Gaussian, Inc. and that
 it will not use this program in any manner prohibited above.
 ---------------------------------------------------------------
  

 Cite this work as:
 Gaussian 16, Revision A.03,
 M. J. Frisch, G. W. Trucks, H. B. Schlegel, G. E. Scuseria, 
 M. A. Robb, J. R. Cheeseman, G. Scalmani, V. Barone, 
 G. A. Petersson, H. Nakatsuji, X. Li, M. Caricato, A. V. Marenich, 
 J. Bloino, B. G. Janesko, R. Gomperts, B. Mennucci, H. P. Hratchian, 
 J. V. Ortiz, A. F. Izmaylov, J. L. Sonnenberg, D. Williams-Young, 
 F. Ding, F. Lipparini, F. Egidi, J. Goings, B. Peng, A. Petrone, 
 T. Henderson, D. Ranasinghe, V. G. Zakrzewski, J. Gao, N. Rega, 
 G. Zheng, W. Liang, M. Hada, M. Ehara, K. Toyota, R. Fukuda, 
 J. Hasegawa, M. Ishida, T. Nakajima, Y. Honda, O. Kitao, H. Nakai, 
 T. Vreven, K. Throssell, J. A. Montgomery, Jr., J. E. Peralta, 
 F. Ogliaro, M. J. Bearpark, J. J. Heyd, E. N. Brothers, K. N. Kudin, 
 V. N. Staroverov, T. A. Keith, R. Kobayashi, J. Normand, 
 K. Raghavachari, A. P. Rendell, J. C. Burant, S. S. Iyengar, 
 J. Tomasi, M. Cossi, J. M. Millam, M. Klene, C. Adamo, R. Cammi, 
 J. W. Ochterski, R. L. Martin, K. Morokuma, O. Farkas, 
 J. B. Foresman, and D. J. Fox, Gaussian, Inc., Wallingford CT, 2016.
 
 ******************************************
 Gaussian 16:  ES64L-G16RevA.03 25-Dec-2016
                10-Dec-2023 
 ******************************************
 %NProcShared=4
 Will use up to    4 processors via shared memory.
 %Mem=4GB
 %Chk=H2O_H2O_2574.chk
 ------------------
 #p CCSD(T)/CEP-31G
 ------------------
 1/38=1,172=1/1;
 2/12=2,17=6,18=5,40=1/2;
 3/5=9,6=1,11=9,25=1,30=1/1,2,3;
 4//1;
 5/5=2,38=5/2;
 8/6=4,9=120000,10=1/1,4;
 9/5=7,14=2/13;
 6/7=2,8=2,9=2,10=2/1;
 99/5=1,9=1/99;
 Leave Link    1 at Sun Dec 10 06:19:19 2023, MaxMem=   536870912 cpu:               0.2 elap:               0.1
 (Enter /usr/site/hpc/x86_64/glibc-2.17/broadwell/gaussian/g16_a.03/pgi-16.5/g16/l101.exe)
 ------------
 H2O_H2O_2574
 ------------
 Symbolic Z-matrix:
 Charge =  0 Multiplicity = 1
 O                     0.       -0.00983   0. 
 H                    -0.79957  -0.58097   0. 
 H                     0.79957  -0.58097   0. 
 O                    -3.32597  -2.36871   0. 
 H                    -3.8971   -1.56913   0. 
 H                    -3.8971   -3.16828   0. 
 
 ITRead=  0  0  0  0  0  0
 MicOpt= -1 -1 -1 -1 -1 -1
 NAtoms=      6 NQM=        6 NQMF=       0 NMMI=      0 NMMIF=      0
                NMic=       0 NMicF=      0.
                    Isotopes and Nuclear Properties:
 (Nuclear quadrupole moments (NQMom) in fm**2, nuclear magnetic moments (NMagM)
  in nuclear magnetons)

  Atom         1           2           3           4           5           6
 IAtWgt=          16           1           1          16           1           1
 AtmWgt=  15.9949146   1.0078250   1.0078250  15.9949146   1.0078250   1.0078250
 NucSpn=           0           1           1           0           1           1
 AtZEff=  -0.0000000  -0.0000000  -0.0000000  -0.0000000  -0.0000000  -0.0000000
 NQMom=    0.0000000   0.0000000   0.0000000   0.0000000   0.0000000   0.0000000
 NMagM=    0.0000000   2.7928460   2.7928460   0.0000000   2.7928460   2.7928460
 AtZNuc=   8.0000000   1.0000000   1.0000000   8.0000000   1.0000000   1.0000000
 Leave Link  101 at Sun Dec 10 06:19:19 2023, MaxMem=   536870912 cpu:               0.3 elap:               0.1
 (Enter /usr/site/hpc/x86_64/glibc-2.17/broadwell/gaussian/g16_a.03/pgi-16.5/g16/l202.exe)
                          Input orientation:                          
 ---------------------------------------------------------------------
 Center     Atomic      Atomic             Coordinates (Angstroms)
 Number     Number       Type             X           Y           Z
 ---------------------------------------------------------------------
      1          8           0        0.000000   -0.009833    0.000000
      2          1           0       -0.799571   -0.580965    0.000000
      3          1           0        0.799571   -0.580965    0.000000
      4          8           0       -3.325966   -2.368706    0.000000
      5          1           0       -3.897098   -1.569134    0.000000
      6          1           0       -3.897098   -3.168277    0.000000
 ---------------------------------------------------------------------
                    Distance matrix (angstroms):
                    1          2          3          4          5
     1  O    0.000000
     2  H    0.982601   0.000000
     3  H    0.982601   1.599142   0.000000
     4  O    4.077540   3.094946   4.496229   0.000000
     5  H    4.197475   3.251331   4.799498   0.982602   0.000000
     6  H    5.016288   4.035946   5.362171   0.982601   1.599143
                    6
     6  H    0.000000
 Stoichiometry    H4O2
 Framework group  CS[SG(H4O2)]
 Deg. of freedom     9
 Full point group                 CS      NOp   2
 Largest Abelian subgroup         CS      NOp   2
 Largest concise Abelian subgroup C1      NOp   1
                         Standard orientation:                         
 ---------------------------------------------------------------------
 Center     Atomic      Atomic             Coordinates (Angstroms)
 Number     Number       Type             X           Y           Z
 ---------------------------------------------------------------------
      1          8           0       -0.013546    2.118396    0.000000
      2          1           0       -0.010240    1.135800    0.000000
      3          1           0        0.914870    2.440188    0.000000
      4          8           0       -0.013546   -1.959144    0.000000
      5          1           0       -0.996142   -1.962449    0.000000
      6          1           0        0.308246   -2.887559    0.000000
 ---------------------------------------------------------------------
 Rotational constants (GHZ):         269.8895426           3.3077952           3.2677454
 Leave Link  202 at Sun Dec 10 06:19:20 2023, MaxMem=   536870912 cpu:               0.0 elap:               0.0
 (Enter /usr/site/hpc/x86_64/glibc-2.17/broadwell/gaussian/g16_a.03/pgi-16.5/g16/l301.exe)
 Standard basis: CEP-31G (6D, 10F)
 Ernie: Thresh=  0.10000D-02 Tol=  0.10000D-05 Strict=F.
 There are    20 symmetry adapted cartesian basis functions of A'  symmetry.
 There are     4 symmetry adapted cartesian basis functions of A"  symmetry.
 There are    20 symmetry adapted basis functions of A'  symmetry.
 There are     4 symmetry adapted basis functions of A"  symmetry.
    24 basis functions,    48 primitive gaussians,    24 cartesian basis functions
     8 alpha electrons        8 beta electrons
       nuclear repulsion energy        21.8832214266 Hartrees.
 IExCor=    0 DFT=F Ex=HF Corr=None ExCW=0 ScaHFX=  1.000000
 ScaDFX=  1.000000  1.000000  1.000000  1.000000 ScalE2=  1.000000  1.000000
 IRadAn=      5 IRanWt=     -1 IRanGd=            0 ICorTp=0 IEmpDi=  4
 NAtoms=    6 NActive=    6 NUniq=    6 SFac= 1.00D+00 NAtFMM=   60 NAOKFM=F Big=F
 Integral buffers will be    131072 words long.
 Raffenetti 1 integral format.
 Two-electron integral symmetry is turned on.
 Leave Link  301 at Sun Dec 10 06:19:20 2023, MaxMem=   536870912 cpu:               0.2 elap:               0.1
 (Enter /usr/site/hpc/x86_64/glibc-2.17/broadwell/gaussian/g16_a.03/pgi-16.5/g16/l302.exe)
 NPDir=0 NMtPBC=     1 NCelOv=     1 NCel=       1 NClECP=     1 NCelD=      1
         NCelK=      1 NCelE2=     1 NClLst=     1 CellRange=     0.0.
 One-electron integrals computed using PRISM.
 One-electron integral symmetry used in STVInt
   2 Symmetry operations used in ECPInt.
 ECPInt:  NShTT=      78 NPrTT=     318 LenC2=      79 LenP2D=     274.
 LDataN:  DoStor=T MaxTD1= 2 Len=   12
 NBasis=    24 RedAO= T EigKep=  3.56D-02  NBF=    20     4
 NBsUse=    24 1.00D-06 EigRej= -1.00D+00 NBFU=    20     4
 Leave Link  302 at Sun Dec 10 06:19:20 2023, MaxMem=   536870912 cpu:               0.3 elap:               0.1
 (Enter /usr/site/hpc/x86_64/glibc-2.17/broadwell/gaussian/g16_a.03/pgi-16.5/g16/l303.exe)
 DipDrv:  MaxL=1.
 Leave Link  303 at Sun Dec 10 06:19:20 2023, MaxMem=   536870912 cpu:               0.1 elap:               0.0
 (Enter /usr/site/hpc/x86_64/glibc-2.17/broadwell/gaussian/g16_a.03/pgi-16.5/g16/l401.exe)
 ExpMin= 1.78D-01 ExpMax= 1.92D+01 ExpMxC= 1.92D+01 IAcc=3 IRadAn=         5 AccDes= 0.00D+00
 Harris functional with IExCor=  205 and IRadAn=       5 diagonalized for initial guess.
 HarFok:  IExCor=  205 AccDes= 0.00D+00 IRadAn=         5 IDoV= 1 UseB2=F ITyADJ=14
 ICtDFT=  3500011 ScaDFX=  1.000000  1.000000  1.000000  1.000000
 FoFCou: FMM=F IPFlag=           0 FMFlag=      100000 FMFlg1=           0
         NFxFlg=           0 DoJE=T BraDBF=F KetDBF=T FulRan=T
         wScrn=  0.000000 ICntrl=       500 IOpCl=  0 I1Cent=   200000004 NGrid=           0
         NMat0=    1 NMatS0=      1 NMatT0=    0 NMatD0=    1 NMtDS0=    0 NMtDT0=    0
 Petite list used in FoFCou.
 Harris En= -34.4767244069654    
 JPrj=0 DoOrth=F DoCkMO=F.
 Initial guess orbital symmetries:
       Occupied  (A') (A') (A') (A') (A') (A') (A") (A")
       Virtual   (A') (A') (A') (A') (A") (A") (A') (A') (A') (A')
                 (A') (A') (A') (A') (A') (A')
 The electronic state of the initial guess is 1-A'.
 Leave Link  401 at Sun Dec 10 06:19:20 2023, MaxMem=   536870912 cpu:               0.4 elap:               0.1
 (Enter /usr/site/hpc/x86_64/glibc-2.17/broadwell/gaussian/g16_a.03/pgi-16.5/g16/l502.exe)
 Keep R1 ints in memory in symmetry-blocked form, NReq=852330.
 FoFCou: FMM=F IPFlag=           0 FMFlag=           0 FMFlg1=           0
         NFxFlg=           0 DoJE=F BraDBF=F KetDBF=F FulRan=T
         wScrn=  0.000000 ICntrl=       600 IOpCl=  0 I1Cent=           0 NGrid=           0
         NMat0=    1 NMatS0=    300 NMatT0=    0 NMatD0=    1 NMtDS0=    0 NMtDT0=    0
 Petite list used in FoFCou.
 Closed shell SCF:
 Using DIIS extrapolation, IDIIS=  1040.
 NGot=   536870912 LenX=   536840576 LenY=   536839559
 Requested convergence on RMS density matrix=1.00D-08 within 128 cycles.
 Requested convergence on MAX density matrix=1.00D-06.
 Requested convergence on             energy=1.00D-06.
 No special actions if energy rises.

 Cycle   1  Pass 1  IDiag  1:
 E= -33.5650407943008    
 DIIS: error= 6.78D-02 at cycle   1 NSaved=   1.
 NSaved= 1 IEnMin= 1 EnMin= -33.5650407943008     IErMin= 1 ErrMin= 6.78D-02
 ErrMax= 6.78D-02  0.00D+00 EMaxC= 1.00D-01 BMatC= 9.98D-02 BMatP= 9.98D-02
 IDIUse=3 WtCom= 3.22D-01 WtEn= 6.78D-01
 Coeff-Com:  0.100D+01
 Coeff-En:   0.100D+01
 Coeff:      0.100D+01
 Gap=     0.588 Goal=   None    Shift=    0.000
 GapD=    0.588 DampG=2.000 DampE=0.500 DampFc=1.0000 IDamp=-1.
 RMSDP=1.45D-02 MaxDP=1.17D-01              OVMax= 9.75D-02

 Cycle   2  Pass 1  IDiag  1:
 E= -33.6258620325417     Delta-E=       -0.060821238241 Rises=F Damp=F
 DIIS: error= 3.66D-02 at cycle   2 NSaved=   2.
 NSaved= 2 IEnMin= 2 EnMin= -33.6258620325417     IErMin= 2 ErrMin= 3.66D-02
 ErrMax= 3.66D-02  0.00D+00 EMaxC= 1.00D-01 BMatC= 3.69D-02 BMatP= 9.98D-02
 IDIUse=3 WtCom= 6.34D-01 WtEn= 3.66D-01
 Coeff-Com:  0.376D+00 0.624D+00
 Coeff-En:   0.110D+00 0.890D+00
 Coeff:      0.278D+00 0.722D+00
 Gap=     0.673 Goal=   None    Shift=    0.000
 RMSDP=6.28D-03 MaxDP=5.31D-02 DE=-6.08D-02 OVMax= 3.51D-02

 Cycle   3  Pass 1  IDiag  1:
 E= -33.6553972678253     Delta-E=       -0.029535235284 Rises=F Damp=F
 DIIS: error= 6.91D-03 at cycle   3 NSaved=   3.
 NSaved= 3 IEnMin= 3 EnMin= -33.6553972678253     IErMin= 3 ErrMin= 6.91D-03
 ErrMax= 6.91D-03  0.00D+00 EMaxC= 1.00D-01 BMatC= 8.36D-04 BMatP= 3.69D-02
 IDIUse=3 WtCom= 9.31D-01 WtEn= 6.91D-02
 Coeff-Com: -0.113D+00-0.189D-01 0.113D+01
 Coeff-En:   0.000D+00 0.000D+00 0.100D+01
 Coeff:     -0.105D+00-0.176D-01 0.112D+01
 Gap=     0.666 Goal=   None    Shift=    0.000
 RMSDP=1.00D-03 MaxDP=8.53D-03 DE=-2.95D-02 OVMax= 7.80D-03

 Cycle   4  Pass 1  IDiag  1:
 E= -33.6562228350631     Delta-E=       -0.000825567238 Rises=F Damp=F
 DIIS: error= 7.00D-04 at cycle   4 NSaved=   4.
 NSaved= 4 IEnMin= 4 EnMin= -33.6562228350631     IErMin= 4 ErrMin= 7.00D-04
 ErrMax= 7.00D-04  0.00D+00 EMaxC= 1.00D-01 BMatC= 5.22D-06 BMatP= 8.36D-04
 IDIUse=3 WtCom= 9.93D-01 WtEn= 7.00D-03
 Coeff-Com:  0.434D-01-0.162D-01-0.532D+00 0.150D+01
 Coeff-En:   0.000D+00 0.000D+00 0.000D+00 0.100D+01
 Coeff:      0.431D-01-0.161D-01-0.528D+00 0.150D+01
 Gap=     0.667 Goal=   None    Shift=    0.000
 RMSDP=2.27D-04 MaxDP=1.94D-03 DE=-8.26D-04 OVMax= 9.75D-04

 Cycle   5  Pass 1  IDiag  1:
 E= -33.6562347268992     Delta-E=       -0.000011891836 Rises=F Damp=F
 DIIS: error= 4.75D-05 at cycle   5 NSaved=   5.
 NSaved= 5 IEnMin= 5 EnMin= -33.6562347268992     IErMin= 5 ErrMin= 4.75D-05
 ErrMax= 4.75D-05  0.00D+00 EMaxC= 1.00D-01 BMatC= 4.12D-08 BMatP= 5.22D-06
 IDIUse=1 WtCom= 1.00D+00 WtEn= 0.00D+00
 Coeff-Com: -0.253D-02 0.134D-02 0.329D-01-0.140D+00 0.111D+01
 Coeff:     -0.253D-02 0.134D-02 0.329D-01-0.140D+00 0.111D+01
 Gap=     0.667 Goal=   None    Shift=    0.000
 RMSDP=1.47D-05 MaxDP=1.67D-04 DE=-1.19D-05 OVMax= 1.11D-04

 Cycle   6  Pass 1  IDiag  1:
 E= -33.6562348067102     Delta-E=       -0.000000079811 Rises=F Damp=F
 DIIS: error= 1.35D-05 at cycle   6 NSaved=   6.
 NSaved= 6 IEnMin= 6 EnMin= -33.6562348067102     IErMin= 6 ErrMin= 1.35D-05
 ErrMax= 1.35D-05  0.00D+00 EMaxC= 1.00D-01 BMatC= 7.45D-09 BMatP= 4.12D-08
 IDIUse=1 WtCom= 1.00D+00 WtEn= 0.00D+00
 Coeff-Com: -0.314D-02 0.131D-02 0.391D-01-0.122D+00 0.278D+00 0.807D+00
 Coeff:     -0.314D-02 0.131D-02 0.391D-01-0.122D+00 0.278D+00 0.807D+00
 Gap=     0.667 Goal=   None    Shift=    0.000
 RMSDP=3.76D-06 MaxDP=3.68D-05 DE=-7.98D-08 OVMax= 3.57D-05

 Cycle   7  Pass 1  IDiag  1:
 E= -33.6562348162960     Delta-E=       -0.000000009586 Rises=F Damp=F
 DIIS: error= 5.45D-06 at cycle   7 NSaved=   7.
 NSaved= 7 IEnMin= 7 EnMin= -33.6562348162960     IErMin= 7 ErrMin= 5.45D-06
 ErrMax= 5.45D-06  0.00D+00 EMaxC= 1.00D-01 BMatC= 5.63D-10 BMatP= 7.45D-09
 IDIUse=1 WtCom= 1.00D+00 WtEn= 0.00D+00
 Coeff-Com:  0.881D-03-0.342D-03-0.109D-01 0.376D-01-0.176D+00-0.126D+00
 Coeff-Com:  0.127D+01
 Coeff:      0.881D-03-0.342D-03-0.109D-01 0.376D-01-0.176D+00-0.126D+00
 Coeff:      0.127D+01
 Gap=     0.667 Goal=   None    Shift=    0.000
 RMSDP=2.00D-06 MaxDP=1.28D-05 DE=-9.59D-09 OVMax= 1.90D-05

 Cycle   8  Pass 1  IDiag  1:
 E= -33.6562348177354     Delta-E=       -0.000000001439 Rises=F Damp=F
 DIIS: error= 9.87D-07 at cycle   8 NSaved=   8.
 NSaved= 8 IEnMin= 8 EnMin= -33.6562348177354     IErMin= 8 ErrMin= 9.87D-07
 ErrMax= 9.87D-07  0.00D+00 EMaxC= 1.00D-01 BMatC= 2.07D-11 BMatP= 5.63D-10
 IDIUse=1 WtCom= 1.00D+00 WtEn= 0.00D+00
 Coeff-Com: -0.155D-05-0.199D-04-0.134D-04-0.719D-03 0.255D-01-0.154D-01
 Coeff-Com: -0.304D+00 0.130D+01
 Coeff:     -0.155D-05-0.199D-04-0.134D-04-0.719D-03 0.255D-01-0.154D-01
 Coeff:     -0.304D+00 0.130D+01
 Gap=     0.667 Goal=   None    Shift=    0.000
 RMSDP=4.95D-07 MaxDP=2.79D-06 DE=-1.44D-09 OVMax= 3.72D-06

 Cycle   9  Pass 1  IDiag  1:
 E= -33.6562348177924     Delta-E=       -0.000000000057 Rises=F Damp=F
 DIIS: error= 1.22D-07 at cycle   9 NSaved=   9.
 NSaved= 9 IEnMin= 9 EnMin= -33.6562348177924     IErMin= 9 ErrMin= 1.22D-07
 ErrMax= 1.22D-07  0.00D+00 EMaxC= 1.00D-01 BMatC= 5.32D-13 BMatP= 2.07D-11
 IDIUse=1 WtCom= 1.00D+00 WtEn= 0.00D+00
 Coeff-Com:  0.497D-05 0.465D-05-0.435D-04 0.387D-03-0.970D-02 0.637D-02
 Coeff-Com:  0.116D+00-0.551D+00 0.144D+01
 Coeff:      0.497D-05 0.465D-05-0.435D-04 0.387D-03-0.970D-02 0.637D-02
 Coeff:      0.116D+00-0.551D+00 0.144D+01
 Gap=     0.667 Goal=   None    Shift=    0.000
 RMSDP=1.06D-07 MaxDP=4.41D-07 DE=-5.70D-11 OVMax= 7.07D-07

 Cycle  10  Pass 1  IDiag  1:
 E= -33.6562348177937     Delta-E=       -0.000000000001 Rises=F Damp=F
 DIIS: error= 9.08D-09 at cycle  10 NSaved=  10.
 NSaved=10 IEnMin=10 EnMin= -33.6562348177937     IErMin=10 ErrMin= 9.08D-09
 ErrMax= 9.08D-09  0.00D+00 EMaxC= 1.00D-01 BMatC= 3.39D-15 BMatP= 5.32D-13
 IDIUse=1 WtCom= 1.00D+00 WtEn= 0.00D+00
 Coeff-Com:  0.547D-07-0.140D-05-0.492D-05-0.369D-04 0.199D-02-0.162D-02
 Coeff-Com: -0.249D-01 0.122D+00-0.384D+00 0.129D+01
 Coeff:      0.547D-07-0.140D-05-0.492D-05-0.369D-04 0.199D-02-0.162D-02
 Coeff:     -0.249D-01 0.122D+00-0.384D+00 0.129D+01
 Gap=     0.667 Goal=   None    Shift=    0.000
 RMSDP=1.24D-08 MaxDP=5.77D-08 DE=-1.35D-12 OVMax= 7.47D-08

 Cycle  11  Pass 1  IDiag  1:
 E= -33.6562348177938     Delta-E=       -0.000000000000 Rises=F Damp=F
 DIIS: error= 5.51D-10 at cycle  11 NSaved=  11.
 NSaved=11 IEnMin=11 EnMin= -33.6562348177938     IErMin=11 ErrMin= 5.51D-10
 ErrMax= 5.51D-10  0.00D+00 EMaxC= 1.00D-01 BMatC= 9.32D-18 BMatP= 3.39D-15
 IDIUse=1 WtCom= 1.00D+00 WtEn= 0.00D+00
 Coeff-Com: -0.721D-07 0.235D-06 0.150D-05 0.325D-05-0.303D-03 0.262D-03
 Coeff-Com:  0.386D-02-0.192D-01 0.620D-01-0.239D+00 0.119D+01
 Coeff:     -0.721D-07 0.235D-06 0.150D-05 0.325D-05-0.303D-03 0.262D-03
 Coeff:      0.386D-02-0.192D-01 0.620D-01-0.239D+00 0.119D+01
 Gap=     0.667 Goal=   None    Shift=    0.000
 RMSDP=4.55D-10 MaxDP=2.70D-09 DE=-5.68D-14 OVMax= 2.33D-09

 SCF Done:  E(RHF) =  -33.6562348178     A.U. after   11 cycles
            NFock= 11  Conv=0.46D-09     -V/T= 2.2567
 KE= 2.678070483211D+01 PE=-1.253731751249D+02 EE= 4.305301404847D+01
 Leave Link  502 at Sun Dec 10 06:19:20 2023, MaxMem=   536870912 cpu:               0.3 elap:               0.1
 (Enter /usr/site/hpc/x86_64/glibc-2.17/broadwell/gaussian/g16_a.03/pgi-16.5/g16/l801.exe)
 Windowed orbitals will be sorted by symmetry type.
 Range of M.O.s used for correlation:     1    24
 NBasis=    24 NAE=     8 NBE=     8 NFC=     0 NFV=     0
 NROrb=     24 NOA=     8 NOB=     8 NVA=    16 NVB=    16
 Leave Link  801 at Sun Dec 10 06:19:20 2023, MaxMem=   536870912 cpu:               0.1 elap:               0.0
 (Enter /usr/site/hpc/x86_64/glibc-2.17/broadwell/gaussian/g16_a.03/pgi-16.5/g16/l804.exe)
 Closed-shell transformation, MDV=   536870912 ITran=4 ISComp=2.
 Unit  1 TFree=       1025975 TCopy=        210600.
 Semi-Direct transformation.
 ModeAB=           2 MOrb=             8 LenV=     536741969
 LASXX=        22470 LTotXX=       22470 LenRXX=       22470
 LTotAB=       26208 MaxLAS=       57600 LenRXY=       57600
 NonZer=       62016 LenScr=      524288 LnRSAI=           0
 LnScr1=           0 LExtra=           0 Total=       604358
 MaxDsk=          -1 SrtSym=           F ITran=            4
 DoSDTr:  NPSUse=  4
 JobTyp=0 Pass  1:  I=   1 to   8.
 (rs|ai) integrals will be sorted in core.
 Complete sort for first half transformation.
 First half transformation complete.
 Complete sort for second half transformation.
 Second half transformation complete.
 Spin components of T(2) and E(2):
     alpha-alpha T2 =       0.9070906535D-02 E2=     -0.2593669573D-01
     alpha-beta  T2 =       0.5976274602D-01 E2=     -0.1764986717D+00
     beta-beta   T2 =       0.9070906535D-02 E2=     -0.2593669573D-01
 ANorm=    0.1038221826D+01
 E2 =    -0.2283720631D+00 EUMP2 =    -0.33884606880919D+02
 Leave Link  804 at Sun Dec 10 06:19:20 2023, MaxMem=   536870912 cpu:               0.2 elap:               0.1
 (Enter /usr/site/hpc/x86_64/glibc-2.17/broadwell/gaussian/g16_a.03/pgi-16.5/g16/l913.exe)
 CIDS:  MDV=   536870912.
 IFCWin=0 IBDFC=1 NFBD=     0     0 NFCmp=     0     0 NFFFC=     0     0
 Using DD3R+UMP44R for 1st iteration.
 Using DD4RQ for 2nd and later iterations.
 Keep R2 and R3 ints in memory in symmetry-blocked form, NReq=864938.
 FoFCou: FMM=F IPFlag=           0 FMFlag=           0 FMFlg1=           0
         NFxFlg=           0 DoJE=F BraDBF=F KetDBF=F FulRan=T
         wScrn=  0.000000 ICntrl=       600 IOpCl=  0 I1Cent=           0 NGrid=           0
         NMat0=    1 NMatS0=    300 NMatT0=    0 NMatD0=    1 NMtDS0=    0 NMtDT0=    0
 Petite list used in FoFCou.
 CIDS: In Core Option IDoMem=           1.
 CCSD(T)
 =======
 Iterations=  50 Convergence= 0.100D-06
 Produce multiple copies of IABC intergrals
 Iteration Nr.   1
 **********************
 DD1Dir will call FoFMem   1 times, MxPair=        72
 NAB=    36 NAA=     0 NBB=     0.
 MP4(R+Q)= -0.75435055D-03
 Maximum subspace dimension=  5
 A-vector RMS=  5.7958265D-03 Max=  1.3089526D-02 conv= 1.00D-05.
 RLE energy=       -0.2343511467
 E3=       -0.53493571D-02        EUMP3=      -0.33889956238D+02
 E4(DQ)=   -0.58932315D-02        UMP4(DQ)=   -0.33895849470D+02
 E4(SDQ)=  -0.79458505D-02        UMP4(SDQ)=  -0.33897902089D+02
 VARIATIONAL ENERGIES WITH THE FIRST-ORDER WAVEFUNCTION:
 DE(Corr)= -0.23419895     E(Corr)=     -33.890433763    
 NORM(A)=   0.10416251D+01
 Iteration Nr.   2
 **********************
 DD1Dir will call FoFMem   1 times, MxPair=        72
 NAB=    36 NAA=     0 NBB=     0.
 A-vector RMS=  9.7562536D-04 Max=  2.6581733D-03 conv= 1.00D-05.
 RLE energy=       -0.2421043779
 DE(Corr)= -0.24017780     E(CORR)=     -33.896412623     Delta=-5.98D-03
 NORM(A)=   0.10453943D+01
 Iteration Nr.   3
 **********************
 DD1Dir will call FoFMem   1 times, MxPair=        72
 NAB=    36 NAA=     0 NBB=     0.
 A-vector RMS=  3.8124029D-04 Max=  9.0036575D-04 conv= 1.00D-05.
 RLE energy=       -0.2426545217
 DE(Corr)= -0.24220706     E(CORR)=     -33.898441880     Delta=-2.03D-03
 NORM(A)=   0.10459498D+01
 Iteration Nr.   4
 **********************
 DD1Dir will call FoFMem   1 times, MxPair=        72
 NAB=    36 NAA=     0 NBB=     0.
 A-vector RMS=  9.3679339D-05 Max=  2.5497612D-04 conv= 1.00D-05.
 RLE energy=       -0.2427015995
 DE(Corr)= -0.24266607     E(CORR)=     -33.898900886     Delta=-4.59D-04
 NORM(A)=   0.10460207D+01
 Iteration Nr.   5
 **********************
 DD1Dir will call FoFMem   1 times, MxPair=        72
 NAB=    36 NAA=     0 NBB=     0.
 A-vector RMS=  4.0663300D-05 Max=  1.1549741D-04 conv= 1.00D-05.
 RLE energy=       -0.2427005351
 DE(Corr)= -0.24269805     E(CORR)=     -33.898932870     Delta=-3.20D-05
 NORM(A)=   0.10460302D+01
 Iteration Nr.   6
 **********************
 DD1Dir will call FoFMem   1 times, MxPair=        72
 NAB=    36 NAA=     0 NBB=     0.
 A-vector RMS=  1.3852891D-05 Max=  4.9332325D-05 conv= 1.00D-05.
 RLE energy=       -0.2426981773
 DE(Corr)= -0.24270044     E(CORR)=     -33.898935257     Delta=-2.39D-06
 NORM(A)=   0.10460329D+01
 Iteration Nr.   7
 **********************
 DD1Dir will call FoFMem   1 times, MxPair=        72
 NAB=    36 NAA=     0 NBB=     0.
 A-vector RMS=  4.4874254D-06 Max=  1.3278863D-05 conv= 1.00D-05.
 RLE energy=       -0.2426998098
 DE(Corr)= -0.24269994     E(CORR)=     -33.898934756     Delta= 5.01D-07
 NORM(A)=   0.10460345D+01
 Iteration Nr.   8
 **********************
 DD1Dir will call FoFMem   1 times, MxPair=        72
 NAB=    36 NAA=     0 NBB=     0.
 A-vector RMS=  1.4301508D-06 Max=  4.6062657D-06 conv= 1.00D-05.
 RLE energy=       -0.2426995827
 DE(Corr)= -0.24269972     E(CORR)=     -33.898934539     Delta= 2.18D-07
 NORM(A)=   0.10460348D+01
 Iteration Nr.   9
 **********************
 DD1Dir will call FoFMem   1 times, MxPair=        72
 NAB=    36 NAA=     0 NBB=     0.
 A-vector RMS=  3.4012440D-07 Max=  1.5239433D-06 conv= 1.00D-05.
 RLE energy=       -0.2426997826
 DE(Corr)= -0.24269981     E(CORR)=     -33.898934632     Delta=-9.32D-08
 NORM(A)=   0.10460350D+01
 CI/CC converged in    9 iterations to DelEn=-9.32D-08 Conv= 1.00D-07 ErrA1= 3.40D-07 Conv= 1.00D-05
 Wavefunction amplitudes converged. E(Corr)=     -33.898934632    
 Largest amplitude= 5.72D-02
 IPart=  4 IA=    2   12.50% done.
 IPart=  1 IA=    3   24.17% done.
 IPart=  2 IA=    4   35.00% done.
 IPart=  1 IA=    5   45.00% done.
 IPart=  2 IA=    6   54.17% done.
 IPart=  4 IA=    7   62.50% done.
 IPart=  3 IA=    8   70.00% done.
 IPart=  4 IA=   10   82.50% done.
 IPart=  3 IA=   12   91.67% done.
 Time for triples=        0.25 seconds.
 T4(CCSD)= -0.31120423D-02
 T5(CCSD)=  0.53188073D-03
 CCSD(T)= -0.33901514793D+02
 Discarding MO integrals.
 Leave Link  913 at Sun Dec 10 06:19:20 2023, MaxMem=   536870912 cpu:               0.9 elap:               0.2
 (Enter /usr/site/hpc/x86_64/glibc-2.17/broadwell/gaussian/g16_a.03/pgi-16.5/g16/l601.exe)
 Copying SCF densities to generalized density rwf, IOpCl= 0 IROHF=0.

 **********************************************************************

            Population analysis using the SCF density.

 **********************************************************************

 Orbital symmetries:
       Occupied  (A') (A') (A') (A') (A') (A') (A") (A")
       Virtual   (A') (A') (A') (A') (A") (A") (A') (A') (A') (A')
                 (A') (A') (A') (A') (A') (A')
 The electronic state is 1-A'.
 Alpha  occ. eigenvalues --   -1.36922  -1.34046  -0.72588  -0.69698  -0.56921
 Alpha  occ. eigenvalues --   -0.53905  -0.51552  -0.48689
 Alpha virt. eigenvalues --    0.18045   0.22855   0.29331   0.32774   0.78972
 Alpha virt. eigenvalues --    0.81838   0.82929   0.84647   0.86815   0.87759
 Alpha virt. eigenvalues --    1.16031   1.19554   1.20603   1.29679   2.55513
 Alpha virt. eigenvalues --    2.65876
          Condensed to atoms (all electrons):
               1          2          3          4          5          6
     1  O    6.228317   0.267522   0.263857  -0.000245   0.000025   0.000003
     2  H    0.267522   0.364703  -0.022797   0.001593  -0.000096  -0.000015
     3  H    0.263857  -0.022797   0.389889   0.000002   0.000000   0.000000
     4  O   -0.000245   0.001593   0.000002   6.223298   0.264687   0.267220
     5  H    0.000025  -0.000096   0.000000   0.264687   0.380426  -0.022853
     6  H    0.000003  -0.000015   0.000000   0.267220  -0.022853   0.375558
 Mulliken charges:
               1
     1  O   -0.759479
     2  H    0.389089
     3  H    0.369050
     4  O   -0.756557
     5  H    0.377811
     6  H    0.380086
 Sum of Mulliken charges =  -0.00000
 Mulliken charges with hydrogens summed into heavy atoms:
               1
     1  O   -0.001340
     4  O    0.001340
 Electronic spatial extent (au):  <R**2>=            279.0588
 Charge=              0.0000 electrons
 Dipole moment (field-independent basis, Debye):
    X=              0.6132    Y=             -3.8363    Z=              0.0000  Tot=              3.8850
 Quadrupole moment (field-independent basis, Debye-Ang):
   XX=             -9.8657   YY=             -7.9384   ZZ=            -14.9968
   XY=              7.6400   XZ=              0.0000   YZ=              0.0000
 Traceless Quadrupole moment (field-independent basis, Debye-Ang):
   XX=              1.0679   YY=              2.9953   ZZ=             -4.0632
   XY=              7.6400   XZ=              0.0000   YZ=              0.0000
 Octapole moment (field-independent basis, Debye-Ang**2):
  XXX=             -0.1228  YYY=            -47.4092  ZZZ=              0.0000  XYY=             11.6059
  XXY=             -1.5208  XXZ=              0.0000  XZZ=              0.1144  YZZ=             -0.7510
  YYZ=              0.0000  XYZ=              0.0000
 Hexadecapole moment (field-independent basis, Debye-Ang**3):
 XXXX=            -11.3393 YYYY=           -253.9470 ZZZZ=            -12.2368 XXXY=              3.7903
 XXXZ=              0.0000 YYYX=             28.8100 YYYZ=              0.0000 ZZZX=              0.0000
 ZZZY=              0.0000 XXYY=            -43.5215 XXZZ=             -4.5267 YYZZ=            -67.2353
 XXYZ=              0.0000 YYXZ=              0.0000 ZZXY=             -1.0053
 N-N= 2.188322142655D+01 E-N=-1.253731751252D+02  KE= 2.678070483211D+01
 Symmetry A'   KE= 1.790632204217D+01
 Symmetry A"   KE= 8.874382789935D+00
 Leave Link  601 at Sun Dec 10 06:19:20 2023, MaxMem=   536870912 cpu:               0.1 elap:               0.0
 (Enter /usr/site/hpc/x86_64/glibc-2.17/broadwell/gaussian/g16_a.03/pgi-16.5/g16/l9999.exe)
 1\1\GINC-N033\SP\RCCSD(T)-FC\CEP-31G\H4O2\ROOT\10-Dec-2023\0\\#p CCSD(
 T)/CEP-31G\\H2O_H2O_2574\\0,1\O,0,0.,-0.009833,0.\H,0,-0.799571,-0.580
 965,0.\H,0,0.799571,-0.580965,0.\O,0,-3.325966,-2.368706,0.\H,0,-3.897
 098,-1.569134,0.\H,0,-3.897098,-3.168277,0.\\Version=ES64L-G16RevA.03\
 State=1-A'\HF=-33.6562348\MP2=-33.8846069\MP3=-33.8899562\MP4D=-33.895
 0951\MP4DQ=-33.8958495\MP4SDQ=-33.8979021\CCSD=-33.8989346\CCSD(T)=-33
 .9015148\RMSD=4.550e-10\PG=CS [SG(H4O2)]\\@


 I (ERNEST RUTHERFORD) CAME INTO THE ROOM, WHICH WAS HALF DARK, AND PRESENTLY
 SPOTTED LORD KELVIN IN THE AUDIENCE AND REALIZED I WAS IN TROUBLE AT
 THE LAST PART OF MY SPEECH DEALING THE AGE OF THE EARTH, WHERE MY VIEWS
 CONFLICTED WITH HIS.  TO MY RELIEF KELVIN FELL FAST ASLEEP, BUT AS I CAME
 TO THE IMPORTANT POINT, I SAW THE OLD BIRD SIT UP AND COCK A BALEFUL GLANCE
 AT ME! THEN A SUDDEN INSPIRATION CAME AND I SAID LORD KELVIN HAD LIMITED
 THE AGE OF THE EARTH PROVIDED NO NEW SOURCE WAS DISCOVERED. THAT
 PROPHETIC UTTERANCE REFERS TO WHAT WE ARE NOW CONSIDERING TONIGHT, RADIUM!
 BEHOLD!  THE OLD BOY BEAMED UPON ME.
 Job cpu time:       0 days  0 hours  0 minutes  3.2 seconds.
 Elapsed time:       0 days  0 hours  0 minutes  1.0 seconds.
 File lengths (MBytes):  RWF=     72 Int=      0 D2E=      0 Chk=      8 Scr=      8
 Normal termination of Gaussian 16 at Sun Dec 10 06:19:20 2023.
