 Entering Gaussian System, Link 0=g16
 Input=H2O_H2O_688.com
 Output=H2O_H2O_688.log
 Initial command:
 /usr/site/hpc/x86_64/glibc-2.17/broadwell/gaussian/g16_a.03/pgi-16.5/g16/l1.exe "/gpfs/gpfs1/scratch/c7441090/OH Coord/Gau-1642049.inp" -scrdir="/gpfs/gpfs1/scratch/c7441090/OH Coord/"
 Entering Link 1 = /usr/site/hpc/x86_64/glibc-2.17/broadwell/gaussian/g16_a.03/pgi-16.5/g16/l1.exe PID=   1642050.
  
 Copyright (c) 1988,1990,1992,1993,1995,1998,2003,2009,2016,
            Gaussian, Inc.  All Rights Reserved.
  
 This is part of the Gaussian(R) 16 program.  It is based on
 the Gaussian(R) 09 system (copyright 2009, Gaussian, Inc.),
 the Gaussian(R) 03 system (copyright 2003, Gaussian, Inc.),
 the Gaussian(R) 98 system (copyright 1998, Gaussian, Inc.),
 the Gaussian(R) 94 system (copyright 1995, Gaussian, Inc.),
 the Gaussian 92(TM) system (copyright 1992, Gaussian, Inc.),
 the Gaussian 90(TM) system (copyright 1990, Gaussian, Inc.),
 the Gaussian 88(TM) system (copyright 1988, Gaussian, Inc.),
 the Gaussian 86(TM) system (copyright 1986, Carnegie Mellon
 University), and the Gaussian 82(TM) system (copyright 1983,
 Carnegie Mellon University). Gaussian is a federally registered
 trademark of Gaussian, Inc.
  
 This software contains proprietary and confidential information,
 including trade secrets, belonging to Gaussian, Inc.
  
 This software is provided under written license and may be
 used, copied, transmitted, or stored only in accord with that
 written license.
  
 The following legend is applicable only to US Government
 contracts under FAR:
  
                    RESTRICTED RIGHTS LEGEND
  
 Use, reproduction and disclosure by the US Government is
 subject to restrictions as set forth in subparagraphs (a)
 and (c) of the Commercial Computer Software - Restricted
 Rights clause in FAR 52.227-19.
  
 Gaussian, Inc.
 340 Quinnipiac St., Bldg. 40, Wallingford CT 06492
  
  
 ---------------------------------------------------------------
 Warning -- This program may not be used in any manner that
 competes with the business of Gaussian, Inc. or will provide
 assistance to any competitor of Gaussian, Inc.  The licensee
 of this program is prohibited from giving any competitor of
 Gaussian, Inc. access to this program.  By using this program,
 the user acknowledges that Gaussian, Inc. is engaged in the
 business of creating and licensing software in the field of
 computational chemistry and represents and warrants to the
 licensee that it is not a competitor of Gaussian, Inc. and that
 it will not use this program in any manner prohibited above.
 ---------------------------------------------------------------
  

 Cite this work as:
 Gaussian 16, Revision A.03,
 M. J. Frisch, G. W. Trucks, H. B. Schlegel, G. E. Scuseria, 
 M. A. Robb, J. R. Cheeseman, G. Scalmani, V. Barone, 
 G. A. Petersson, H. Nakatsuji, X. Li, M. Caricato, A. V. Marenich, 
 J. Bloino, B. G. Janesko, R. Gomperts, B. Mennucci, H. P. Hratchian, 
 J. V. Ortiz, A. F. Izmaylov, J. L. Sonnenberg, D. Williams-Young, 
 F. Ding, F. Lipparini, F. Egidi, J. Goings, B. Peng, A. Petrone, 
 T. Henderson, D. Ranasinghe, V. G. Zakrzewski, J. Gao, N. Rega, 
 G. Zheng, W. Liang, M. Hada, M. Ehara, K. Toyota, R. Fukuda, 
 J. Hasegawa, M. Ishida, T. Nakajima, Y. Honda, O. Kitao, H. Nakai, 
 T. Vreven, K. Throssell, J. A. Montgomery, Jr., J. E. Peralta, 
 F. Ogliaro, M. J. Bearpark, J. J. Heyd, E. N. Brothers, K. N. Kudin, 
 V. N. Staroverov, T. A. Keith, R. Kobayashi, J. Normand, 
 K. Raghavachari, A. P. Rendell, J. C. Burant, S. S. Iyengar, 
 J. Tomasi, M. Cossi, J. M. Millam, M. Klene, C. Adamo, R. Cammi, 
 J. W. Ochterski, R. L. Martin, K. Morokuma, O. Farkas, 
 J. B. Foresman, and D. J. Fox, Gaussian, Inc., Wallingford CT, 2016.
 
 ******************************************
 Gaussian 16:  ES64L-G16RevA.03 25-Dec-2016
                10-Dec-2023 
 ******************************************
 %NProcShared=4
 Will use up to    4 processors via shared memory.
 %Mem=4GB
 %Chk=H2O_H2O_688.chk
 ------------------
 #p CCSD(T)/CEP-31G
 ------------------
 1/38=1,172=1/1;
 2/12=2,17=6,18=5,40=1/2;
 3/5=9,6=1,11=9,25=1,30=1/1,2,3;
 4//1;
 5/5=2,38=5/2;
 8/6=4,9=120000,10=1/1,4;
 9/5=7,14=2/13;
 6/7=2,8=2,9=2,10=2/1;
 99/5=1,9=1/99;
 Leave Link    1 at Sun Dec 10 06:31:26 2023, MaxMem=   536870912 cpu:               0.2 elap:               0.1
 (Enter /usr/site/hpc/x86_64/glibc-2.17/broadwell/gaussian/g16_a.03/pgi-16.5/g16/l101.exe)
 -----------
 H2O_H2O_688
 -----------
 Symbolic Z-matrix:
 Charge =  0 Multiplicity = 1
 O                     0.       -0.00983   0. 
 H                    -0.79957  -0.58097   0. 
 H                     0.79957  -0.58097   0. 
 O                    -2.10636  -1.50577   0. 
 H                    -3.06295  -1.28119   0. 
 H                    -2.00856  -2.48349   0. 
 
 ITRead=  0  0  0  0  0  0
 MicOpt= -1 -1 -1 -1 -1 -1
 NAtoms=      6 NQM=        6 NQMF=       0 NMMI=      0 NMMIF=      0
                NMic=       0 NMicF=      0.
                    Isotopes and Nuclear Properties:
 (Nuclear quadrupole moments (NQMom) in fm**2, nuclear magnetic moments (NMagM)
  in nuclear magnetons)

  Atom         1           2           3           4           5           6
 IAtWgt=          16           1           1          16           1           1
 AtmWgt=  15.9949146   1.0078250   1.0078250  15.9949146   1.0078250   1.0078250
 NucSpn=           0           1           1           0           1           1
 AtZEff=  -0.0000000  -0.0000000  -0.0000000  -0.0000000  -0.0000000  -0.0000000
 NQMom=    0.0000000   0.0000000   0.0000000   0.0000000   0.0000000   0.0000000
 NMagM=    0.0000000   2.7928460   2.7928460   0.0000000   2.7928460   2.7928460
 AtZNuc=   8.0000000   1.0000000   1.0000000   8.0000000   1.0000000   1.0000000
 Leave Link  101 at Sun Dec 10 06:31:26 2023, MaxMem=   536870912 cpu:               0.3 elap:               0.1
 (Enter /usr/site/hpc/x86_64/glibc-2.17/broadwell/gaussian/g16_a.03/pgi-16.5/g16/l202.exe)
                          Input orientation:                          
 ---------------------------------------------------------------------
 Center     Atomic      Atomic             Coordinates (Angstroms)
 Number     Number       Type             X           Y           Z
 ---------------------------------------------------------------------
      1          8           0        0.000000   -0.009833    0.000000
      2          1           0       -0.799571   -0.580965    0.000000
      3          1           0        0.799571   -0.580965    0.000000
      4          8           0       -2.106358   -1.505769    0.000000
      5          1           0       -3.062952   -1.281193    0.000000
      6          1           0       -2.008564   -2.483492    0.000000
 ---------------------------------------------------------------------
                    Distance matrix (angstroms):
                    1          2          3          4          5
     1  O    0.000000
     2  H    0.982601   0.000000
     3  H    0.982601   1.599142   0.000000
     4  O    2.583519   1.600923   3.049539   0.000000
     5  H    3.316328   2.369222   3.925481   0.982602   0.000000
     6  H    3.186427   2.254168   3.391936   0.982602   1.599143
                    6
     6  H    0.000000
 Stoichiometry    H4O2
 Framework group  CS[SG(H4O2)]
 Deg. of freedom     9
 Full point group                 CS      NOp   2
 Largest Abelian subgroup         CS      NOp   2
 Largest concise Abelian subgroup C1      NOp   1
                         Standard orientation:                         
 ---------------------------------------------------------------------
 Center     Atomic      Atomic             Coordinates (Angstroms)
 Number     Number       Type             X           Y           Z
 ---------------------------------------------------------------------
      1          8           0        0.052403    1.381644   -0.000000
      2          1           0        0.049732    0.399046   -0.000000
      3          1           0       -0.876220    1.702836   -0.000000
      4          8           0        0.052403   -1.201875    0.000000
      5          1           0        0.789399   -1.851755    0.000000
      6          1           0       -0.801366   -1.688274    0.000000
 ---------------------------------------------------------------------
 Rotational constants (GHZ):         242.4568132           8.0182545           7.7615726
 Leave Link  202 at Sun Dec 10 06:31:27 2023, MaxMem=   536870912 cpu:               0.1 elap:               0.0
 (Enter /usr/site/hpc/x86_64/glibc-2.17/broadwell/gaussian/g16_a.03/pgi-16.5/g16/l301.exe)
 Standard basis: CEP-31G (6D, 10F)
 Ernie: Thresh=  0.10000D-02 Tol=  0.10000D-05 Strict=F.
 There are    20 symmetry adapted cartesian basis functions of A'  symmetry.
 There are     4 symmetry adapted cartesian basis functions of A"  symmetry.
 There are    20 symmetry adapted basis functions of A'  symmetry.
 There are     4 symmetry adapted basis functions of A"  symmetry.
    24 basis functions,    48 primitive gaussians,    24 cartesian basis functions
     8 alpha electrons        8 beta electrons
       nuclear repulsion energy        26.6879627597 Hartrees.
 IExCor=    0 DFT=F Ex=HF Corr=None ExCW=0 ScaHFX=  1.000000
 ScaDFX=  1.000000  1.000000  1.000000  1.000000 ScalE2=  1.000000  1.000000
 IRadAn=      5 IRanWt=     -1 IRanGd=            0 ICorTp=0 IEmpDi=  4
 NAtoms=    6 NActive=    6 NUniq=    6 SFac= 1.00D+00 NAtFMM=   60 NAOKFM=F Big=F
 Integral buffers will be    131072 words long.
 Raffenetti 1 integral format.
 Two-electron integral symmetry is turned on.
 Leave Link  301 at Sun Dec 10 06:31:27 2023, MaxMem=   536870912 cpu:               0.2 elap:               0.1
 (Enter /usr/site/hpc/x86_64/glibc-2.17/broadwell/gaussian/g16_a.03/pgi-16.5/g16/l302.exe)
 NPDir=0 NMtPBC=     1 NCelOv=     1 NCel=       1 NClECP=     1 NCelD=      1
         NCelK=      1 NCelE2=     1 NClLst=     1 CellRange=     0.0.
 One-electron integrals computed using PRISM.
 One-electron integral symmetry used in STVInt
   2 Symmetry operations used in ECPInt.
 ECPInt:  NShTT=      78 NPrTT=     318 LenC2=      79 LenP2D=     295.
 LDataN:  DoStor=T MaxTD1= 2 Len=   12
 NBasis=    24 RedAO= T EigKep=  1.12D-02  NBF=    20     4
 NBsUse=    24 1.00D-06 EigRej= -1.00D+00 NBFU=    20     4
 Leave Link  302 at Sun Dec 10 06:31:27 2023, MaxMem=   536870912 cpu:               0.3 elap:               0.1
 (Enter /usr/site/hpc/x86_64/glibc-2.17/broadwell/gaussian/g16_a.03/pgi-16.5/g16/l303.exe)
 DipDrv:  MaxL=1.
 Leave Link  303 at Sun Dec 10 06:31:27 2023, MaxMem=   536870912 cpu:               0.1 elap:               0.0
 (Enter /usr/site/hpc/x86_64/glibc-2.17/broadwell/gaussian/g16_a.03/pgi-16.5/g16/l401.exe)
 ExpMin= 1.78D-01 ExpMax= 1.92D+01 ExpMxC= 1.92D+01 IAcc=3 IRadAn=         5 AccDes= 0.00D+00
 Harris functional with IExCor=  205 and IRadAn=       5 diagonalized for initial guess.
 HarFok:  IExCor=  205 AccDes= 0.00D+00 IRadAn=         5 IDoV= 1 UseB2=F ITyADJ=14
 ICtDFT=  3500011 ScaDFX=  1.000000  1.000000  1.000000  1.000000
 FoFCou: FMM=F IPFlag=           0 FMFlag=      100000 FMFlg1=           0
         NFxFlg=           0 DoJE=T BraDBF=F KetDBF=T FulRan=T
         wScrn=  0.000000 ICntrl=       500 IOpCl=  0 I1Cent=   200000004 NGrid=           0
         NMat0=    1 NMatS0=      1 NMatT0=    0 NMatD0=    1 NMtDS0=    0 NMtDT0=    0
 Petite list used in FoFCou.
 Harris En= -34.4888148710866    
 JPrj=0 DoOrth=F DoCkMO=F.
 Initial guess orbital symmetries:
       Occupied  (A') (A') (A') (A') (A') (A') (A") (A")
       Virtual   (A') (A') (A') (A') (A") (A') (A') (A") (A') (A')
                 (A') (A') (A') (A') (A') (A')
 The electronic state of the initial guess is 1-A'.
 Leave Link  401 at Sun Dec 10 06:31:27 2023, MaxMem=   536870912 cpu:               0.4 elap:               0.1
 (Enter /usr/site/hpc/x86_64/glibc-2.17/broadwell/gaussian/g16_a.03/pgi-16.5/g16/l502.exe)
 Keep R1 ints in memory in symmetry-blocked form, NReq=852667.
 FoFCou: FMM=F IPFlag=           0 FMFlag=           0 FMFlg1=           0
         NFxFlg=           0 DoJE=F BraDBF=F KetDBF=F FulRan=T
         wScrn=  0.000000 ICntrl=       600 IOpCl=  0 I1Cent=           0 NGrid=           0
         NMat0=    1 NMatS0=    300 NMatT0=    0 NMatD0=    1 NMtDS0=    0 NMtDT0=    0
 Petite list used in FoFCou.
 Closed shell SCF:
 Using DIIS extrapolation, IDIIS=  1040.
 NGot=   536870912 LenX=   536840576 LenY=   536839559
 Requested convergence on RMS density matrix=1.00D-08 within 128 cycles.
 Requested convergence on MAX density matrix=1.00D-06.
 Requested convergence on             energy=1.00D-06.
 No special actions if energy rises.

 Cycle   1  Pass 1  IDiag  1:
 E= -33.5718429754675    
 DIIS: error= 5.18D-02 at cycle   1 NSaved=   1.
 NSaved= 1 IEnMin= 1 EnMin= -33.5718429754675     IErMin= 1 ErrMin= 5.18D-02
 ErrMax= 5.18D-02  0.00D+00 EMaxC= 1.00D-01 BMatC= 9.39D-02 BMatP= 9.39D-02
 IDIUse=3 WtCom= 4.82D-01 WtEn= 5.18D-01
 Coeff-Com:  0.100D+01
 Coeff-En:   0.100D+01
 Coeff:      0.100D+01
 Gap=     0.538 Goal=   None    Shift=    0.000
 GapD=    0.538 DampG=2.000 DampE=0.500 DampFc=1.0000 IDamp=-1.
 RMSDP=1.65D-02 MaxDP=1.31D-01              OVMax= 1.01D-01

 Cycle   2  Pass 1  IDiag  1:
 E= -33.6330039487067     Delta-E=       -0.061160973239 Rises=F Damp=F
 DIIS: error= 3.33D-02 at cycle   2 NSaved=   2.
 NSaved= 2 IEnMin= 2 EnMin= -33.6330039487067     IErMin= 2 ErrMin= 3.33D-02
 ErrMax= 3.33D-02  0.00D+00 EMaxC= 1.00D-01 BMatC= 3.20D-02 BMatP= 9.39D-02
 IDIUse=3 WtCom= 6.67D-01 WtEn= 3.33D-01
 Coeff-Com:  0.365D+00 0.635D+00
 Coeff-En:   0.475D-01 0.952D+00
 Coeff:      0.259D+00 0.741D+00
 Gap=     0.625 Goal=   None    Shift=    0.000
 RMSDP=6.23D-03 MaxDP=5.72D-02 DE=-6.12D-02 OVMax= 3.64D-02

 Cycle   3  Pass 1  IDiag  1:
 E= -33.6583960961059     Delta-E=       -0.025392147399 Rises=F Damp=F
 DIIS: error= 5.69D-03 at cycle   3 NSaved=   3.
 NSaved= 3 IEnMin= 3 EnMin= -33.6583960961059     IErMin= 3 ErrMin= 5.69D-03
 ErrMax= 5.69D-03  0.00D+00 EMaxC= 1.00D-01 BMatC= 9.11D-04 BMatP= 3.20D-02
 IDIUse=3 WtCom= 9.43D-01 WtEn= 5.69D-02
 Coeff-Com: -0.102D+00 0.603D-02 0.110D+01
 Coeff-En:   0.000D+00 0.000D+00 0.100D+01
 Coeff:     -0.965D-01 0.569D-02 0.109D+01
 Gap=     0.615 Goal=   None    Shift=    0.000
 RMSDP=1.29D-03 MaxDP=1.05D-02 DE=-2.54D-02 OVMax= 8.27D-03

 Cycle   4  Pass 1  IDiag  1:
 E= -33.6592840933622     Delta-E=       -0.000887997256 Rises=F Damp=F
 DIIS: error= 5.30D-04 at cycle   4 NSaved=   4.
 NSaved= 4 IEnMin= 4 EnMin= -33.6592840933622     IErMin= 4 ErrMin= 5.30D-04
 ErrMax= 5.30D-04  0.00D+00 EMaxC= 1.00D-01 BMatC= 6.10D-06 BMatP= 9.11D-04
 IDIUse=3 WtCom= 9.95D-01 WtEn= 5.30D-03
 Coeff-Com:  0.290D-02-0.218D-01-0.125D+00 0.114D+01
 Coeff-En:   0.000D+00 0.000D+00 0.000D+00 0.100D+01
 Coeff:      0.288D-02-0.216D-01-0.124D+00 0.114D+01
 Gap=     0.618 Goal=   None    Shift=    0.000
 RMSDP=2.20D-04 MaxDP=1.78D-03 DE=-8.88D-04 OVMax= 1.11D-03

 Cycle   5  Pass 1  IDiag  1:
 E= -33.6592955276205     Delta-E=       -0.000011434258 Rises=F Damp=F
 DIIS: error= 1.42D-04 at cycle   5 NSaved=   5.
 NSaved= 5 IEnMin= 5 EnMin= -33.6592955276205     IErMin= 5 ErrMin= 1.42D-04
 ErrMax= 1.42D-04  0.00D+00 EMaxC= 1.00D-01 BMatC= 1.01D-06 BMatP= 6.10D-06
 IDIUse=3 WtCom= 9.99D-01 WtEn= 1.42D-03
 Coeff-Com:  0.130D-01-0.626D-02-0.161D+00 0.325D+00 0.830D+00
 Coeff-En:   0.000D+00 0.000D+00 0.000D+00 0.000D+00 0.100D+01
 Coeff:      0.130D-01-0.625D-02-0.161D+00 0.324D+00 0.830D+00
 Gap=     0.618 Goal=   None    Shift=    0.000
 RMSDP=6.07D-05 MaxDP=4.70D-04 DE=-1.14D-05 OVMax= 3.58D-04

 Cycle   6  Pass 1  IDiag  1:
 E= -33.6592967923434     Delta-E=       -0.000001264723 Rises=F Damp=F
 DIIS: error= 3.50D-05 at cycle   6 NSaved=   6.
 NSaved= 6 IEnMin= 6 EnMin= -33.6592967923434     IErMin= 6 ErrMin= 3.50D-05
 ErrMax= 3.50D-05  0.00D+00 EMaxC= 1.00D-01 BMatC= 2.12D-08 BMatP= 1.01D-06
 IDIUse=1 WtCom= 1.00D+00 WtEn= 0.00D+00
 Coeff-Com: -0.339D-02 0.212D-02 0.445D-01-0.136D+00-0.177D+00 0.127D+01
 Coeff:     -0.339D-02 0.212D-02 0.445D-01-0.136D+00-0.177D+00 0.127D+01
 Gap=     0.618 Goal=   None    Shift=    0.000
 RMSDP=1.51D-05 MaxDP=1.38D-04 DE=-1.26D-06 OVMax= 8.78D-05

 Cycle   7  Pass 1  IDiag  1:
 E= -33.6592968420594     Delta-E=       -0.000000049716 Rises=F Damp=F
 DIIS: error= 5.19D-06 at cycle   7 NSaved=   7.
 NSaved= 7 IEnMin= 7 EnMin= -33.6592968420594     IErMin= 7 ErrMin= 5.19D-06
 ErrMax= 5.19D-06  0.00D+00 EMaxC= 1.00D-01 BMatC= 5.41D-10 BMatP= 2.12D-08
 IDIUse=1 WtCom= 1.00D+00 WtEn= 0.00D+00
 Coeff-Com:  0.960D-03-0.580D-03-0.126D-01 0.421D-01 0.442D-01-0.450D+00
 Coeff-Com:  0.138D+01
 Coeff:      0.960D-03-0.580D-03-0.126D-01 0.421D-01 0.442D-01-0.450D+00
 Coeff:      0.138D+01
 Gap=     0.618 Goal=   None    Shift=    0.000
 RMSDP=2.51D-06 MaxDP=1.43D-05 DE=-4.97D-08 OVMax= 2.13D-05

 Cycle   8  Pass 1  IDiag  1:
 E= -33.6592968435477     Delta-E=       -0.000000001488 Rises=F Damp=F
 DIIS: error= 9.58D-07 at cycle   8 NSaved=   8.
 NSaved= 8 IEnMin= 8 EnMin= -33.6592968435477     IErMin= 8 ErrMin= 9.58D-07
 ErrMax= 9.58D-07  0.00D+00 EMaxC= 1.00D-01 BMatC= 2.10D-11 BMatP= 5.41D-10
 IDIUse=1 WtCom= 1.00D+00 WtEn= 0.00D+00
 Coeff-Com: -0.618D-04 0.157D-04 0.733D-03-0.296D-02-0.172D-03 0.353D-01
 Coeff-Com: -0.268D+00 0.124D+01
 Coeff:     -0.618D-04 0.157D-04 0.733D-03-0.296D-02-0.172D-03 0.353D-01
 Coeff:     -0.268D+00 0.124D+01
 Gap=     0.618 Goal=   None    Shift=    0.000
 RMSDP=4.43D-07 MaxDP=2.87D-06 DE=-1.49D-09 OVMax= 4.12D-06

 Cycle   9  Pass 1  IDiag  1:
 E= -33.6592968436011     Delta-E=       -0.000000000053 Rises=F Damp=F
 DIIS: error= 2.04D-07 at cycle   9 NSaved=   9.
 NSaved= 9 IEnMin= 9 EnMin= -33.6592968436011     IErMin= 9 ErrMin= 2.04D-07
 ErrMax= 2.04D-07  0.00D+00 EMaxC= 1.00D-01 BMatC= 9.14D-13 BMatP= 2.10D-11
 IDIUse=1 WtCom= 1.00D+00 WtEn= 0.00D+00
 Coeff-Com:  0.997D-05 0.374D-05-0.870D-04 0.322D-03-0.541D-03-0.338D-02
 Coeff-Com:  0.592D-01-0.458D+00 0.140D+01
 Coeff:      0.997D-05 0.374D-05-0.870D-04 0.322D-03-0.541D-03-0.338D-02
 Coeff:      0.592D-01-0.458D+00 0.140D+01
 Gap=     0.618 Goal=   None    Shift=    0.000
 RMSDP=1.29D-07 MaxDP=6.55D-07 DE=-5.35D-11 OVMax= 1.11D-06

 Cycle  10  Pass 1  IDiag  1:
 E= -33.6592968436039     Delta-E=       -0.000000000003 Rises=F Damp=F
 DIIS: error= 2.79D-08 at cycle  10 NSaved=  10.
 NSaved=10 IEnMin=10 EnMin= -33.6592968436039     IErMin=10 ErrMin= 2.79D-08
 ErrMax= 2.79D-08  0.00D+00 EMaxC= 1.00D-01 BMatC= 1.83D-14 BMatP= 9.14D-13
 IDIUse=1 WtCom= 1.00D+00 WtEn= 0.00D+00
 Coeff-Com:  0.669D-07-0.252D-05-0.113D-04 0.427D-04 0.240D-03-0.525D-03
 Coeff-Com: -0.875D-02 0.994D-01-0.418D+00 0.133D+01
 Coeff:      0.669D-07-0.252D-05-0.113D-04 0.427D-04 0.240D-03-0.525D-03
 Coeff:     -0.875D-02 0.994D-01-0.418D+00 0.133D+01
 Gap=     0.618 Goal=   None    Shift=    0.000
 RMSDP=2.03D-08 MaxDP=1.17D-07 DE=-2.80D-12 OVMax= 1.61D-07

 Cycle  11  Pass 1  IDiag  1:
 E= -33.6592968436041     Delta-E=       -0.000000000000 Rises=F Damp=F
 DIIS: error= 3.12D-09 at cycle  11 NSaved=  11.
 NSaved=11 IEnMin=11 EnMin= -33.6592968436041     IErMin=11 ErrMin= 3.12D-09
 ErrMax= 3.12D-09  0.00D+00 EMaxC= 1.00D-01 BMatC= 2.52D-16 BMatP= 1.83D-14
 IDIUse=1 WtCom= 1.00D+00 WtEn= 0.00D+00
 Coeff-Com: -0.116D-06 0.634D-06 0.391D-05-0.149D-04-0.634D-04 0.181D-03
 Coeff-Com:  0.179D-02-0.233D-01 0.105D+00-0.407D+00 0.132D+01
 Coeff:     -0.116D-06 0.634D-06 0.391D-05-0.149D-04-0.634D-04 0.181D-03
 Coeff:      0.179D-02-0.233D-01 0.105D+00-0.407D+00 0.132D+01
 Gap=     0.618 Goal=   None    Shift=    0.000
 RMSDP=2.63D-09 MaxDP=1.89D-08 DE=-1.14D-13 OVMax= 2.07D-08

 SCF Done:  E(RHF) =  -33.6592968436     A.U. after   11 cycles
            NFock= 11  Conv=0.26D-08     -V/T= 2.2505
 KE= 2.691651920539D+01 PE=-1.351479465197D+02 EE= 4.788416771100D+01
 Leave Link  502 at Sun Dec 10 06:31:27 2023, MaxMem=   536870912 cpu:               0.3 elap:               0.1
 (Enter /usr/site/hpc/x86_64/glibc-2.17/broadwell/gaussian/g16_a.03/pgi-16.5/g16/l801.exe)
 Windowed orbitals will be sorted by symmetry type.
 Range of M.O.s used for correlation:     1    24
 NBasis=    24 NAE=     8 NBE=     8 NFC=     0 NFV=     0
 NROrb=     24 NOA=     8 NOB=     8 NVA=    16 NVB=    16
 Leave Link  801 at Sun Dec 10 06:31:27 2023, MaxMem=   536870912 cpu:               0.1 elap:               0.0
 (Enter /usr/site/hpc/x86_64/glibc-2.17/broadwell/gaussian/g16_a.03/pgi-16.5/g16/l804.exe)
 Closed-shell transformation, MDV=   536870912 ITran=4 ISComp=2.
 Unit  1 TFree=       1025975 TCopy=        210600.
 Semi-Direct transformation.
 ModeAB=           2 MOrb=             8 LenV=     536741538
 LASXX=        22470 LTotXX=       22470 LenRXX=       22470
 LTotAB=       26208 MaxLAS=       57600 LenRXY=       57600
 NonZer=       62208 LenScr=      524288 LnRSAI=           0
 LnScr1=           0 LExtra=           0 Total=       604358
 MaxDsk=          -1 SrtSym=           F ITran=            4
 DoSDTr:  NPSUse=  4
 JobTyp=0 Pass  1:  I=   1 to   8.
 (rs|ai) integrals will be sorted in core.
 Complete sort for first half transformation.
 First half transformation complete.
 Complete sort for second half transformation.
 Second half transformation complete.
 Spin components of T(2) and E(2):
     alpha-alpha T2 =       0.9204140284D-02 E2=     -0.2656089960D-01
     alpha-beta  T2 =       0.5889476683D-01 E2=     -0.1759761117D+00
     beta-beta   T2 =       0.9204140284D-02 E2=     -0.2656089960D-01
 ANorm=    0.1037932102D+01
 E2 =    -0.2290979109D+00 EUMP2 =    -0.33888394754525D+02
 Leave Link  804 at Sun Dec 10 06:31:27 2023, MaxMem=   536870912 cpu:               0.2 elap:               0.1
 (Enter /usr/site/hpc/x86_64/glibc-2.17/broadwell/gaussian/g16_a.03/pgi-16.5/g16/l913.exe)
 CIDS:  MDV=   536870912.
 IFCWin=0 IBDFC=1 NFBD=     0     0 NFCmp=     0     0 NFFFC=     0     0
 Using DD3R+UMP44R for 1st iteration.
 Using DD4RQ for 2nd and later iterations.
 Keep R2 and R3 ints in memory in symmetry-blocked form, NReq=865275.
 FoFCou: FMM=F IPFlag=           0 FMFlag=           0 FMFlg1=           0
         NFxFlg=           0 DoJE=F BraDBF=F KetDBF=F FulRan=T
         wScrn=  0.000000 ICntrl=       600 IOpCl=  0 I1Cent=           0 NGrid=           0
         NMat0=    1 NMatS0=    300 NMatT0=    0 NMatD0=    1 NMtDS0=    0 NMtDT0=    0
 Petite list used in FoFCou.
 CIDS: In Core Option IDoMem=           1.
 CCSD(T)
 =======
 Iterations=  50 Convergence= 0.100D-06
 Produce multiple copies of IABC intergrals
 Iteration Nr.   1
 **********************
 DD1Dir will call FoFMem   1 times, MxPair=        72
 NAB=    36 NAA=     0 NBB=     0.
 MP4(R+Q)= -0.64589797D-03
 Maximum subspace dimension=  5
 A-vector RMS=  5.9281520D-03 Max=  1.3114419D-02 conv= 1.00D-05.
 RLE energy=       -0.2340066712
 E3=       -0.44369968D-02        EUMP3=      -0.33892831751D+02
 E4(DQ)=   -0.56013348D-02        UMP4(DQ)=   -0.33898433086D+02
 E4(SDQ)=  -0.77631978D-02        UMP4(SDQ)=  -0.33900594949D+02
 VARIATIONAL ENERGIES WITH THE FIRST-ORDER WAVEFUNCTION:
 DE(Corr)= -0.23390404     E(Corr)=     -33.893200886    
 NORM(A)=   0.10409278D+01
 Iteration Nr.   2
 **********************
 DD1Dir will call FoFMem   1 times, MxPair=        72
 NAB=    36 NAA=     0 NBB=     0.
 A-vector RMS=  9.4769356D-04 Max=  2.2316620D-03 conv= 1.00D-05.
 RLE energy=       -0.2415680791
 DE(Corr)= -0.23978261     E(CORR)=     -33.899079458     Delta=-5.88D-03
 NORM(A)=   0.10445307D+01
 Iteration Nr.   3
 **********************
 DD1Dir will call FoFMem   1 times, MxPair=        72
 NAB=    36 NAA=     0 NBB=     0.
 A-vector RMS=  4.1029874D-04 Max=  1.2706958D-03 conv= 1.00D-05.
 RLE energy=       -0.2420996453
 DE(Corr)= -0.24165629     E(CORR)=     -33.900953137     Delta=-1.87D-03
 NORM(A)=   0.10450669D+01
 Iteration Nr.   4
 **********************
 DD1Dir will call FoFMem   1 times, MxPair=        72
 NAB=    36 NAA=     0 NBB=     0.
 A-vector RMS=  8.8040064D-05 Max=  2.5073630D-04 conv= 1.00D-05.
 RLE energy=       -0.2421480549
 DE(Corr)= -0.24211458     E(CORR)=     -33.901411428     Delta=-4.58D-04
 NORM(A)=   0.10451317D+01
 Iteration Nr.   5
 **********************
 DD1Dir will call FoFMem   1 times, MxPair=        72
 NAB=    36 NAA=     0 NBB=     0.
 A-vector RMS=  4.7815139D-05 Max=  2.0836760D-04 conv= 1.00D-05.
 RLE energy=       -0.2421487239
 DE(Corr)= -0.24214504     E(CORR)=     -33.901441880     Delta=-3.05D-05
 NORM(A)=   0.10451407D+01
 Iteration Nr.   6
 **********************
 DD1Dir will call FoFMem   1 times, MxPair=        72
 NAB=    36 NAA=     0 NBB=     0.
 A-vector RMS=  1.6071090D-05 Max=  7.1091480D-05 conv= 1.00D-05.
 RLE energy=       -0.2421447042
 DE(Corr)= -0.24214797     E(CORR)=     -33.901444818     Delta=-2.94D-06
 NORM(A)=   0.10451423D+01
 Iteration Nr.   7
 **********************
 DD1Dir will call FoFMem   1 times, MxPair=        72
 NAB=    36 NAA=     0 NBB=     0.
 A-vector RMS=  6.9087033D-06 Max=  2.2747274D-05 conv= 1.00D-05.
 RLE energy=       -0.2421465003
 DE(Corr)= -0.24214786     E(CORR)=     -33.901444709     Delta= 1.09D-07
 NORM(A)=   0.10451441D+01
 Iteration Nr.   8
 **********************
 DD1Dir will call FoFMem   1 times, MxPair=        72
 NAB=    36 NAA=     0 NBB=     0.
 A-vector RMS=  2.5939318D-06 Max=  1.0884316D-05 conv= 1.00D-05.
 RLE energy=       -0.2421471746
 DE(Corr)= -0.24214733     E(CORR)=     -33.901444177     Delta= 5.32D-07
 NORM(A)=   0.10451450D+01
 Iteration Nr.   9
 **********************
 DD1Dir will call FoFMem   1 times, MxPair=        72
 NAB=    36 NAA=     0 NBB=     0.
 A-vector RMS=  5.6304303D-07 Max=  2.0467394D-06 conv= 1.00D-05.
 RLE energy=       -0.2421474822
 DE(Corr)= -0.24214751     E(CORR)=     -33.901444354     Delta=-1.77D-07
 NORM(A)=   0.10451453D+01
 Iteration Nr.  10
 **********************
 DD1Dir will call FoFMem   1 times, MxPair=        72
 NAB=    36 NAA=     0 NBB=     0.
 A-vector RMS=  1.8467575D-07 Max=  7.4309912D-07 conv= 1.00D-05.
 RLE energy=       -0.2421476768
 DE(Corr)= -0.24214764     E(CORR)=     -33.901444482     Delta=-1.28D-07
 NORM(A)=   0.10451455D+01
 Iteration Nr.  11
 **********************
 DD1Dir will call FoFMem   1 times, MxPair=        72
 NAB=    36 NAA=     0 NBB=     0.
 A-vector RMS=  5.2030647D-08 Max=  2.4374834D-07 conv= 1.00D-05.
 RLE energy=       -0.2421477256
 DE(Corr)= -0.24214771     E(CORR)=     -33.901444552     Delta=-7.00D-08
 NORM(A)=   0.10451455D+01
 CI/CC converged in   11 iterations to DelEn=-7.00D-08 Conv= 1.00D-07 ErrA1= 5.20D-08 Conv= 1.00D-05
 Wavefunction amplitudes converged. E(Corr)=     -33.901444552    
 Largest amplitude= 4.84D-02
 IPart=  2 IA=    2   12.50% done.
 IPart=  4 IA=    3   24.17% done.
 IPart=  3 IA=    4   35.00% done.
 IPart=  3 IA=    5   45.00% done.
 IPart=  4 IA=    6   54.17% done.
 IPart=  2 IA=    7   62.50% done.
 IPart=  1 IA=    8   70.00% done.
 IPart=  2 IA=   10   82.50% done.
 IPart=  4 IA=   12   91.67% done.
 Time for triples=        0.25 seconds.
 T4(CCSD)= -0.34711932D-02
 T5(CCSD)=  0.54688470D-03
 CCSD(T)= -0.33904368861D+02
 Discarding MO integrals.
 Leave Link  913 at Sun Dec 10 06:31:27 2023, MaxMem=   536870912 cpu:               1.0 elap:               0.3
 (Enter /usr/site/hpc/x86_64/glibc-2.17/broadwell/gaussian/g16_a.03/pgi-16.5/g16/l601.exe)
 Copying SCF densities to generalized density rwf, IOpCl= 0 IROHF=0.

 **********************************************************************

            Population analysis using the SCF density.

 **********************************************************************

 Orbital symmetries:
       Occupied  (A') (A') (A') (A') (A') (A") (A') (A")
       Virtual   (A') (A') (A') (A') (A") (A') (A') (A") (A') (A')
                 (A') (A') (A') (A') (A') (A')
 The electronic state is 1-A'.
 Alpha  occ. eigenvalues --   -1.40168  -1.30048  -0.75555  -0.69865  -0.58915
 Alpha  occ. eigenvalues --   -0.54846  -0.49178  -0.44580
 Alpha virt. eigenvalues --    0.17221   0.27149   0.27678   0.51226   0.74434
 Alpha virt. eigenvalues --    0.75149   0.85231   0.88256   0.97117   1.00408
 Alpha virt. eigenvalues --    1.14672   1.18347   1.23485   1.36809   2.62015
 Alpha virt. eigenvalues --    3.70642
          Condensed to atoms (all electrons):
               1          2          3          4          5          6
     1  O    6.240780   0.314293   0.261930  -0.039828   0.000475   0.000572
     2  H    0.314293   0.358138  -0.034298  -0.079830   0.004531   0.004560
     3  H    0.261930  -0.034298   0.431900   0.004713   0.000001  -0.000211
     4  O   -0.039828  -0.079830   0.004713   6.403923   0.274011   0.265579
     5  H    0.000475   0.004531   0.000001   0.274011   0.313215  -0.022157
     6  H    0.000572   0.004560  -0.000211   0.265579  -0.022157   0.343363
 Mulliken charges:
               1
     1  O   -0.778222
     2  H    0.432607
     3  H    0.335966
     4  O   -0.828568
     5  H    0.429924
     6  H    0.408294
 Sum of Mulliken charges =  -0.00000
 Mulliken charges with hydrogens summed into heavy atoms:
               1
     1  O   -0.009649
     4  O    0.009649
 Electronic spatial extent (au):  <R**2>=            137.7428
 Charge=             -0.0000 electrons
 Dipole moment (field-independent basis, Debye):
    X=             -2.2406    Y=             -4.9322    Z=              0.0000  Tot=              5.4173
 Quadrupole moment (field-independent basis, Debye-Ang):
   XX=             -9.4530   YY=             -9.3676   ZZ=            -15.0159
   XY=             -3.8748   XZ=              0.0000   YZ=             -0.0000
 Traceless Quadrupole moment (field-independent basis, Debye-Ang):
   XX=              1.8258   YY=              1.9112   ZZ=             -3.7370
   XY=             -3.8748   XZ=              0.0000   YZ=             -0.0000
 Octapole moment (field-independent basis, Debye-Ang**2):
  XXX=             -2.0256  YYY=            -22.6124  ZZZ=              0.0000  XYY=             -5.9632
  XXY=             -3.8977  XXZ=              0.0000  XZZ=             -0.4137  YZZ=             -1.1000
  YYZ=              0.0000  XYZ=              0.0000
 Hexadecapole moment (field-independent basis, Debye-Ang**3):
 XXXX=            -12.0052 YYYY=           -125.6958 ZZZZ=            -12.2941 XXXY=             -0.9923
 XXXZ=              0.0000 YYYX=            -12.5977 YYYZ=              0.0000 ZZZX=             -0.0000
 ZZZY=              0.0000 XXYY=            -16.1130 XXZZ=             -4.5681 YYZZ=            -30.2905
 XXYZ=              0.0000 YYXZ=              0.0000 ZZXY=              0.3748
 N-N= 2.668796275971D+01 E-N=-1.351479465254D+02  KE= 2.691651920539D+01
 Symmetry A'   KE= 1.809072274299D+01
 Symmetry A"   KE= 8.825796462399D+00
 Leave Link  601 at Sun Dec 10 06:31:27 2023, MaxMem=   536870912 cpu:               0.1 elap:               0.0
 (Enter /usr/site/hpc/x86_64/glibc-2.17/broadwell/gaussian/g16_a.03/pgi-16.5/g16/l9999.exe)
 1\1\GINC-N044\SP\RCCSD(T)-FC\CEP-31G\H4O2\ROOT\10-Dec-2023\0\\#p CCSD(
 T)/CEP-31G\\H2O_H2O_688\\0,1\O,0,0.,-0.009833,0.\H,0,-0.799571,-0.5809
 65,0.\H,0,0.799571,-0.580965,0.\O,0,-2.106358,-1.505769,0.\H,0,-3.0629
 52,-1.281193,0.\H,0,-2.008564,-2.483492,0.\\Version=ES64L-G16RevA.03\S
 tate=1-A'\HF=-33.6592968\MP2=-33.8883948\MP3=-33.8928318\MP4D=-33.8977
 872\MP4DQ=-33.8984331\MP4SDQ=-33.9005949\CCSD=-33.9014446\CCSD(T)=-33.
 9043689\RMSD=2.631e-09\PG=CS [SG(H4O2)]\\@


 "TIGER, TIGER BURNING BRIGHT
 IN THE FOREST OF THE NIGHT.
 WHAT IMMORTAL HAND OR EYE
 CAN FRAME THY FEARFUL SYMMETRYE?"
                     - WILLIAM BLAKE
 Job cpu time:       0 days  0 hours  0 minutes  3.3 seconds.
 Elapsed time:       0 days  0 hours  0 minutes  1.0 seconds.
 File lengths (MBytes):  RWF=     72 Int=      0 D2E=      0 Chk=      8 Scr=      8
 Normal termination of Gaussian 16 at Sun Dec 10 06:31:27 2023.
