 Entering Gaussian System, Link 0=g16
 Input=H2O_H2O_4268.com
 Output=H2O_H2O_4268.log
 Initial command:
 /usr/site/hpc/x86_64/glibc-2.17/broadwell/gaussian/g16_a.03/pgi-16.5/g16/l1.exe "/gpfs/gpfs1/scratch/c7441090/OH Coord/Gau-1279041.inp" -scrdir="/gpfs/gpfs1/scratch/c7441090/OH Coord/"
 Entering Link 1 = /usr/site/hpc/x86_64/glibc-2.17/broadwell/gaussian/g16_a.03/pgi-16.5/g16/l1.exe PID=   1279042.
  
 Copyright (c) 1988,1990,1992,1993,1995,1998,2003,2009,2016,
            Gaussian, Inc.  All Rights Reserved.
  
 This is part of the Gaussian(R) 16 program.  It is based on
 the Gaussian(R) 09 system (copyright 2009, Gaussian, Inc.),
 the Gaussian(R) 03 system (copyright 2003, Gaussian, Inc.),
 the Gaussian(R) 98 system (copyright 1998, Gaussian, Inc.),
 the Gaussian(R) 94 system (copyright 1995, Gaussian, Inc.),
 the Gaussian 92(TM) system (copyright 1992, Gaussian, Inc.),
 the Gaussian 90(TM) system (copyright 1990, Gaussian, Inc.),
 the Gaussian 88(TM) system (copyright 1988, Gaussian, Inc.),
 the Gaussian 86(TM) system (copyright 1986, Carnegie Mellon
 University), and the Gaussian 82(TM) system (copyright 1983,
 Carnegie Mellon University). Gaussian is a federally registered
 trademark of Gaussian, Inc.
  
 This software contains proprietary and confidential information,
 including trade secrets, belonging to Gaussian, Inc.
  
 This software is provided under written license and may be
 used, copied, transmitted, or stored only in accord with that
 written license.
  
 The following legend is applicable only to US Government
 contracts under FAR:
  
                    RESTRICTED RIGHTS LEGEND
  
 Use, reproduction and disclosure by the US Government is
 subject to restrictions as set forth in subparagraphs (a)
 and (c) of the Commercial Computer Software - Restricted
 Rights clause in FAR 52.227-19.
  
 Gaussian, Inc.
 340 Quinnipiac St., Bldg. 40, Wallingford CT 06492
  
  
 ---------------------------------------------------------------
 Warning -- This program may not be used in any manner that
 competes with the business of Gaussian, Inc. or will provide
 assistance to any competitor of Gaussian, Inc.  The licensee
 of this program is prohibited from giving any competitor of
 Gaussian, Inc. access to this program.  By using this program,
 the user acknowledges that Gaussian, Inc. is engaged in the
 business of creating and licensing software in the field of
 computational chemistry and represents and warrants to the
 licensee that it is not a competitor of Gaussian, Inc. and that
 it will not use this program in any manner prohibited above.
 ---------------------------------------------------------------
  

 Cite this work as:
 Gaussian 16, Revision A.03,
 M. J. Frisch, G. W. Trucks, H. B. Schlegel, G. E. Scuseria, 
 M. A. Robb, J. R. Cheeseman, G. Scalmani, V. Barone, 
 G. A. Petersson, H. Nakatsuji, X. Li, M. Caricato, A. V. Marenich, 
 J. Bloino, B. G. Janesko, R. Gomperts, B. Mennucci, H. P. Hratchian, 
 J. V. Ortiz, A. F. Izmaylov, J. L. Sonnenberg, D. Williams-Young, 
 F. Ding, F. Lipparini, F. Egidi, J. Goings, B. Peng, A. Petrone, 
 T. Henderson, D. Ranasinghe, V. G. Zakrzewski, J. Gao, N. Rega, 
 G. Zheng, W. Liang, M. Hada, M. Ehara, K. Toyota, R. Fukuda, 
 J. Hasegawa, M. Ishida, T. Nakajima, Y. Honda, O. Kitao, H. Nakai, 
 T. Vreven, K. Throssell, J. A. Montgomery, Jr., J. E. Peralta, 
 F. Ogliaro, M. J. Bearpark, J. J. Heyd, E. N. Brothers, K. N. Kudin, 
 V. N. Staroverov, T. A. Keith, R. Kobayashi, J. Normand, 
 K. Raghavachari, A. P. Rendell, J. C. Burant, S. S. Iyengar, 
 J. Tomasi, M. Cossi, J. M. Millam, M. Klene, C. Adamo, R. Cammi, 
 J. W. Ochterski, R. L. Martin, K. Morokuma, O. Farkas, 
 J. B. Foresman, and D. J. Fox, Gaussian, Inc., Wallingford CT, 2016.
 
 ******************************************
 Gaussian 16:  ES64L-G16RevA.03 25-Dec-2016
                10-Dec-2023 
 ******************************************
 %NProcShared=4
 Will use up to    4 processors via shared memory.
 %Mem=4GB
 %Chk=H2O_H2O_4268.chk
 ------------------
 #p CCSD(T)/CEP-31G
 ------------------
 1/38=1,172=1/1;
 2/12=2,17=6,18=5,40=1/2;
 3/5=9,6=1,11=9,25=1,30=1/1,2,3;
 4//1;
 5/5=2,38=5/2;
 8/6=4,9=120000,10=1/1,4;
 9/5=7,14=2/13;
 6/7=2,8=2,9=2,10=2/1;
 99/5=1,9=1/99;
 Leave Link    1 at Sun Dec 10 06:49:48 2023, MaxMem=   536870912 cpu:               0.2 elap:               0.1
 (Enter /usr/site/hpc/x86_64/glibc-2.17/broadwell/gaussian/g16_a.03/pgi-16.5/g16/l101.exe)
 ------------
 H2O_H2O_4268
 ------------
 Symbolic Z-matrix:
 Charge =  0 Multiplicity = 1
 O                     0.       -0.00983   0. 
 H                    -0.79957  -0.58097   0. 
 H                     0.79957  -0.58097   0. 
 O                    -4.42878  -3.16074   0. 
 H                    -5.26242  -2.6406    0. 
 H                    -4.65046  -4.11801   0. 
 
 ITRead=  0  0  0  0  0  0
 MicOpt= -1 -1 -1 -1 -1 -1
 NAtoms=      6 NQM=        6 NQMF=       0 NMMI=      0 NMMIF=      0
                NMic=       0 NMicF=      0.
                    Isotopes and Nuclear Properties:
 (Nuclear quadrupole moments (NQMom) in fm**2, nuclear magnetic moments (NMagM)
  in nuclear magnetons)

  Atom         1           2           3           4           5           6
 IAtWgt=          16           1           1          16           1           1
 AtmWgt=  15.9949146   1.0078250   1.0078250  15.9949146   1.0078250   1.0078250
 NucSpn=           0           1           1           0           1           1
 AtZEff=  -0.0000000  -0.0000000  -0.0000000  -0.0000000  -0.0000000  -0.0000000
 NQMom=    0.0000000   0.0000000   0.0000000   0.0000000   0.0000000   0.0000000
 NMagM=    0.0000000   2.7928460   2.7928460   0.0000000   2.7928460   2.7928460
 AtZNuc=   8.0000000   1.0000000   1.0000000   8.0000000   1.0000000   1.0000000
 Leave Link  101 at Sun Dec 10 06:49:48 2023, MaxMem=   536870912 cpu:               0.3 elap:               0.1
 (Enter /usr/site/hpc/x86_64/glibc-2.17/broadwell/gaussian/g16_a.03/pgi-16.5/g16/l202.exe)
                          Input orientation:                          
 ---------------------------------------------------------------------
 Center     Atomic      Atomic             Coordinates (Angstroms)
 Number     Number       Type             X           Y           Z
 ---------------------------------------------------------------------
      1          8           0        0.000000   -0.009833    0.000000
      2          1           0       -0.799571   -0.580965    0.000000
      3          1           0        0.799571   -0.580965    0.000000
      4          8           0       -4.428782   -3.160743    0.000000
      5          1           0       -5.262422   -2.640598    0.000000
      6          1           0       -4.650457   -4.118013    0.000000
 ---------------------------------------------------------------------
                    Distance matrix (angstroms):
                    1          2          3          4          5
     1  O    0.000000
     2  H    0.982601   0.000000
     3  H    0.982601   1.599142   0.000000
     4  O    5.435287   4.452688   5.830174   0.000000
     5  H    5.883367   4.915194   6.402331   0.982602   0.000000
     6  H    6.205151   5.228770   6.497193   0.982601   1.599142
                    6
     6  H    0.000000
 Stoichiometry    H4O2
 Framework group  CS[SG(H4O2)]
 Deg. of freedom     9
 Full point group                 CS      NOp   2
 Largest Abelian subgroup         CS      NOp   2
 Largest concise Abelian subgroup C1      NOp   1
                         Standard orientation:                         
 ---------------------------------------------------------------------
 Center     Atomic      Atomic             Coordinates (Angstroms)
 Number     Number       Type             X           Y           Z
 ---------------------------------------------------------------------
      1          8           0        0.033757    2.806418   -0.000000
      2          1           0        0.031909    1.823818   -0.000000
      3          1           0       -0.895135    3.126831   -0.000000
      4          8           0        0.033757   -2.628869    0.000000
      5          1           0        0.940854   -3.006601    0.000000
      6          1           0       -0.617738   -3.364437    0.000000
 ---------------------------------------------------------------------
 Rotational constants (GHZ):         244.1979753           1.8701864           1.8559724
 Leave Link  202 at Sun Dec 10 06:49:48 2023, MaxMem=   536870912 cpu:               0.1 elap:               0.0
 (Enter /usr/site/hpc/x86_64/glibc-2.17/broadwell/gaussian/g16_a.03/pgi-16.5/g16/l301.exe)
 Standard basis: CEP-31G (6D, 10F)
 Ernie: Thresh=  0.10000D-02 Tol=  0.10000D-05 Strict=F.
 There are    20 symmetry adapted cartesian basis functions of A'  symmetry.
 There are     4 symmetry adapted cartesian basis functions of A"  symmetry.
 There are    20 symmetry adapted basis functions of A'  symmetry.
 There are     4 symmetry adapted basis functions of A"  symmetry.
    24 basis functions,    48 primitive gaussians,    24 cartesian basis functions
     8 alpha electrons        8 beta electrons
       nuclear repulsion energy        19.7738764033 Hartrees.
 IExCor=    0 DFT=F Ex=HF Corr=None ExCW=0 ScaHFX=  1.000000
 ScaDFX=  1.000000  1.000000  1.000000  1.000000 ScalE2=  1.000000  1.000000
 IRadAn=      5 IRanWt=     -1 IRanGd=            0 ICorTp=0 IEmpDi=  4
 NAtoms=    6 NActive=    6 NUniq=    6 SFac= 1.00D+00 NAtFMM=   60 NAOKFM=F Big=F
 Integral buffers will be    131072 words long.
 Raffenetti 1 integral format.
 Two-electron integral symmetry is turned on.
 Leave Link  301 at Sun Dec 10 06:49:48 2023, MaxMem=   536870912 cpu:               0.2 elap:               0.1
 (Enter /usr/site/hpc/x86_64/glibc-2.17/broadwell/gaussian/g16_a.03/pgi-16.5/g16/l302.exe)
 NPDir=0 NMtPBC=     1 NCelOv=     1 NCel=       1 NClECP=     1 NCelD=      1
         NCelK=      1 NCelE2=     1 NClLst=     1 CellRange=     0.0.
 One-electron integrals computed using PRISM.
 One-electron integral symmetry used in STVInt
   2 Symmetry operations used in ECPInt.
 ECPInt:  NShTT=      78 NPrTT=     318 LenC2=      79 LenP2D=     254.
 LDataN:  DoStor=T MaxTD1= 2 Len=   12
 NBasis=    24 RedAO= T EigKep=  3.85D-02  NBF=    20     4
 NBsUse=    24 1.00D-06 EigRej= -1.00D+00 NBFU=    20     4
 Leave Link  302 at Sun Dec 10 06:49:48 2023, MaxMem=   536870912 cpu:               0.3 elap:               0.1
 (Enter /usr/site/hpc/x86_64/glibc-2.17/broadwell/gaussian/g16_a.03/pgi-16.5/g16/l303.exe)
 DipDrv:  MaxL=1.
 Leave Link  303 at Sun Dec 10 06:49:48 2023, MaxMem=   536870912 cpu:               0.1 elap:               0.0
 (Enter /usr/site/hpc/x86_64/glibc-2.17/broadwell/gaussian/g16_a.03/pgi-16.5/g16/l401.exe)
 ExpMin= 1.78D-01 ExpMax= 1.92D+01 ExpMxC= 1.92D+01 IAcc=3 IRadAn=         5 AccDes= 0.00D+00
 Harris functional with IExCor=  205 and IRadAn=       5 diagonalized for initial guess.
 HarFok:  IExCor=  205 AccDes= 0.00D+00 IRadAn=         5 IDoV= 1 UseB2=F ITyADJ=14
 ICtDFT=  3500011 ScaDFX=  1.000000  1.000000  1.000000  1.000000
 FoFCou: FMM=F IPFlag=           0 FMFlag=      100000 FMFlg1=           0
         NFxFlg=           0 DoJE=T BraDBF=F KetDBF=T FulRan=T
         wScrn=  0.000000 ICntrl=       500 IOpCl=  0 I1Cent=   200000004 NGrid=           0
         NMat0=    1 NMatS0=      1 NMatT0=    0 NMatD0=    1 NMtDS0=    0 NMtDT0=    0
 Petite list used in FoFCou.
 Harris En= -34.4763682046410    
 JPrj=0 DoOrth=F DoCkMO=F.
 Initial guess orbital symmetries:
       Occupied  (A') (A') (A') (A') (A') (A') (A") (A")
       Virtual   (A') (A') (A') (A') (A") (A") (A') (A') (A') (A')
                 (A') (A') (A') (A') (A') (A')
 The electronic state of the initial guess is 1-A'.
 Leave Link  401 at Sun Dec 10 06:49:49 2023, MaxMem=   536870912 cpu:               0.4 elap:               0.1
 (Enter /usr/site/hpc/x86_64/glibc-2.17/broadwell/gaussian/g16_a.03/pgi-16.5/g16/l502.exe)
 Keep R1 ints in memory in symmetry-blocked form, NReq=851950.
 FoFCou: FMM=F IPFlag=           0 FMFlag=           0 FMFlg1=           0
         NFxFlg=           0 DoJE=F BraDBF=F KetDBF=F FulRan=T
         wScrn=  0.000000 ICntrl=       600 IOpCl=  0 I1Cent=           0 NGrid=           0
         NMat0=    1 NMatS0=    300 NMatT0=    0 NMatD0=    1 NMtDS0=    0 NMtDT0=    0
 Petite list used in FoFCou.
 Closed shell SCF:
 Using DIIS extrapolation, IDIIS=  1040.
 NGot=   536870912 LenX=   536840576 LenY=   536839559
 Requested convergence on RMS density matrix=1.00D-08 within 128 cycles.
 Requested convergence on MAX density matrix=1.00D-06.
 Requested convergence on             energy=1.00D-06.
 No special actions if energy rises.

 Cycle   1  Pass 1  IDiag  1:
 E= -33.5602877010996    
 DIIS: error= 6.83D-02 at cycle   1 NSaved=   1.
 NSaved= 1 IEnMin= 1 EnMin= -33.5602877010996     IErMin= 1 ErrMin= 6.83D-02
 ErrMax= 6.83D-02  0.00D+00 EMaxC= 1.00D-01 BMatC= 1.01D-01 BMatP= 1.01D-01
 IDIUse=3 WtCom= 3.17D-01 WtEn= 6.83D-01
 Coeff-Com:  0.100D+01
 Coeff-En:   0.100D+01
 Coeff:      0.100D+01
 Gap=     0.604 Goal=   None    Shift=    0.000
 GapD=    0.604 DampG=2.000 DampE=0.500 DampFc=1.0000 IDamp=-1.
 RMSDP=1.47D-02 MaxDP=1.17D-01              OVMax= 9.80D-02

 Cycle   2  Pass 1  IDiag  1:
 E= -33.6224812563368     Delta-E=       -0.062193555237 Rises=F Damp=F
 DIIS: error= 3.71D-02 at cycle   2 NSaved=   2.
 NSaved= 2 IEnMin= 2 EnMin= -33.6224812563368     IErMin= 2 ErrMin= 3.71D-02
 ErrMax= 3.71D-02  0.00D+00 EMaxC= 1.00D-01 BMatC= 3.78D-02 BMatP= 1.01D-01
 IDIUse=3 WtCom= 6.29D-01 WtEn= 3.71D-01
 Coeff-Com:  0.377D+00 0.623D+00
 Coeff-En:   0.110D+00 0.890D+00
 Coeff:      0.278D+00 0.722D+00
 Gap=     0.693 Goal=   None    Shift=    0.000
 RMSDP=6.36D-03 MaxDP=5.39D-02 DE=-6.22D-02 OVMax= 3.55D-02

 Cycle   3  Pass 1  IDiag  1:
 E= -33.6527352867335     Delta-E=       -0.030254030397 Rises=F Damp=F
 DIIS: error= 7.06D-03 at cycle   3 NSaved=   3.
 NSaved= 3 IEnMin= 3 EnMin= -33.6527352867335     IErMin= 3 ErrMin= 7.06D-03
 ErrMax= 7.06D-03  0.00D+00 EMaxC= 1.00D-01 BMatC= 8.74D-04 BMatP= 3.78D-02
 IDIUse=3 WtCom= 9.29D-01 WtEn= 7.06D-02
 Coeff-Com: -0.114D+00-0.174D-01 0.113D+01
 Coeff-En:   0.000D+00 0.000D+00 0.100D+01
 Coeff:     -0.106D+00-0.162D-01 0.112D+01
 Gap=     0.686 Goal=   None    Shift=    0.000
 RMSDP=1.05D-03 MaxDP=9.05D-03 DE=-3.03D-02 OVMax= 7.92D-03

 Cycle   4  Pass 1  IDiag  1:
 E= -33.6536044450940     Delta-E=       -0.000869158361 Rises=F Damp=F
 DIIS: error= 7.35D-04 at cycle   4 NSaved=   4.
 NSaved= 4 IEnMin= 4 EnMin= -33.6536044450940     IErMin= 4 ErrMin= 7.35D-04
 ErrMax= 7.35D-04  0.00D+00 EMaxC= 1.00D-01 BMatC= 5.62D-06 BMatP= 8.74D-04
 IDIUse=3 WtCom= 9.93D-01 WtEn= 7.35D-03
 Coeff-Com:  0.439D-01-0.170D-01-0.532D+00 0.150D+01
 Coeff-En:   0.000D+00 0.000D+00 0.000D+00 0.100D+01
 Coeff:      0.436D-01-0.169D-01-0.528D+00 0.150D+01
 Gap=     0.687 Goal=   None    Shift=    0.000
 RMSDP=2.32D-04 MaxDP=1.99D-03 DE=-8.69D-04 OVMax= 9.38D-04

 Cycle   5  Pass 1  IDiag  1:
 E= -33.6536170461917     Delta-E=       -0.000012601098 Rises=F Damp=F
 DIIS: error= 4.80D-05 at cycle   5 NSaved=   5.
 NSaved= 5 IEnMin= 5 EnMin= -33.6536170461917     IErMin= 5 ErrMin= 4.80D-05
 ErrMax= 4.80D-05  0.00D+00 EMaxC= 1.00D-01 BMatC= 3.49D-08 BMatP= 5.62D-06
 IDIUse=1 WtCom= 1.00D+00 WtEn= 0.00D+00
 Coeff-Com: -0.703D-02 0.307D-02 0.865D-01-0.291D+00 0.121D+01
 Coeff:     -0.703D-02 0.307D-02 0.865D-01-0.291D+00 0.121D+01
 Gap=     0.688 Goal=   None    Shift=    0.000
 RMSDP=1.51D-05 MaxDP=1.43D-04 DE=-1.26D-05 OVMax= 9.63D-05

 Cycle   6  Pass 1  IDiag  1:
 E= -33.6536171319260     Delta-E=       -0.000000085734 Rises=F Damp=F
 DIIS: error= 1.04D-05 at cycle   6 NSaved=   6.
 NSaved= 6 IEnMin= 6 EnMin= -33.6536171319260     IErMin= 6 ErrMin= 1.04D-05
 ErrMax= 1.04D-05  0.00D+00 EMaxC= 1.00D-01 BMatC= 1.94D-09 BMatP= 3.49D-08
 IDIUse=1 WtCom= 1.00D+00 WtEn= 0.00D+00
 Coeff-Com:  0.124D-02-0.438D-03-0.149D-01 0.558D-01-0.398D+00 0.136D+01
 Coeff:      0.124D-02-0.438D-03-0.149D-01 0.558D-01-0.398D+00 0.136D+01
 Gap=     0.688 Goal=   None    Shift=    0.000
 RMSDP=3.72D-06 MaxDP=3.17D-05 DE=-8.57D-08 OVMax= 3.30D-05

 Cycle   7  Pass 1  IDiag  1:
 E= -33.6536171372841     Delta-E=       -0.000000005358 Rises=F Damp=F
 DIIS: error= 2.16D-06 at cycle   7 NSaved=   7.
 NSaved= 7 IEnMin= 7 EnMin= -33.6536171372841     IErMin= 7 ErrMin= 2.16D-06
 ErrMax= 2.16D-06  0.00D+00 EMaxC= 1.00D-01 BMatC= 1.12D-10 BMatP= 1.94D-09
 IDIUse=1 WtCom= 1.00D+00 WtEn= 0.00D+00
 Coeff-Com:  0.286D-03-0.153D-03-0.358D-02 0.110D-01-0.146D-01-0.170D+00
 Coeff-Com:  0.118D+01
 Coeff:      0.286D-03-0.153D-03-0.358D-02 0.110D-01-0.146D-01-0.170D+00
 Coeff:      0.118D+01
 Gap=     0.688 Goal=   None    Shift=    0.000
 RMSDP=9.31D-07 MaxDP=8.24D-06 DE=-5.36D-09 OVMax= 8.27D-06

 Cycle   8  Pass 1  IDiag  1:
 E= -33.6536171375472     Delta-E=       -0.000000000263 Rises=F Damp=F
 DIIS: error= 6.37D-07 at cycle   8 NSaved=   8.
 NSaved= 8 IEnMin= 8 EnMin= -33.6536171375472     IErMin= 8 ErrMin= 6.37D-07
 ErrMax= 6.37D-07  0.00D+00 EMaxC= 1.00D-01 BMatC= 1.75D-11 BMatP= 1.12D-10
 IDIUse=1 WtCom= 1.00D+00 WtEn= 0.00D+00
 Coeff-Com: -0.131D-05-0.213D-04-0.355D-04-0.784D-03 0.293D-01-0.173D+00
 Coeff-Com:  0.342D+00 0.802D+00
 Coeff:     -0.131D-05-0.213D-04-0.355D-04-0.784D-03 0.293D-01-0.173D+00
 Coeff:      0.342D+00 0.802D+00
 Gap=     0.688 Goal=   None    Shift=    0.000
 RMSDP=2.61D-07 MaxDP=1.59D-06 DE=-2.63D-10 OVMax= 2.18D-06

 Cycle   9  Pass 1  IDiag  1:
 E= -33.6536171375716     Delta-E=       -0.000000000024 Rises=F Damp=F
 DIIS: error= 1.58D-07 at cycle   9 NSaved=   9.
 NSaved= 9 IEnMin= 9 EnMin= -33.6536171375716     IErMin= 9 ErrMin= 1.58D-07
 ErrMax= 1.58D-07  0.00D+00 EMaxC= 1.00D-01 BMatC= 6.30D-13 BMatP= 1.75D-11
 IDIUse=1 WtCom= 1.00D+00 WtEn= 0.00D+00
 Coeff-Com:  0.407D-05 0.606D-05-0.226D-04 0.405D-03-0.120D-01 0.734D-01
 Coeff-Com: -0.188D+00-0.266D+00 0.139D+01
 Coeff:      0.407D-05 0.606D-05-0.226D-04 0.405D-03-0.120D-01 0.734D-01
 Coeff:     -0.188D+00-0.266D+00 0.139D+01
 Gap=     0.688 Goal=   None    Shift=    0.000
 RMSDP=1.15D-07 MaxDP=5.25D-07 DE=-2.43D-11 OVMax= 7.66D-07

 Cycle  10  Pass 1  IDiag  1:
 E= -33.6536171375732     Delta-E=       -0.000000000002 Rises=F Damp=F
 DIIS: error= 8.48D-09 at cycle  10 NSaved=  10.
 NSaved=10 IEnMin=10 EnMin= -33.6536171375732     IErMin=10 ErrMin= 8.48D-09
 ErrMax= 8.48D-09  0.00D+00 EMaxC= 1.00D-01 BMatC= 2.84D-15 BMatP= 6.30D-13
 IDIUse=1 WtCom= 1.00D+00 WtEn= 0.00D+00
 Coeff-Com:  0.492D-07-0.170D-05-0.713D-05-0.533D-04 0.264D-02-0.170D-01
 Coeff-Com:  0.445D-01 0.587D-01-0.373D+00 0.128D+01
 Coeff:      0.492D-07-0.170D-05-0.713D-05-0.533D-04 0.264D-02-0.170D-01
 Coeff:      0.445D-01 0.587D-01-0.373D+00 0.128D+01
 Gap=     0.688 Goal=   None    Shift=    0.000
 RMSDP=1.18D-08 MaxDP=5.60D-08 DE=-1.63D-12 OVMax= 6.93D-08

 Cycle  11  Pass 1  IDiag  1:
 E= -33.6536171375732     Delta-E=        0.000000000000 Rises=F Damp=F
 DIIS: error= 3.98D-10 at cycle  11 NSaved=  11.
 NSaved=11 IEnMin=10 EnMin= -33.6536171375732     IErMin=11 ErrMin= 3.98D-10
 ErrMax= 3.98D-10  0.00D+00 EMaxC= 1.00D-01 BMatC= 4.19D-18 BMatP= 2.84D-15
 IDIUse=1 WtCom= 1.00D+00 WtEn= 0.00D+00
 Coeff-Com: -0.705D-07 0.292D-06 0.188D-05 0.638D-05-0.426D-03 0.279D-02
 Coeff-Com: -0.737D-02-0.959D-02 0.627D-01-0.237D+00 0.119D+01
 Coeff:     -0.705D-07 0.292D-06 0.188D-05 0.638D-05-0.426D-03 0.279D-02
 Coeff:     -0.737D-02-0.959D-02 0.627D-01-0.237D+00 0.119D+01
 Gap=     0.688 Goal=   None    Shift=    0.000
 RMSDP=2.53D-10 MaxDP=1.47D-09 DE= 1.42D-14 OVMax= 1.19D-09

 SCF Done:  E(RHF) =  -33.6536171376     A.U. after   11 cycles
            NFock= 11  Conv=0.25D-09     -V/T= 2.2569
 KE= 2.677588854855D+01 PE=-1.211565321551D+02 EE= 4.095315006564D+01
 Leave Link  502 at Sun Dec 10 06:49:49 2023, MaxMem=   536870912 cpu:               0.3 elap:               0.1
 (Enter /usr/site/hpc/x86_64/glibc-2.17/broadwell/gaussian/g16_a.03/pgi-16.5/g16/l801.exe)
 Windowed orbitals will be sorted by symmetry type.
 Range of M.O.s used for correlation:     1    24
 NBasis=    24 NAE=     8 NBE=     8 NFC=     0 NFV=     0
 NROrb=     24 NOA=     8 NOB=     8 NVA=    16 NVB=    16
 Leave Link  801 at Sun Dec 10 06:49:49 2023, MaxMem=   536870912 cpu:               0.1 elap:               0.0
 (Enter /usr/site/hpc/x86_64/glibc-2.17/broadwell/gaussian/g16_a.03/pgi-16.5/g16/l804.exe)
 Closed-shell transformation, MDV=   536870912 ITran=4 ISComp=2.
 Unit  1 TFree=       1025975 TCopy=        210600.
 Semi-Direct transformation.
 ModeAB=           4 MOrb=             8 LenV=     536742418
 LASXX=        22470 LTotXX=       22470 LenRXX=       48678
 LTotAB=       26208 MaxLAS=       56256 LenRXY=           0
 NonZer=       71148 LenScr=      524288 LnRSAI=       56256
 LnScr1=      524288 LExtra=           0 Total=      1153510
 MaxDsk=          -1 SrtSym=           T ITran=            4
 DoSDTr:  NPSUse=  4
 JobTyp=0 Pass  1:  I=   1 to   8.
 (rs|ai) integrals will be sorted in core.
 Complete sort for first half transformation.
 First half transformation complete.
 Complete sort for second half transformation.
 Second half transformation complete.
 Spin components of T(2) and E(2):
     alpha-alpha T2 =       0.9062680504D-02 E2=     -0.2589272647D-01
     alpha-beta  T2 =       0.5985355917D-01 E2=     -0.1765019626D+00
     beta-beta   T2 =       0.9062680504D-02 E2=     -0.2589272647D-01
 ANorm=    0.1038257637D+01
 E2 =    -0.2282874156D+00 EUMP2 =    -0.33881904553138D+02
 Leave Link  804 at Sun Dec 10 06:49:49 2023, MaxMem=   536870912 cpu:               0.2 elap:               0.1
 (Enter /usr/site/hpc/x86_64/glibc-2.17/broadwell/gaussian/g16_a.03/pgi-16.5/g16/l913.exe)
 CIDS:  MDV=   536870912.
 IFCWin=0 IBDFC=1 NFBD=     0     0 NFCmp=     0     0 NFFFC=     0     0
 Using DD3R+UMP44R for 1st iteration.
 Using DD4RQ for 2nd and later iterations.
 Keep R2 and R3 ints in memory in symmetry-blocked form, NReq=864558.
 FoFCou: FMM=F IPFlag=           0 FMFlag=           0 FMFlg1=           0
         NFxFlg=           0 DoJE=F BraDBF=F KetDBF=F FulRan=T
         wScrn=  0.000000 ICntrl=       600 IOpCl=  0 I1Cent=           0 NGrid=           0
         NMat0=    1 NMatS0=    300 NMatT0=    0 NMatD0=    1 NMtDS0=    0 NMtDT0=    0
 Petite list used in FoFCou.
 CIDS: In Core Option IDoMem=           1.
 CCSD(T)
 =======
 Iterations=  50 Convergence= 0.100D-06
 Produce multiple copies of IABC intergrals
 Iteration Nr.   1
 **********************
 DD1Dir will call FoFMem   1 times, MxPair=        72
 NAB=    36 NAA=     0 NBB=     0.
 MP4(R+Q)= -0.74862405D-03
 Maximum subspace dimension=  5
 A-vector RMS=  5.7474999D-03 Max=  1.3205439D-02 conv= 1.00D-05.
 RLE energy=       -0.2343295718
 E3=       -0.54126074D-02        EUMP3=      -0.33887317160D+02
 E4(DQ)=   -0.59046305D-02        UMP4(DQ)=   -0.33893221791D+02
 E4(SDQ)=  -0.79280974D-02        UMP4(SDQ)=  -0.33895245258D+02
 VARIATIONAL ENERGIES WITH THE FIRST-ORDER WAVEFUNCTION:
 DE(Corr)= -0.23417412     E(Corr)=     -33.887791253    
 NORM(A)=   0.10416784D+01
 Iteration Nr.   2
 **********************
 DD1Dir will call FoFMem   1 times, MxPair=        72
 NAB=    36 NAA=     0 NBB=     0.
 A-vector RMS=  9.8146775D-04 Max=  2.7249423D-03 conv= 1.00D-05.
 RLE energy=       -0.2420856618
 DE(Corr)= -0.24014578     E(CORR)=     -33.893762921     Delta=-5.97D-03
 NORM(A)=   0.10454584D+01
 Iteration Nr.   3
 **********************
 DD1Dir will call FoFMem   1 times, MxPair=        72
 NAB=    36 NAA=     0 NBB=     0.
 A-vector RMS=  3.7995214D-04 Max=  1.1297869D-03 conv= 1.00D-05.
 RLE energy=       -0.2426351057
 DE(Corr)= -0.24218892     E(CORR)=     -33.895806059     Delta=-2.04D-03
 NORM(A)=   0.10460164D+01
 Iteration Nr.   4
 **********************
 DD1Dir will call FoFMem   1 times, MxPair=        72
 NAB=    36 NAA=     0 NBB=     0.
 A-vector RMS=  9.1625732D-05 Max=  2.4748024D-04 conv= 1.00D-05.
 RLE energy=       -0.2426815734
 DE(Corr)= -0.24264588     E(CORR)=     -33.896263016     Delta=-4.57D-04
 NORM(A)=   0.10460896D+01
 Iteration Nr.   5
 **********************
 DD1Dir will call FoFMem   1 times, MxPair=        72
 NAB=    36 NAA=     0 NBB=     0.
 A-vector RMS=  4.0959442D-05 Max=  1.4852733D-04 conv= 1.00D-05.
 RLE energy=       -0.2426798300
 DE(Corr)= -0.24267785     E(CORR)=     -33.896294990     Delta=-3.20D-05
 NORM(A)=   0.10460999D+01
 Iteration Nr.   6
 **********************
 DD1Dir will call FoFMem   1 times, MxPair=        72
 NAB=    36 NAA=     0 NBB=     0.
 A-vector RMS=  1.1329557D-05 Max=  4.0427560D-05 conv= 1.00D-05.
 RLE energy=       -0.2426789642
 DE(Corr)= -0.24267999     E(CORR)=     -33.896297123     Delta=-2.13D-06
 NORM(A)=   0.10461033D+01
 Iteration Nr.   7
 **********************
 DD1Dir will call FoFMem   1 times, MxPair=        72
 NAB=    36 NAA=     0 NBB=     0.
 A-vector RMS=  3.3770717D-06 Max=  1.1732020D-05 conv= 1.00D-05.
 RLE energy=       -0.2426798937
 DE(Corr)= -0.24267939     E(CORR)=     -33.896296525     Delta= 5.98D-07
 NORM(A)=   0.10461046D+01
 Iteration Nr.   8
 **********************
 DD1Dir will call FoFMem   1 times, MxPair=        72
 NAB=    36 NAA=     0 NBB=     0.
 A-vector RMS=  6.8006826D-07 Max=  2.1100545D-06 conv= 1.00D-05.
 RLE energy=       -0.2426793955
 DE(Corr)= -0.24267943     E(CORR)=     -33.896296566     Delta=-4.01D-08
 NORM(A)=   0.10461047D+01
 CI/CC converged in    8 iterations to DelEn=-4.01D-08 Conv= 1.00D-07 ErrA1= 6.80D-07 Conv= 1.00D-05
 Wavefunction amplitudes converged. E(Corr)=     -33.896296566    
 Largest amplitude= 5.86D-02
 IPart=  2 IA=    2   12.50% done.
 IPart=  1 IA=    3   24.17% done.
 IPart=  4 IA=    4   35.00% done.
 IPart=  4 IA=    5   45.00% done.
 IPart=  1 IA=    6   54.17% done.
 IPart=  2 IA=    7   62.50% done.
 IPart=  3 IA=    8   70.00% done.
 IPart=  3 IA=   10   82.50% done.
 IPart=  4 IA=   12   91.67% done.
 Time for triples=        0.27 seconds.
 T4(CCSD)= -0.30821932D-02
 T5(CCSD)=  0.52531622D-03
 CCSD(T)= -0.33898853443D+02
 Discarding MO integrals.
 Leave Link  913 at Sun Dec 10 06:49:49 2023, MaxMem=   536870912 cpu:               0.9 elap:               0.2
 (Enter /usr/site/hpc/x86_64/glibc-2.17/broadwell/gaussian/g16_a.03/pgi-16.5/g16/l601.exe)
 Copying SCF densities to generalized density rwf, IOpCl= 0 IROHF=0.

 **********************************************************************

            Population analysis using the SCF density.

 **********************************************************************

 Orbital symmetries:
       Occupied  (A') (A') (A') (A') (A') (A') (A") (A")
       Virtual   (A') (A') (A') (A') (A") (A") (A') (A') (A') (A')
                 (A') (A') (A') (A') (A') (A')
 The electronic state is 1-A'.
 Alpha  occ. eigenvalues --   -1.36298  -1.34605  -0.71938  -0.70238  -0.56137
 Alpha  occ. eigenvalues --   -0.54400  -0.50897  -0.49206
 Alpha virt. eigenvalues --    0.19545   0.21328   0.29821   0.31608   0.79657
 Alpha virt. eigenvalues --    0.81305   0.82469   0.84295   0.85686   0.87401
 Alpha virt. eigenvalues --    1.16682   1.18385   1.21118   1.22924   2.56639
 Alpha virt. eigenvalues --    2.58403
          Condensed to atoms (all electrons):
               1          2          3          4          5          6
     1  O    6.219613   0.265639   0.262999  -0.000001   0.000000   0.000000
     2  H    0.265639   0.377989  -0.023244   0.000020  -0.000000  -0.000000
     3  H    0.262999  -0.023244   0.391618  -0.000000   0.000000   0.000000
     4  O   -0.000001   0.000020  -0.000000   6.218333   0.264778   0.264436
     5  H    0.000000  -0.000000   0.000000   0.264778   0.384158  -0.023366
     6  H    0.000000  -0.000000   0.000000   0.264436  -0.023366   0.385767
 Mulliken charges:
               1
     1  O   -0.748250
     2  H    0.379596
     3  H    0.368627
     4  O   -0.747566
     5  H    0.374430
     6  H    0.373163
 Sum of Mulliken charges =  -0.00000
 Mulliken charges with hydrogens summed into heavy atoms:
               1
     1  O   -0.000027
     4  O    0.000027
 Electronic spatial extent (au):  <R**2>=            466.0518
 Charge=             -0.0000 electrons
 Dipole moment (field-independent basis, Debye):
    X=             -1.5487    Y=             -4.1696    Z=              0.0000  Tot=              4.4479
 Quadrupole moment (field-independent basis, Debye-Ang):
   XX=             -9.4366   YY=             -5.5477   ZZ=            -14.9923
   XY=             -8.2171   XZ=              0.0000   YZ=             -0.0000
 Traceless Quadrupole moment (field-independent basis, Debye-Ang):
   XX=              0.5556   YY=              4.4445   ZZ=             -5.0001
   XY=             -8.2171   XZ=              0.0000   YZ=             -0.0000
 Octapole moment (field-independent basis, Debye-Ang**2):
  XXX=             -0.8673  YYY=            -85.1717  ZZZ=              0.0000  XYY=            -20.3280
  XXY=             -4.6111  XXZ=              0.0000  XZZ=             -0.2906  YZZ=             -0.7958
  YYZ=              0.0000  XYZ=              0.0000
 Hexadecapole moment (field-independent basis, Debye-Ang**3):
 XXXX=            -11.7423 YYYY=           -433.6809 ZZZZ=            -12.2283 XXXY=             -4.2382
 XXXZ=              0.0000 YYYX=            -68.1529 YYYZ=              0.0000 ZZZX=             -0.0000
 ZZZY=              0.0000 XXYY=            -66.8610 XXZZ=             -4.5551 YYZZ=           -116.0457
 XXYZ=              0.0000 YYXZ=              0.0000 ZZXY=              1.0233
 N-N= 1.977387640330D+01 E-N=-1.211565321585D+02  KE= 2.677588854855D+01
 Symmetry A'   KE= 1.789698741709D+01
 Symmetry A"   KE= 8.878901131461D+00
 Leave Link  601 at Sun Dec 10 06:49:49 2023, MaxMem=   536870912 cpu:               0.1 elap:               0.0
 (Enter /usr/site/hpc/x86_64/glibc-2.17/broadwell/gaussian/g16_a.03/pgi-16.5/g16/l9999.exe)
 1\1\GINC-N033\SP\RCCSD(T)-FC\CEP-31G\H4O2\ROOT\10-Dec-2023\0\\#p CCSD(
 T)/CEP-31G\\H2O_H2O_4268\\0,1\O,0,0.,-0.009833,0.\H,0,-0.799571,-0.580
 965,0.\H,0,0.799571,-0.580965,0.\O,0,-4.428782,-3.160743,0.\H,0,-5.262
 422,-2.640598,0.\H,0,-4.650457,-4.118013,0.\\Version=ES64L-G16RevA.03\
 State=1-A'\HF=-33.6536171\MP2=-33.8819046\MP3=-33.8873172\MP4D=-33.892
 4732\MP4DQ=-33.8932218\MP4SDQ=-33.8952453\CCSD=-33.8962966\CCSD(T)=-33
 .8988534\RMSD=2.533e-10\PG=CS [SG(H4O2)]\\@


 MISERY NO LONGER LOVES COMPANY.  NOWADAYS IT INSISTS ON IT.

                                              -- BAKER'S LAW
 Job cpu time:       0 days  0 hours  0 minutes  3.3 seconds.
 Elapsed time:       0 days  0 hours  0 minutes  1.0 seconds.
 File lengths (MBytes):  RWF=     72 Int=      0 D2E=      0 Chk=      8 Scr=      8
 Normal termination of Gaussian 16 at Sun Dec 10 06:49:49 2023.
