 Entering Gaussian System, Link 0=g16
 Input=H2O_H2O_4930.com
 Output=H2O_H2O_4930.log
 Initial command:
 /usr/site/hpc/x86_64/glibc-2.17/broadwell/gaussian/g16_a.03/pgi-16.5/g16/l1.exe "/gpfs/gpfs1/scratch/c7441090/OH Coord/Gau-1336374.inp" -scrdir="/gpfs/gpfs1/scratch/c7441090/OH Coord/"
 Entering Link 1 = /usr/site/hpc/x86_64/glibc-2.17/broadwell/gaussian/g16_a.03/pgi-16.5/g16/l1.exe PID=   1336375.
  
 Copyright (c) 1988,1990,1992,1993,1995,1998,2003,2009,2016,
            Gaussian, Inc.  All Rights Reserved.
  
 This is part of the Gaussian(R) 16 program.  It is based on
 the Gaussian(R) 09 system (copyright 2009, Gaussian, Inc.),
 the Gaussian(R) 03 system (copyright 2003, Gaussian, Inc.),
 the Gaussian(R) 98 system (copyright 1998, Gaussian, Inc.),
 the Gaussian(R) 94 system (copyright 1995, Gaussian, Inc.),
 the Gaussian 92(TM) system (copyright 1992, Gaussian, Inc.),
 the Gaussian 90(TM) system (copyright 1990, Gaussian, Inc.),
 the Gaussian 88(TM) system (copyright 1988, Gaussian, Inc.),
 the Gaussian 86(TM) system (copyright 1986, Carnegie Mellon
 University), and the Gaussian 82(TM) system (copyright 1983,
 Carnegie Mellon University). Gaussian is a federally registered
 trademark of Gaussian, Inc.
  
 This software contains proprietary and confidential information,
 including trade secrets, belonging to Gaussian, Inc.
  
 This software is provided under written license and may be
 used, copied, transmitted, or stored only in accord with that
 written license.
  
 The following legend is applicable only to US Government
 contracts under FAR:
  
                    RESTRICTED RIGHTS LEGEND
  
 Use, reproduction and disclosure by the US Government is
 subject to restrictions as set forth in subparagraphs (a)
 and (c) of the Commercial Computer Software - Restricted
 Rights clause in FAR 52.227-19.
  
 Gaussian, Inc.
 340 Quinnipiac St., Bldg. 40, Wallingford CT 06492
  
  
 ---------------------------------------------------------------
 Warning -- This program may not be used in any manner that
 competes with the business of Gaussian, Inc. or will provide
 assistance to any competitor of Gaussian, Inc.  The licensee
 of this program is prohibited from giving any competitor of
 Gaussian, Inc. access to this program.  By using this program,
 the user acknowledges that Gaussian, Inc. is engaged in the
 business of creating and licensing software in the field of
 computational chemistry and represents and warrants to the
 licensee that it is not a competitor of Gaussian, Inc. and that
 it will not use this program in any manner prohibited above.
 ---------------------------------------------------------------
  

 Cite this work as:
 Gaussian 16, Revision A.03,
 M. J. Frisch, G. W. Trucks, H. B. Schlegel, G. E. Scuseria, 
 M. A. Robb, J. R. Cheeseman, G. Scalmani, V. Barone, 
 G. A. Petersson, H. Nakatsuji, X. Li, M. Caricato, A. V. Marenich, 
 J. Bloino, B. G. Janesko, R. Gomperts, B. Mennucci, H. P. Hratchian, 
 J. V. Ortiz, A. F. Izmaylov, J. L. Sonnenberg, D. Williams-Young, 
 F. Ding, F. Lipparini, F. Egidi, J. Goings, B. Peng, A. Petrone, 
 T. Henderson, D. Ranasinghe, V. G. Zakrzewski, J. Gao, N. Rega, 
 G. Zheng, W. Liang, M. Hada, M. Ehara, K. Toyota, R. Fukuda, 
 J. Hasegawa, M. Ishida, T. Nakajima, Y. Honda, O. Kitao, H. Nakai, 
 T. Vreven, K. Throssell, J. A. Montgomery, Jr., J. E. Peralta, 
 F. Ogliaro, M. J. Bearpark, J. J. Heyd, E. N. Brothers, K. N. Kudin, 
 V. N. Staroverov, T. A. Keith, R. Kobayashi, J. Normand, 
 K. Raghavachari, A. P. Rendell, J. C. Burant, S. S. Iyengar, 
 J. Tomasi, M. Cossi, J. M. Millam, M. Klene, C. Adamo, R. Cammi, 
 J. W. Ochterski, R. L. Martin, K. Morokuma, O. Farkas, 
 J. B. Foresman, and D. J. Fox, Gaussian, Inc., Wallingford CT, 2016.
 
 ******************************************
 Gaussian 16:  ES64L-G16RevA.03 25-Dec-2016
                10-Dec-2023 
 ******************************************
 %NProcShared=4
 Will use up to    4 processors via shared memory.
 %Mem=4GB
 %Chk=H2O_H2O_4930.chk
 ------------------
 #p CCSD(T)/CEP-31G
 ------------------
 1/38=1,172=1/1;
 2/12=2,17=6,18=5,40=1/2;
 3/5=9,6=1,11=9,25=1,30=1/1,2,3;
 4//1;
 5/5=2,38=5/2;
 8/6=4,9=120000,10=1/1,4;
 9/5=7,14=2/13;
 6/7=2,8=2,9=2,10=2/1;
 99/5=1,9=1/99;
 Leave Link    1 at Sun Dec 10 07:02:53 2023, MaxMem=   536870912 cpu:               2.8 elap:               0.9
 (Enter /usr/site/hpc/x86_64/glibc-2.17/broadwell/gaussian/g16_a.03/pgi-16.5/g16/l101.exe)
 ------------
 H2O_H2O_4930
 ------------
 Symbolic Z-matrix:
 Charge =  0 Multiplicity = 1
 O                     0.       -0.00983   0. 
 H                    -0.79957  -0.58097   0. 
 H                     0.79957  -0.58097   0. 
 O                    -4.86104  -3.47928   0. 
 H                    -5.80176  -3.76309   0. 
 H                    -4.28749  -4.27712   0. 
 
 ITRead=  0  0  0  0  0  0
 MicOpt= -1 -1 -1 -1 -1 -1
 NAtoms=      6 NQM=        6 NQMF=       0 NMMI=      0 NMMIF=      0
                NMic=       0 NMicF=      0.
                    Isotopes and Nuclear Properties:
 (Nuclear quadrupole moments (NQMom) in fm**2, nuclear magnetic moments (NMagM)
  in nuclear magnetons)

  Atom         1           2           3           4           5           6
 IAtWgt=          16           1           1          16           1           1
 AtmWgt=  15.9949146   1.0078250   1.0078250  15.9949146   1.0078250   1.0078250
 NucSpn=           0           1           1           0           1           1
 AtZEff=  -0.0000000  -0.0000000  -0.0000000  -0.0000000  -0.0000000  -0.0000000
 NQMom=    0.0000000   0.0000000   0.0000000   0.0000000   0.0000000   0.0000000
 NMagM=    0.0000000   2.7928460   2.7928460   0.0000000   2.7928460   2.7928460
 AtZNuc=   8.0000000   1.0000000   1.0000000   8.0000000   1.0000000   1.0000000
 Leave Link  101 at Sun Dec 10 07:02:53 2023, MaxMem=   536870912 cpu:               0.3 elap:               0.1
 (Enter /usr/site/hpc/x86_64/glibc-2.17/broadwell/gaussian/g16_a.03/pgi-16.5/g16/l202.exe)
                          Input orientation:                          
 ---------------------------------------------------------------------
 Center     Atomic      Atomic             Coordinates (Angstroms)
 Number     Number       Type             X           Y           Z
 ---------------------------------------------------------------------
      1          8           0        0.000000   -0.009833    0.000000
      2          1           0       -0.799571   -0.580965    0.000000
      3          1           0        0.799571   -0.580965    0.000000
      4          8           0       -4.861039   -3.479282    0.000000
      5          1           0       -5.801761   -3.763091    0.000000
      6          1           0       -4.287485   -4.277118    0.000000
 ---------------------------------------------------------------------
                    Distance matrix (angstroms):
                    1          2          3          4          5
     1  O    0.000000
     2  H    0.982601   0.000000
     3  H    0.982601   1.599142   0.000000
     4  O    5.972167   4.989565   6.359461   0.000000
     5  H    6.909948   5.928561   7.328268   0.982601   0.000000
     6  H    6.049153   5.082036   6.288059   0.982602   1.599142
                    6
     6  H    0.000000
 Stoichiometry    H4O2
 Framework group  CS[SG(H4O2)]
 Deg. of freedom     9
 Full point group                 CS      NOp   2
 Largest Abelian subgroup         CS      NOp   2
 Largest concise Abelian subgroup C1      NOp   1
                         Standard orientation:                         
 ---------------------------------------------------------------------
 Center     Atomic      Atomic             Coordinates (Angstroms)
 Number     Number       Type             X           Y           Z
 ---------------------------------------------------------------------
      1          8           0        0.079842    3.065624    0.000000
      2          1           0        0.079470    2.083022    0.000000
      3          1           0       -0.849530    3.384642    0.000000
      4          8           0        0.079842   -2.906543   -0.000000
      5          1           0        0.395336   -3.837118   -0.000000
      6          1           0       -0.902754   -2.903191   -0.000000
 ---------------------------------------------------------------------
 Rotational constants (GHZ):         270.9292376           1.5566416           1.5477489
 Leave Link  202 at Sun Dec 10 07:02:53 2023, MaxMem=   536870912 cpu:               0.0 elap:               0.0
 (Enter /usr/site/hpc/x86_64/glibc-2.17/broadwell/gaussian/g16_a.03/pgi-16.5/g16/l301.exe)
 Standard basis: CEP-31G (6D, 10F)
 Ernie: Thresh=  0.10000D-02 Tol=  0.10000D-05 Strict=F.
 There are    20 symmetry adapted cartesian basis functions of A'  symmetry.
 There are     4 symmetry adapted cartesian basis functions of A"  symmetry.
 There are    20 symmetry adapted basis functions of A'  symmetry.
 There are     4 symmetry adapted basis functions of A"  symmetry.
    24 basis functions,    48 primitive gaussians,    24 cartesian basis functions
     8 alpha electrons        8 beta electrons
       nuclear repulsion energy        19.2465456568 Hartrees.
 IExCor=    0 DFT=F Ex=HF Corr=None ExCW=0 ScaHFX=  1.000000
 ScaDFX=  1.000000  1.000000  1.000000  1.000000 ScalE2=  1.000000  1.000000
 IRadAn=      5 IRanWt=     -1 IRanGd=            0 ICorTp=0 IEmpDi=  4
 NAtoms=    6 NActive=    6 NUniq=    6 SFac= 1.00D+00 NAtFMM=   60 NAOKFM=F Big=F
 Integral buffers will be    131072 words long.
 Raffenetti 1 integral format.
 Two-electron integral symmetry is turned on.
 Leave Link  301 at Sun Dec 10 07:02:53 2023, MaxMem=   536870912 cpu:               0.2 elap:               0.1
 (Enter /usr/site/hpc/x86_64/glibc-2.17/broadwell/gaussian/g16_a.03/pgi-16.5/g16/l302.exe)
 NPDir=0 NMtPBC=     1 NCelOv=     1 NCel=       1 NClECP=     1 NCelD=      1
         NCelK=      1 NCelE2=     1 NClLst=     1 CellRange=     0.0.
 One-electron integrals computed using PRISM.
 One-electron integral symmetry used in STVInt
   2 Symmetry operations used in ECPInt.
 ECPInt:  NShTT=      78 NPrTT=     318 LenC2=      77 LenP2D=     247.
 LDataN:  DoStor=T MaxTD1= 2 Len=   12
 NBasis=    24 RedAO= T EigKep=  3.86D-02  NBF=    20     4
 NBsUse=    24 1.00D-06 EigRej= -1.00D+00 NBFU=    20     4
 Leave Link  302 at Sun Dec 10 07:02:53 2023, MaxMem=   536870912 cpu:               0.3 elap:               0.1
 (Enter /usr/site/hpc/x86_64/glibc-2.17/broadwell/gaussian/g16_a.03/pgi-16.5/g16/l303.exe)
 DipDrv:  MaxL=1.
 Leave Link  303 at Sun Dec 10 07:02:53 2023, MaxMem=   536870912 cpu:               0.1 elap:               0.0
 (Enter /usr/site/hpc/x86_64/glibc-2.17/broadwell/gaussian/g16_a.03/pgi-16.5/g16/l401.exe)
 ExpMin= 1.78D-01 ExpMax= 1.92D+01 ExpMxC= 1.92D+01 IAcc=3 IRadAn=         5 AccDes= 0.00D+00
 Harris functional with IExCor=  205 and IRadAn=       5 diagonalized for initial guess.
 HarFok:  IExCor=  205 AccDes= 0.00D+00 IRadAn=         5 IDoV= 1 UseB2=F ITyADJ=14
 ICtDFT=  3500011 ScaDFX=  1.000000  1.000000  1.000000  1.000000
 FoFCou: FMM=F IPFlag=           0 FMFlag=      100000 FMFlg1=           0
         NFxFlg=           0 DoJE=T BraDBF=F KetDBF=T FulRan=T
         wScrn=  0.000000 ICntrl=       500 IOpCl=  0 I1Cent=   200000004 NGrid=           0
         NMat0=    1 NMatS0=      1 NMatT0=    0 NMatD0=    1 NMtDS0=    0 NMtDT0=    0
 Petite list used in FoFCou.
 Harris En= -34.4763601186606    
 JPrj=0 DoOrth=F DoCkMO=F.
 Initial guess orbital symmetries:
       Occupied  (A') (A') (A') (A') (A') (A') (A") (A")
       Virtual   (A') (A') (A') (A') (A") (A") (A') (A') (A') (A')
                 (A') (A') (A') (A') (A') (A')
 The electronic state of the initial guess is 1-A'.
 Leave Link  401 at Sun Dec 10 07:02:53 2023, MaxMem=   536870912 cpu:               0.4 elap:               0.1
 (Enter /usr/site/hpc/x86_64/glibc-2.17/broadwell/gaussian/g16_a.03/pgi-16.5/g16/l502.exe)
 Keep R1 ints in memory in symmetry-blocked form, NReq=851835.
 FoFCou: FMM=F IPFlag=           0 FMFlag=           0 FMFlg1=           0
         NFxFlg=           0 DoJE=F BraDBF=F KetDBF=F FulRan=T
         wScrn=  0.000000 ICntrl=       600 IOpCl=  0 I1Cent=           0 NGrid=           0
         NMat0=    1 NMatS0=    300 NMatT0=    0 NMatD0=    1 NMtDS0=    0 NMtDT0=    0
 Petite list used in FoFCou.
 Closed shell SCF:
 Using DIIS extrapolation, IDIIS=  1040.
 NGot=   536870912 LenX=   536840576 LenY=   536839559
 Requested convergence on RMS density matrix=1.00D-08 within 128 cycles.
 Requested convergence on MAX density matrix=1.00D-06.
 Requested convergence on             energy=1.00D-06.
 No special actions if energy rises.

 Cycle   1  Pass 1  IDiag  1:
 E= -33.5584456313108    
 DIIS: error= 6.86D-02 at cycle   1 NSaved=   1.
 NSaved= 1 IEnMin= 1 EnMin= -33.5584456313108     IErMin= 1 ErrMin= 6.86D-02
 ErrMax= 6.86D-02  0.00D+00 EMaxC= 1.00D-01 BMatC= 1.02D-01 BMatP= 1.02D-01
 IDIUse=3 WtCom= 3.14D-01 WtEn= 6.86D-01
 Coeff-Com:  0.100D+01
 Coeff-En:   0.100D+01
 Coeff:      0.100D+01
 Gap=     0.604 Goal=   None    Shift=    0.000
 GapD=    0.604 DampG=2.000 DampE=0.500 DampFc=1.0000 IDamp=-1.
 RMSDP=1.48D-02 MaxDP=1.17D-01              OVMax= 9.88D-02

 Cycle   2  Pass 1  IDiag  1:
 E= -33.6210658209297     Delta-E=       -0.062620189619 Rises=F Damp=F
 DIIS: error= 3.72D-02 at cycle   2 NSaved=   2.
 NSaved= 2 IEnMin= 2 EnMin= -33.6210658209297     IErMin= 2 ErrMin= 3.72D-02
 ErrMax= 3.72D-02  0.00D+00 EMaxC= 1.00D-01 BMatC= 3.81D-02 BMatP= 1.02D-01
 IDIUse=3 WtCom= 6.28D-01 WtEn= 3.72D-01
 Coeff-Com:  0.377D+00 0.623D+00
 Coeff-En:   0.109D+00 0.891D+00
 Coeff:      0.277D+00 0.723D+00
 Gap=     0.697 Goal=   None    Shift=    0.000
 RMSDP=6.39D-03 MaxDP=5.41D-02 DE=-6.26D-02 OVMax= 3.56D-02

 Cycle   3  Pass 1  IDiag  1:
 E= -33.6515158513146     Delta-E=       -0.030450030385 Rises=F Damp=F
 DIIS: error= 7.14D-03 at cycle   3 NSaved=   3.
 NSaved= 3 IEnMin= 3 EnMin= -33.6515158513146     IErMin= 3 ErrMin= 7.14D-03
 ErrMax= 7.14D-03  0.00D+00 EMaxC= 1.00D-01 BMatC= 8.92D-04 BMatP= 3.81D-02
 IDIUse=3 WtCom= 9.29D-01 WtEn= 7.14D-02
 Coeff-Com: -0.114D+00-0.167D-01 0.113D+01
 Coeff-En:   0.000D+00 0.000D+00 0.100D+01
 Coeff:     -0.106D+00-0.155D-01 0.112D+01
 Gap=     0.690 Goal=   None    Shift=    0.000
 RMSDP=1.07D-03 MaxDP=8.77D-03 DE=-3.05D-02 OVMax= 8.02D-03

 Cycle   4  Pass 1  IDiag  1:
 E= -33.6524055570288     Delta-E=       -0.000889705714 Rises=F Damp=F
 DIIS: error= 7.48D-04 at cycle   4 NSaved=   4.
 NSaved= 4 IEnMin= 4 EnMin= -33.6524055570288     IErMin= 4 ErrMin= 7.48D-04
 ErrMax= 7.48D-04  0.00D+00 EMaxC= 1.00D-01 BMatC= 5.81D-06 BMatP= 8.92D-04
 IDIUse=3 WtCom= 9.93D-01 WtEn= 7.48D-03
 Coeff-Com:  0.438D-01-0.174D-01-0.528D+00 0.150D+01
 Coeff-En:   0.000D+00 0.000D+00 0.000D+00 0.100D+01
 Coeff:      0.435D-01-0.173D-01-0.524D+00 0.150D+01
 Gap=     0.691 Goal=   None    Shift=    0.000
 RMSDP=2.34D-04 MaxDP=2.01D-03 DE=-8.90D-04 OVMax= 9.53D-04

 Cycle   5  Pass 1  IDiag  1:
 E= -33.6524184969635     Delta-E=       -0.000012939935 Rises=F Damp=F
 DIIS: error= 4.94D-05 at cycle   5 NSaved=   5.
 NSaved= 5 IEnMin= 5 EnMin= -33.6524184969635     IErMin= 5 ErrMin= 4.94D-05
 ErrMax= 4.94D-05  0.00D+00 EMaxC= 1.00D-01 BMatC= 3.74D-08 BMatP= 5.81D-06
 IDIUse=1 WtCom= 1.00D+00 WtEn= 0.00D+00
 Coeff-Com: -0.706D-02 0.315D-02 0.862D-01-0.293D+00 0.121D+01
 Coeff:     -0.706D-02 0.315D-02 0.862D-01-0.293D+00 0.121D+01
 Gap=     0.692 Goal=   None    Shift=    0.000
 RMSDP=1.56D-05 MaxDP=1.48D-04 DE=-1.29D-05 OVMax= 1.01D-04

 Cycle   6  Pass 1  IDiag  1:
 E= -33.6524185892940     Delta-E=       -0.000000092331 Rises=F Damp=F
 DIIS: error= 1.07D-05 at cycle   6 NSaved=   6.
 NSaved= 6 IEnMin= 6 EnMin= -33.6524185892940     IErMin= 6 ErrMin= 1.07D-05
 ErrMax= 1.07D-05  0.00D+00 EMaxC= 1.00D-01 BMatC= 2.11D-09 BMatP= 3.74D-08
 IDIUse=1 WtCom= 1.00D+00 WtEn= 0.00D+00
 Coeff-Com:  0.115D-02-0.400D-03-0.135D-01 0.521D-01-0.385D+00 0.135D+01
 Coeff:      0.115D-02-0.400D-03-0.135D-01 0.521D-01-0.385D+00 0.135D+01
 Gap=     0.692 Goal=   None    Shift=    0.000
 RMSDP=3.83D-06 MaxDP=2.42D-05 DE=-9.23D-08 OVMax= 3.47D-05

 Cycle   7  Pass 1  IDiag  1:
 E= -33.6524185950321     Delta-E=       -0.000000005738 Rises=F Damp=F
 DIIS: error= 2.31D-06 at cycle   7 NSaved=   7.
 NSaved= 7 IEnMin= 7 EnMin= -33.6524185950321     IErMin= 7 ErrMin= 2.31D-06
 ErrMax= 2.31D-06  0.00D+00 EMaxC= 1.00D-01 BMatC= 1.49D-10 BMatP= 2.11D-09
 IDIUse=1 WtCom= 1.00D+00 WtEn= 0.00D+00
 Coeff-Com:  0.460D-03-0.216D-03-0.562D-02 0.188D-01-0.704D-01 0.140D-01
 Coeff-Com:  0.104D+01
 Coeff:      0.460D-03-0.216D-03-0.562D-02 0.188D-01-0.704D-01 0.140D-01
 Coeff:      0.104D+01
 Gap=     0.692 Goal=   None    Shift=    0.000
 RMSDP=9.16D-07 MaxDP=5.41D-06 DE=-5.74D-09 OVMax= 8.47D-06

 Cycle   8  Pass 1  IDiag  1:
 E= -33.6524185953337     Delta-E=       -0.000000000302 Rises=F Damp=F
 DIIS: error= 6.95D-07 at cycle   8 NSaved=   8.
 NSaved= 8 IEnMin= 8 EnMin= -33.6524185953337     IErMin= 8 ErrMin= 6.95D-07
 ErrMax= 6.95D-07  0.00D+00 EMaxC= 1.00D-01 BMatC= 2.45D-11 BMatP= 1.49D-10
 IDIUse=1 WtCom= 1.00D+00 WtEn= 0.00D+00
 Coeff-Com: -0.634D-06-0.237D-04-0.579D-04-0.825D-03 0.309D-01-0.177D+00
 Coeff-Com:  0.254D+00 0.893D+00
 Coeff:     -0.634D-06-0.237D-04-0.579D-04-0.825D-03 0.309D-01-0.177D+00
 Coeff:      0.254D+00 0.893D+00
 Gap=     0.692 Goal=   None    Shift=    0.000
 RMSDP=3.61D-07 MaxDP=1.67D-06 DE=-3.02D-10 OVMax= 2.97D-06

 Cycle   9  Pass 1  IDiag  1:
 E= -33.6524185953729     Delta-E=       -0.000000000039 Rises=F Damp=F
 DIIS: error= 1.82D-07 at cycle   9 NSaved=   9.
 NSaved= 9 IEnMin= 9 EnMin= -33.6524185953729     IErMin= 9 ErrMin= 1.82D-07
 ErrMax= 1.82D-07  0.00D+00 EMaxC= 1.00D-01 BMatC= 6.77D-13 BMatP= 2.45D-11
 IDIUse=1 WtCom= 1.00D+00 WtEn= 0.00D+00
 Coeff-Com:  0.377D-05 0.679D-05-0.134D-04 0.407D-03-0.122D-01 0.725D-01
 Coeff-Com: -0.139D+00-0.348D+00 0.143D+01
 Coeff:      0.377D-05 0.679D-05-0.134D-04 0.407D-03-0.122D-01 0.725D-01
 Coeff:     -0.139D+00-0.348D+00 0.143D+01
 Gap=     0.692 Goal=   None    Shift=    0.000
 RMSDP=1.23D-07 MaxDP=4.84D-07 DE=-3.92D-11 OVMax= 8.28D-07

 Cycle  10  Pass 1  IDiag  1:
 E= -33.6524185953747     Delta-E=       -0.000000000002 Rises=F Damp=F
 DIIS: error= 8.55D-09 at cycle  10 NSaved=  10.
 NSaved=10 IEnMin=10 EnMin= -33.6524185953747     IErMin=10 ErrMin= 8.55D-09
 ErrMax= 8.55D-09  0.00D+00 EMaxC= 1.00D-01 BMatC= 2.84D-15 BMatP= 6.77D-13
 IDIUse=1 WtCom= 1.00D+00 WtEn= 0.00D+00
 Coeff-Com:  0.686D-07-0.183D-05-0.846D-05-0.553D-04 0.268D-02-0.167D-01
 Coeff-Com:  0.328D-01 0.785D-01-0.377D+00 0.128D+01
 Coeff:      0.686D-07-0.183D-05-0.846D-05-0.553D-04 0.268D-02-0.167D-01
 Coeff:      0.328D-01 0.785D-01-0.377D+00 0.128D+01
 Gap=     0.692 Goal=   None    Shift=    0.000
 RMSDP=1.18D-08 MaxDP=5.62D-08 DE=-1.79D-12 OVMax= 6.87D-08

 Cycle  11  Pass 1  IDiag  1:
 E= -33.6524185953747     Delta-E=        0.000000000000 Rises=F Damp=F
 DIIS: error= 3.89D-10 at cycle  11 NSaved=  11.
 NSaved=11 IEnMin=10 EnMin= -33.6524185953747     IErMin=11 ErrMin= 3.89D-10
 ErrMax= 3.89D-10  0.00D+00 EMaxC= 1.00D-01 BMatC= 4.01D-18 BMatP= 2.84D-15
 IDIUse=1 WtCom= 1.00D+00 WtEn= 0.00D+00
 Coeff-Com: -0.740D-07 0.315D-06 0.210D-05 0.682D-05-0.437D-03 0.276D-02
 Coeff-Com: -0.549D-02-0.130D-01 0.640D-01-0.237D+00 0.119D+01
 Coeff:     -0.740D-07 0.315D-06 0.210D-05 0.682D-05-0.437D-03 0.276D-02
 Coeff:     -0.549D-02-0.130D-01 0.640D-01-0.237D+00 0.119D+01
 Gap=     0.692 Goal=   None    Shift=    0.000
 RMSDP=2.42D-10 MaxDP=1.35D-09 DE= 1.42D-14 OVMax= 1.05D-09

 SCF Done:  E(RHF) =  -33.6524185954     A.U. after   11 cycles
            NFock= 11  Conv=0.24D-09     -V/T= 2.2569
 KE= 2.677420574628D+01 PE=-1.200772529936D+02 EE= 4.040408299514D+01
 Leave Link  502 at Sun Dec 10 07:02:54 2023, MaxMem=   536870912 cpu:               1.5 elap:               0.5
 (Enter /usr/site/hpc/x86_64/glibc-2.17/broadwell/gaussian/g16_a.03/pgi-16.5/g16/l801.exe)
 Windowed orbitals will be sorted by symmetry type.
 Range of M.O.s used for correlation:     1    24
 NBasis=    24 NAE=     8 NBE=     8 NFC=     0 NFV=     0
 NROrb=     24 NOA=     8 NOB=     8 NVA=    16 NVB=    16
 Leave Link  801 at Sun Dec 10 07:02:54 2023, MaxMem=   536870912 cpu:               0.1 elap:               0.0
 (Enter /usr/site/hpc/x86_64/glibc-2.17/broadwell/gaussian/g16_a.03/pgi-16.5/g16/l804.exe)
 Closed-shell transformation, MDV=   536870912 ITran=4 ISComp=2.
 Unit  1 TFree=       1025975 TCopy=        210600.
 Semi-Direct transformation.
 ModeAB=           4 MOrb=             8 LenV=     536742507
 LASXX=        22470 LTotXX=       22470 LenRXX=       48678
 LTotAB=       26208 MaxLAS=       56064 LenRXY=           0
 NonZer=       71148 LenScr=      524288 LnRSAI=       56064
 LnScr1=      524288 LExtra=           0 Total=      1153318
 MaxDsk=          -1 SrtSym=           T ITran=            4
 DoSDTr:  NPSUse=  4
 JobTyp=0 Pass  1:  I=   1 to   8.
 (rs|ai) integrals will be sorted in core.
 Complete sort for first half transformation.
 First half transformation complete.
 Complete sort for second half transformation.
 Second half transformation complete.
 Spin components of T(2) and E(2):
     alpha-alpha T2 =       0.9064975614D-02 E2=     -0.2589039541D-01
     alpha-beta  T2 =       0.5990436742D-01 E2=     -0.1765587934D+00
     beta-beta   T2 =       0.9064975614D-02 E2=     -0.2589039541D-01
 ANorm=    0.1038284315D+01
 E2 =    -0.2283395842D+00 EUMP2 =    -0.33880758179578D+02
 Leave Link  804 at Sun Dec 10 07:02:54 2023, MaxMem=   536870912 cpu:               0.2 elap:               0.1
 (Enter /usr/site/hpc/x86_64/glibc-2.17/broadwell/gaussian/g16_a.03/pgi-16.5/g16/l913.exe)
 CIDS:  MDV=   536870912.
 IFCWin=0 IBDFC=1 NFBD=     0     0 NFCmp=     0     0 NFFFC=     0     0
 Using DD3R+UMP44R for 1st iteration.
 Using DD4RQ for 2nd and later iterations.
 Keep R2 and R3 ints in memory in symmetry-blocked form, NReq=864443.
 FoFCou: FMM=F IPFlag=           0 FMFlag=           0 FMFlg1=           0
         NFxFlg=           0 DoJE=F BraDBF=F KetDBF=F FulRan=T
         wScrn=  0.000000 ICntrl=       600 IOpCl=  0 I1Cent=           0 NGrid=           0
         NMat0=    1 NMatS0=    300 NMatT0=    0 NMatD0=    1 NMtDS0=    0 NMtDT0=    0
 Petite list used in FoFCou.
 CIDS: In Core Option IDoMem=           1.
 CCSD(T)
 =======
 Iterations=  50 Convergence= 0.100D-06
 Produce multiple copies of IABC intergrals
 Iteration Nr.   1
 **********************
 DD1Dir will call FoFMem   1 times, MxPair=        72
 NAB=    36 NAA=     0 NBB=     0.
 MP4(R+Q)= -0.74326532D-03
 Maximum subspace dimension=  5
 A-vector RMS=  5.7540988D-03 Max=  1.3212253D-02 conv= 1.00D-05.
 RLE energy=       -0.2343989061
 E3=       -0.54341443D-02        EUMP3=      -0.33886192324D+02
 E4(DQ)=   -0.59088035D-02        UMP4(DQ)=   -0.33892101127D+02
 E4(SDQ)=  -0.79347975D-02        UMP4(SDQ)=  -0.33894127121D+02
 VARIATIONAL ENERGIES WITH THE FIRST-ORDER WAVEFUNCTION:
 DE(Corr)= -0.23424261     E(Corr)=     -33.886661204    
 NORM(A)=   0.10417170D+01
 Iteration Nr.   2
 **********************
 DD1Dir will call FoFMem   1 times, MxPair=        72
 NAB=    36 NAA=     0 NBB=     0.
 A-vector RMS=  9.8298417D-04 Max=  2.7312837D-03 conv= 1.00D-05.
 RLE energy=       -0.2421680174
 DE(Corr)= -0.24022473     E(CORR)=     -33.892643330     Delta=-5.98D-03
 NORM(A)=   0.10455080D+01
 Iteration Nr.   3
 **********************
 DD1Dir will call FoFMem   1 times, MxPair=        72
 NAB=    36 NAA=     0 NBB=     0.
 A-vector RMS=  3.8261808D-04 Max=  1.1494114D-03 conv= 1.00D-05.
 RLE energy=       -0.2427181951
 DE(Corr)= -0.24227093     E(CORR)=     -33.894689530     Delta=-2.05D-03
 NORM(A)=   0.10460687D+01
 Iteration Nr.   4
 **********************
 DD1Dir will call FoFMem   1 times, MxPair=        72
 NAB=    36 NAA=     0 NBB=     0.
 A-vector RMS=  9.2250489D-05 Max=  2.4912257D-04 conv= 1.00D-05.
 RLE energy=       -0.2427649388
 DE(Corr)= -0.24272905     E(CORR)=     -33.895147645     Delta=-4.58D-04
 NORM(A)=   0.10461428D+01
 Iteration Nr.   5
 **********************
 DD1Dir will call FoFMem   1 times, MxPair=        72
 NAB=    36 NAA=     0 NBB=     0.
 A-vector RMS=  4.1426641D-05 Max=  1.5122807D-04 conv= 1.00D-05.
 RLE energy=       -0.2427631625
 DE(Corr)= -0.24276117     E(CORR)=     -33.895179762     Delta=-3.21D-05
 NORM(A)=   0.10461534D+01
 Iteration Nr.   6
 **********************
 DD1Dir will call FoFMem   1 times, MxPair=        72
 NAB=    36 NAA=     0 NBB=     0.
 A-vector RMS=  1.1308249D-05 Max=  4.0327027D-05 conv= 1.00D-05.
 RLE energy=       -0.2427623296
 DE(Corr)= -0.24276332     E(CORR)=     -33.895181916     Delta=-2.15D-06
 NORM(A)=   0.10461569D+01
 Iteration Nr.   7
 **********************
 DD1Dir will call FoFMem   1 times, MxPair=        72
 NAB=    36 NAA=     0 NBB=     0.
 A-vector RMS=  3.3270041D-06 Max=  1.1862708D-05 conv= 1.00D-05.
 RLE energy=       -0.2427632448
 DE(Corr)= -0.24276271     E(CORR)=     -33.895181302     Delta= 6.14D-07
 NORM(A)=   0.10461583D+01
 Iteration Nr.   8
 **********************
 DD1Dir will call FoFMem   1 times, MxPair=        72
 NAB=    36 NAA=     0 NBB=     0.
 A-vector RMS=  5.6699795D-07 Max=  1.7911816D-06 conv= 1.00D-05.
 RLE energy=       -0.2427627561
 DE(Corr)= -0.24276276     E(CORR)=     -33.895181357     Delta=-5.52D-08
 NORM(A)=   0.10461583D+01
 CI/CC converged in    8 iterations to DelEn=-5.52D-08 Conv= 1.00D-07 ErrA1= 5.67D-07 Conv= 1.00D-05
 Wavefunction amplitudes converged. E(Corr)=     -33.895181357    
 Largest amplitude= 5.86D-02
 IPart=  4 IA=    2   12.50% done.
 IPart=  2 IA=    3   24.17% done.
 IPart=  3 IA=    4   35.00% done.
 IPart=  3 IA=    5   45.00% done.
 IPart=  4 IA=    6   54.17% done.
 IPart=  2 IA=    7   62.50% done.
 IPart=  1 IA=    8   70.00% done.
 IPart=  2 IA=   10   82.50% done.
 IPart=  4 IA=   12   91.67% done.
 Time for triples=        0.23 seconds.
 T4(CCSD)= -0.30855760D-02
 T5(CCSD)=  0.52582190D-03
 CCSD(T)= -0.33897741111D+02
 Discarding MO integrals.
 Leave Link  913 at Sun Dec 10 07:02:54 2023, MaxMem=   536870912 cpu:               0.8 elap:               0.2
 (Enter /usr/site/hpc/x86_64/glibc-2.17/broadwell/gaussian/g16_a.03/pgi-16.5/g16/l601.exe)
 Copying SCF densities to generalized density rwf, IOpCl= 0 IROHF=0.

 **********************************************************************

            Population analysis using the SCF density.

 **********************************************************************

 Orbital symmetries:
       Occupied  (A') (A') (A') (A') (A') (A') (A") (A")
       Virtual   (A') (A') (A') (A') (A") (A") (A') (A') (A') (A')
                 (A') (A') (A') (A') (A') (A')
 The electronic state is 1-A'.
 Alpha  occ. eigenvalues --   -1.36206  -1.34993  -0.71849  -0.70616  -0.55979
 Alpha  occ. eigenvalues --   -0.54743  -0.50786  -0.49572
 Alpha virt. eigenvalues --    0.19587   0.20851   0.29845   0.31108   0.79770
 Alpha virt. eigenvalues --    0.80963   0.82720   0.83972   0.85822   0.87117
 Alpha virt. eigenvalues --    1.16724   1.17934   1.21174   1.22424   2.56719
 Alpha virt. eigenvalues --    2.57956
          Condensed to atoms (all electrons):
               1          2          3          4          5          6
     1  O    6.216420   0.264733   0.262459  -0.000000   0.000000   0.000000
     2  H    0.264733   0.382889  -0.023435   0.000001  -0.000000  -0.000000
     3  H    0.262459  -0.023435   0.393176  -0.000000   0.000000   0.000000
     4  O   -0.000000   0.000001  -0.000000   6.215850   0.264905   0.262906
     5  H    0.000000  -0.000000   0.000000   0.264905   0.384535  -0.023438
     6  H    0.000000  -0.000000   0.000000   0.262906  -0.023438   0.390867
 Mulliken charges:
               1
     1  O   -0.743612
     2  H    0.375811
     3  H    0.367799
     4  O   -0.743662
     5  H    0.373998
     6  H    0.369666
 Sum of Mulliken charges =   0.00000
 Mulliken charges with hydrogens summed into heavy atoms:
               1
     1  O   -0.000001
     4  O    0.000001
 Electronic spatial extent (au):  <R**2>=            551.8116
 Charge=              0.0000 electrons
 Dipole moment (field-independent basis, Debye):
    X=             -3.6749    Y=             -3.7247    Z=             -0.0000  Tot=              5.2324
 Quadrupole moment (field-independent basis, Debye-Ang):
   XX=            -10.4730   YY=             -6.8350   ZZ=            -14.9896
   XY=             -4.1495   XZ=             -0.0000   YZ=              0.0000
 Traceless Quadrupole moment (field-independent basis, Debye-Ang):
   XX=              0.2928   YY=              3.9309   ZZ=             -4.2237
   XY=             -4.1495   XZ=             -0.0000   YZ=              0.0000
 Octapole moment (field-independent basis, Debye-Ang**2):
  XXX=             -3.9820  YYY=            -97.4794  ZZZ=             -0.0000  XYY=            -33.0010
  XXY=             -2.3857  XXZ=              0.0000  XZZ=             -0.6897  YZZ=             -0.7074
  YYZ=             -0.0000  XYZ=             -0.0000
 Hexadecapole moment (field-independent basis, Debye-Ang**3):
 XXXX=            -12.3281 YYYY=           -509.7761 ZZZZ=            -12.2230 XXXY=              0.4100
 XXXZ=              0.0000 YYYX=            -84.0656 YYYZ=             -0.0000 ZZZX=              0.0000
 ZZZY=             -0.0000 XXYY=            -94.7576 XXZZ=             -4.5465 YYZZ=           -138.7050
 XXYZ=             -0.0000 YYXZ=             -0.0000 ZZXY=              0.3129
 N-N= 1.924654565685D+01 E-N=-1.200772529978D+02  KE= 2.677420574628D+01
 Symmetry A'   KE= 1.789220572940D+01
 Symmetry A"   KE= 8.882000016880D+00
 Leave Link  601 at Sun Dec 10 07:02:54 2023, MaxMem=   536870912 cpu:               0.1 elap:               0.0
 (Enter /usr/site/hpc/x86_64/glibc-2.17/broadwell/gaussian/g16_a.03/pgi-16.5/g16/l9999.exe)
 1\1\GINC-N033\SP\RCCSD(T)-FC\CEP-31G\H4O2\ROOT\10-Dec-2023\0\\#p CCSD(
 T)/CEP-31G\\H2O_H2O_4930\\0,1\O,0,0.,-0.009833,0.\H,0,-0.799571,-0.580
 965,0.\H,0,0.799571,-0.580965,0.\O,0,-4.861039,-3.479282,0.\H,0,-5.801
 761,-3.763091,0.\H,0,-4.287485,-4.277118,0.\\Version=ES64L-G16RevA.03\
 State=1-A'\HF=-33.6524186\MP2=-33.8807582\MP3=-33.8861923\MP4D=-33.891
 3579\MP4DQ=-33.8921011\MP4SDQ=-33.8941271\CCSD=-33.8951814\CCSD(T)=-33
 .8977411\RMSD=2.417e-10\PG=CS [SG(H4O2)]\\@


 At the touch of love, everyone becomves a poet.
                                -- Plato
 Job cpu time:       0 days  0 hours  0 minutes  7.0 seconds.
 Elapsed time:       0 days  0 hours  0 minutes  2.3 seconds.
 File lengths (MBytes):  RWF=     72 Int=      0 D2E=      0 Chk=      8 Scr=      8
 Normal termination of Gaussian 16 at Sun Dec 10 07:02:54 2023.
