 Entering Gaussian System, Link 0=g16
 Input=H2O_H2O_2273.com
 Output=H2O_H2O_2273.log
 Initial command:
 /usr/site/hpc/x86_64/glibc-2.17/broadwell/gaussian/g16_a.03/pgi-16.5/g16/l1.exe "/gpfs/gpfs1/scratch/c7441090/OH Coord/Gau-1716889.inp" -scrdir="/gpfs/gpfs1/scratch/c7441090/OH Coord/"
 Entering Link 1 = /usr/site/hpc/x86_64/glibc-2.17/broadwell/gaussian/g16_a.03/pgi-16.5/g16/l1.exe PID=   1716890.
  
 Copyright (c) 1988,1990,1992,1993,1995,1998,2003,2009,2016,
            Gaussian, Inc.  All Rights Reserved.
  
 This is part of the Gaussian(R) 16 program.  It is based on
 the Gaussian(R) 09 system (copyright 2009, Gaussian, Inc.),
 the Gaussian(R) 03 system (copyright 2003, Gaussian, Inc.),
 the Gaussian(R) 98 system (copyright 1998, Gaussian, Inc.),
 the Gaussian(R) 94 system (copyright 1995, Gaussian, Inc.),
 the Gaussian 92(TM) system (copyright 1992, Gaussian, Inc.),
 the Gaussian 90(TM) system (copyright 1990, Gaussian, Inc.),
 the Gaussian 88(TM) system (copyright 1988, Gaussian, Inc.),
 the Gaussian 86(TM) system (copyright 1986, Carnegie Mellon
 University), and the Gaussian 82(TM) system (copyright 1983,
 Carnegie Mellon University). Gaussian is a federally registered
 trademark of Gaussian, Inc.
  
 This software contains proprietary and confidential information,
 including trade secrets, belonging to Gaussian, Inc.
  
 This software is provided under written license and may be
 used, copied, transmitted, or stored only in accord with that
 written license.
  
 The following legend is applicable only to US Government
 contracts under FAR:
  
                    RESTRICTED RIGHTS LEGEND
  
 Use, reproduction and disclosure by the US Government is
 subject to restrictions as set forth in subparagraphs (a)
 and (c) of the Commercial Computer Software - Restricted
 Rights clause in FAR 52.227-19.
  
 Gaussian, Inc.
 340 Quinnipiac St., Bldg. 40, Wallingford CT 06492
  
  
 ---------------------------------------------------------------
 Warning -- This program may not be used in any manner that
 competes with the business of Gaussian, Inc. or will provide
 assistance to any competitor of Gaussian, Inc.  The licensee
 of this program is prohibited from giving any competitor of
 Gaussian, Inc. access to this program.  By using this program,
 the user acknowledges that Gaussian, Inc. is engaged in the
 business of creating and licensing software in the field of
 computational chemistry and represents and warrants to the
 licensee that it is not a competitor of Gaussian, Inc. and that
 it will not use this program in any manner prohibited above.
 ---------------------------------------------------------------
  

 Cite this work as:
 Gaussian 16, Revision A.03,
 M. J. Frisch, G. W. Trucks, H. B. Schlegel, G. E. Scuseria, 
 M. A. Robb, J. R. Cheeseman, G. Scalmani, V. Barone, 
 G. A. Petersson, H. Nakatsuji, X. Li, M. Caricato, A. V. Marenich, 
 J. Bloino, B. G. Janesko, R. Gomperts, B. Mennucci, H. P. Hratchian, 
 J. V. Ortiz, A. F. Izmaylov, J. L. Sonnenberg, D. Williams-Young, 
 F. Ding, F. Lipparini, F. Egidi, J. Goings, B. Peng, A. Petrone, 
 T. Henderson, D. Ranasinghe, V. G. Zakrzewski, J. Gao, N. Rega, 
 G. Zheng, W. Liang, M. Hada, M. Ehara, K. Toyota, R. Fukuda, 
 J. Hasegawa, M. Ishida, T. Nakajima, Y. Honda, O. Kitao, H. Nakai, 
 T. Vreven, K. Throssell, J. A. Montgomery, Jr., J. E. Peralta, 
 F. Ogliaro, M. J. Bearpark, J. J. Heyd, E. N. Brothers, K. N. Kudin, 
 V. N. Staroverov, T. A. Keith, R. Kobayashi, J. Normand, 
 K. Raghavachari, A. P. Rendell, J. C. Burant, S. S. Iyengar, 
 J. Tomasi, M. Cossi, J. M. Millam, M. Klene, C. Adamo, R. Cammi, 
 J. W. Ochterski, R. L. Martin, K. Morokuma, O. Farkas, 
 J. B. Foresman, and D. J. Fox, Gaussian, Inc., Wallingford CT, 2016.
 
 ******************************************
 Gaussian 16:  ES64L-G16RevA.03 25-Dec-2016
                10-Dec-2023 
 ******************************************
 %NProcShared=4
 Will use up to    4 processors via shared memory.
 %Mem=4GB
 %Chk=H2O_H2O_2273.chk
 ------------------
 #p CCSD(T)/CEP-31G
 ------------------
 1/38=1,172=1/1;
 2/12=2,17=6,18=5,40=1/2;
 3/5=9,6=1,11=9,25=1,30=1/1,2,3;
 4//1;
 5/5=2,38=5/2;
 8/6=4,9=120000,10=1/1,4;
 9/5=7,14=2/13;
 6/7=2,8=2,9=2,10=2/1;
 99/5=1,9=1/99;
 Leave Link    1 at Sun Dec 10 07:03:14 2023, MaxMem=   536870912 cpu:               0.3 elap:               0.1
 (Enter /usr/site/hpc/x86_64/glibc-2.17/broadwell/gaussian/g16_a.03/pgi-16.5/g16/l101.exe)
 ------------
 H2O_H2O_2273
 ------------
 Symbolic Z-matrix:
 Charge =  0 Multiplicity = 1
 O                     0.       -0.00983   0. 
 H                    -0.79957  -0.58097   0. 
 H                     0.79957  -0.58097   0. 
 O                    -3.1312   -2.23024   0. 
 H                    -3.7534   -1.46974   0. 
 H                    -3.64881  -3.06546   0. 
 
 ITRead=  0  0  0  0  0  0
 MicOpt= -1 -1 -1 -1 -1 -1
 NAtoms=      6 NQM=        6 NQMF=       0 NMMI=      0 NMMIF=      0
                NMic=       0 NMicF=      0.
                    Isotopes and Nuclear Properties:
 (Nuclear quadrupole moments (NQMom) in fm**2, nuclear magnetic moments (NMagM)
  in nuclear magnetons)

  Atom         1           2           3           4           5           6
 IAtWgt=          16           1           1          16           1           1
 AtmWgt=  15.9949146   1.0078250   1.0078250  15.9949146   1.0078250   1.0078250
 NucSpn=           0           1           1           0           1           1
 AtZEff=  -0.0000000  -0.0000000  -0.0000000  -0.0000000  -0.0000000  -0.0000000
 NQMom=    0.0000000   0.0000000   0.0000000   0.0000000   0.0000000   0.0000000
 NMagM=    0.0000000   2.7928460   2.7928460   0.0000000   2.7928460   2.7928460
 AtZNuc=   8.0000000   1.0000000   1.0000000   8.0000000   1.0000000   1.0000000
 Leave Link  101 at Sun Dec 10 07:03:14 2023, MaxMem=   536870912 cpu:               0.8 elap:               0.2
 (Enter /usr/site/hpc/x86_64/glibc-2.17/broadwell/gaussian/g16_a.03/pgi-16.5/g16/l202.exe)
                          Input orientation:                          
 ---------------------------------------------------------------------
 Center     Atomic      Atomic             Coordinates (Angstroms)
 Number     Number       Type             X           Y           Z
 ---------------------------------------------------------------------
      1          8           0        0.000000   -0.009833    0.000000
      2          1           0       -0.799571   -0.580965    0.000000
      3          1           0        0.799571   -0.580965    0.000000
      4          8           0       -3.131198   -2.230242    0.000000
      5          1           0       -3.753401   -1.469736    0.000000
      6          1           0       -3.648813   -3.065455    0.000000
 ---------------------------------------------------------------------
                    Distance matrix (angstroms):
                    1          2          3          4          5
     1  O    0.000000
     2  H    0.982601   0.000000
     3  H    0.982601   1.599142   0.000000
     4  O    3.838570   2.855976   4.262753   0.000000
     5  H    4.027324   3.084644   4.638908   0.982602   0.000000
     6  H    4.759271   3.780327   5.095175   0.982602   1.599143
                    6
     6  H    0.000000
 Stoichiometry    H4O2
 Framework group  CS[SG(H4O2)]
 Deg. of freedom     9
 Full point group                 CS      NOp   2
 Largest Abelian subgroup         CS      NOp   2
 Largest concise Abelian subgroup C1      NOp   1
                         Standard orientation:                         
 ---------------------------------------------------------------------
 Center     Atomic      Atomic             Coordinates (Angstroms)
 Number     Number       Type             X           Y           Z
 ---------------------------------------------------------------------
      1          8           0       -0.016669    2.000971    0.000000
      2          1           0       -0.013295    1.018375    0.000000
      3          1           0        0.911724    2.322828    0.000000
      4          8           0       -0.016669   -1.837599    0.000000
      5          1           0       -0.996941   -1.905230    0.000000
      6          1           0        0.365218   -2.742954    0.000000
 ---------------------------------------------------------------------
 Rotational constants (GHZ):         264.0297288           3.7215744           3.6698469
 Leave Link  202 at Sun Dec 10 07:03:14 2023, MaxMem=   536870912 cpu:               0.2 elap:               0.1
 (Enter /usr/site/hpc/x86_64/glibc-2.17/broadwell/gaussian/g16_a.03/pgi-16.5/g16/l301.exe)
 Standard basis: CEP-31G (6D, 10F)
 Ernie: Thresh=  0.10000D-02 Tol=  0.10000D-05 Strict=F.
 There are    20 symmetry adapted cartesian basis functions of A'  symmetry.
 There are     4 symmetry adapted cartesian basis functions of A"  symmetry.
 There are    20 symmetry adapted basis functions of A'  symmetry.
 There are     4 symmetry adapted basis functions of A"  symmetry.
    24 basis functions,    48 primitive gaussians,    24 cartesian basis functions
     8 alpha electrons        8 beta electrons
       nuclear repulsion energy        22.3913854933 Hartrees.
 IExCor=    0 DFT=F Ex=HF Corr=None ExCW=0 ScaHFX=  1.000000
 ScaDFX=  1.000000  1.000000  1.000000  1.000000 ScalE2=  1.000000  1.000000
 IRadAn=      5 IRanWt=     -1 IRanGd=            0 ICorTp=0 IEmpDi=  4
 NAtoms=    6 NActive=    6 NUniq=    6 SFac= 1.00D+00 NAtFMM=   60 NAOKFM=F Big=F
 Integral buffers will be    131072 words long.
 Raffenetti 1 integral format.
 Two-electron integral symmetry is turned on.
 Leave Link  301 at Sun Dec 10 07:03:14 2023, MaxMem=   536870912 cpu:               0.2 elap:               0.1
 (Enter /usr/site/hpc/x86_64/glibc-2.17/broadwell/gaussian/g16_a.03/pgi-16.5/g16/l302.exe)
 NPDir=0 NMtPBC=     1 NCelOv=     1 NCel=       1 NClECP=     1 NCelD=      1
         NCelK=      1 NCelE2=     1 NClLst=     1 CellRange=     0.0.
 One-electron integrals computed using PRISM.
 One-electron integral symmetry used in STVInt
   2 Symmetry operations used in ECPInt.
 ECPInt:  NShTT=      78 NPrTT=     318 LenC2=      79 LenP2D=     281.
 LDataN:  DoStor=T MaxTD1= 2 Len=   12
 NBasis=    24 RedAO= T EigKep=  3.40D-02  NBF=    20     4
 NBsUse=    24 1.00D-06 EigRej= -1.00D+00 NBFU=    20     4
 Leave Link  302 at Sun Dec 10 07:03:14 2023, MaxMem=   536870912 cpu:               0.5 elap:               0.1
 (Enter /usr/site/hpc/x86_64/glibc-2.17/broadwell/gaussian/g16_a.03/pgi-16.5/g16/l303.exe)
 DipDrv:  MaxL=1.
 Leave Link  303 at Sun Dec 10 07:03:14 2023, MaxMem=   536870912 cpu:               0.1 elap:               0.0
 (Enter /usr/site/hpc/x86_64/glibc-2.17/broadwell/gaussian/g16_a.03/pgi-16.5/g16/l401.exe)
 ExpMin= 1.78D-01 ExpMax= 1.92D+01 ExpMxC= 1.92D+01 IAcc=3 IRadAn=         5 AccDes= 0.00D+00
 Harris functional with IExCor=  205 and IRadAn=       5 diagonalized for initial guess.
 HarFok:  IExCor=  205 AccDes= 0.00D+00 IRadAn=         5 IDoV= 1 UseB2=F ITyADJ=14
 ICtDFT=  3500011 ScaDFX=  1.000000  1.000000  1.000000  1.000000
 FoFCou: FMM=F IPFlag=           0 FMFlag=      100000 FMFlg1=           0
         NFxFlg=           0 DoJE=T BraDBF=F KetDBF=T FulRan=T
         wScrn=  0.000000 ICntrl=       500 IOpCl=  0 I1Cent=   200000004 NGrid=           0
         NMat0=    1 NMatS0=      1 NMatT0=    0 NMatD0=    1 NMtDS0=    0 NMtDT0=    0
 Petite list used in FoFCou.
 Harris En= -34.4771659067631    
 JPrj=0 DoOrth=F DoCkMO=F.
 Initial guess orbital symmetries:
       Occupied  (A') (A') (A') (A') (A') (A') (A") (A")
       Virtual   (A') (A') (A') (A') (A") (A") (A') (A') (A') (A')
                 (A') (A') (A') (A') (A') (A')
 The electronic state of the initial guess is 1-A'.
 Leave Link  401 at Sun Dec 10 07:03:15 2023, MaxMem=   536870912 cpu:               0.5 elap:               0.1
 (Enter /usr/site/hpc/x86_64/glibc-2.17/broadwell/gaussian/g16_a.03/pgi-16.5/g16/l502.exe)
 Keep R1 ints in memory in symmetry-blocked form, NReq=852403.
 FoFCou: FMM=F IPFlag=           0 FMFlag=           0 FMFlg1=           0
         NFxFlg=           0 DoJE=F BraDBF=F KetDBF=F FulRan=T
         wScrn=  0.000000 ICntrl=       600 IOpCl=  0 I1Cent=           0 NGrid=           0
         NMat0=    1 NMatS0=    300 NMatT0=    0 NMatD0=    1 NMtDS0=    0 NMtDT0=    0
 Petite list used in FoFCou.
 Closed shell SCF:
 Using DIIS extrapolation, IDIIS=  1040.
 NGot=   536870912 LenX=   536840576 LenY=   536839559
 Requested convergence on RMS density matrix=1.00D-08 within 128 cycles.
 Requested convergence on MAX density matrix=1.00D-06.
 Requested convergence on             energy=1.00D-06.
 No special actions if energy rises.

 Cycle   1  Pass 1  IDiag  1:
 E= -33.5670772204107    
 DIIS: error= 6.71D-02 at cycle   1 NSaved=   1.
 NSaved= 1 IEnMin= 1 EnMin= -33.5670772204107     IErMin= 1 ErrMin= 6.71D-02
 ErrMax= 6.71D-02  0.00D+00 EMaxC= 1.00D-01 BMatC= 9.90D-02 BMatP= 9.90D-02
 IDIUse=3 WtCom= 3.29D-01 WtEn= 6.71D-01
 Coeff-Com:  0.100D+01
 Coeff-En:   0.100D+01
 Coeff:      0.100D+01
 Gap=     0.588 Goal=   None    Shift=    0.000
 GapD=    0.588 DampG=2.000 DampE=0.500 DampFc=1.0000 IDamp=-1.
 RMSDP=1.44D-02 MaxDP=1.17D-01              OVMax= 9.72D-02

 Cycle   2  Pass 1  IDiag  1:
 E= -33.6273451915991     Delta-E=       -0.060267971188 Rises=F Damp=F
 DIIS: error= 3.63D-02 at cycle   2 NSaved=   2.
 NSaved= 2 IEnMin= 2 EnMin= -33.6273451915991     IErMin= 2 ErrMin= 3.63D-02
 ErrMax= 3.63D-02  0.00D+00 EMaxC= 1.00D-01 BMatC= 3.64D-02 BMatP= 9.90D-02
 IDIUse=3 WtCom= 6.37D-01 WtEn= 3.63D-01
 Coeff-Com:  0.375D+00 0.625D+00
 Coeff-En:   0.109D+00 0.891D+00
 Coeff:      0.278D+00 0.722D+00
 Gap=     0.669 Goal=   None    Shift=    0.000
 RMSDP=6.23D-03 MaxDP=5.29D-02 DE=-6.03D-02 OVMax= 3.49D-02

 Cycle   3  Pass 1  IDiag  1:
 E= -33.6564955467742     Delta-E=       -0.029150355175 Rises=F Damp=F
 DIIS: error= 6.83D-03 at cycle   3 NSaved=   3.
 NSaved= 3 IEnMin= 3 EnMin= -33.6564955467742     IErMin= 3 ErrMin= 6.83D-03
 ErrMax= 6.83D-03  0.00D+00 EMaxC= 1.00D-01 BMatC= 8.24D-04 BMatP= 3.64D-02
 IDIUse=3 WtCom= 9.32D-01 WtEn= 6.83D-02
 Coeff-Com: -0.113D+00-0.190D-01 0.113D+01
 Coeff-En:   0.000D+00 0.000D+00 0.100D+01
 Coeff:     -0.105D+00-0.177D-01 0.112D+01
 Gap=     0.661 Goal=   None    Shift=    0.000
 RMSDP=9.95D-04 MaxDP=8.57D-03 DE=-2.92D-02 OVMax= 7.74D-03

 Cycle   4  Pass 1  IDiag  1:
 E= -33.6573070957714     Delta-E=       -0.000811548997 Rises=F Damp=F
 DIIS: error= 6.84D-04 at cycle   4 NSaved=   4.
 NSaved= 4 IEnMin= 4 EnMin= -33.6573070957714     IErMin= 4 ErrMin= 6.84D-04
 ErrMax= 6.84D-04  0.00D+00 EMaxC= 1.00D-01 BMatC= 5.08D-06 BMatP= 8.24D-04
 IDIUse=3 WtCom= 9.93D-01 WtEn= 6.84D-03
 Coeff-Com:  0.429D-01-0.160D-01-0.527D+00 0.150D+01
 Coeff-En:   0.000D+00 0.000D+00 0.000D+00 0.100D+01
 Coeff:      0.426D-01-0.159D-01-0.524D+00 0.150D+01
 Gap=     0.663 Goal=   None    Shift=    0.000
 RMSDP=2.26D-04 MaxDP=1.89D-03 DE=-8.12D-04 OVMax= 1.00D-03

 Cycle   5  Pass 1  IDiag  1:
 E= -33.6573187135851     Delta-E=       -0.000011617814 Rises=F Damp=F
 DIIS: error= 4.85D-05 at cycle   5 NSaved=   5.
 NSaved= 5 IEnMin= 5 EnMin= -33.6573187135851     IErMin= 5 ErrMin= 4.85D-05
 ErrMax= 4.85D-05  0.00D+00 EMaxC= 1.00D-01 BMatC= 4.58D-08 BMatP= 5.08D-06
 IDIUse=1 WtCom= 1.00D+00 WtEn= 0.00D+00
 Coeff-Com: -0.915D-03 0.749D-03 0.133D-01-0.864D-01 0.107D+01
 Coeff:     -0.915D-03 0.749D-03 0.133D-01-0.864D-01 0.107D+01
 Gap=     0.663 Goal=   None    Shift=    0.000
 RMSDP=1.50D-05 MaxDP=1.73D-04 DE=-1.16D-05 OVMax= 1.13D-04

 Cycle   6  Pass 1  IDiag  1:
 E= -33.6573187957528     Delta-E=       -0.000000082168 Rises=F Damp=F
 DIIS: error= 1.53D-05 at cycle   6 NSaved=   6.
 NSaved= 6 IEnMin= 6 EnMin= -33.6573187957528     IErMin= 6 ErrMin= 1.53D-05
 ErrMax= 1.53D-05  0.00D+00 EMaxC= 1.00D-01 BMatC= 9.00D-09 BMatP= 4.58D-08
 IDIUse=1 WtCom= 1.00D+00 WtEn= 0.00D+00
 Coeff-Com: -0.329D-02 0.135D-02 0.411D-01-0.129D+00 0.286D+00 0.805D+00
 Coeff:     -0.329D-02 0.135D-02 0.411D-01-0.129D+00 0.286D+00 0.805D+00
 Gap=     0.663 Goal=   None    Shift=    0.000
 RMSDP=4.11D-06 MaxDP=4.12D-05 DE=-8.22D-08 OVMax= 3.76D-05

 Cycle   7  Pass 1  IDiag  1:
 E= -33.6573188070163     Delta-E=       -0.000000011263 Rises=F Damp=F
 DIIS: error= 5.38D-06 at cycle   7 NSaved=   7.
 NSaved= 7 IEnMin= 7 EnMin= -33.6573188070163     IErMin= 7 ErrMin= 5.38D-06
 ErrMax= 5.38D-06  0.00D+00 EMaxC= 1.00D-01 BMatC= 5.25D-10 BMatP= 9.00D-09
 IDIUse=1 WtCom= 1.00D+00 WtEn= 0.00D+00
 Coeff-Com:  0.885D-03-0.341D-03-0.110D-01 0.380D-01-0.165D+00-0.179D+00
 Coeff-Com:  0.132D+01
 Coeff:      0.885D-03-0.341D-03-0.110D-01 0.380D-01-0.165D+00-0.179D+00
 Coeff:      0.132D+01
 Gap=     0.663 Goal=   None    Shift=    0.000
 RMSDP=2.00D-06 MaxDP=1.28D-05 DE=-1.13D-08 OVMax= 1.86D-05

 Cycle   8  Pass 1  IDiag  1:
 E= -33.6573188084201     Delta-E=       -0.000000001404 Rises=F Damp=F
 DIIS: error= 9.67D-07 at cycle   8 NSaved=   8.
 NSaved= 8 IEnMin= 8 EnMin= -33.6573188084201     IErMin= 8 ErrMin= 9.67D-07
 ErrMax= 9.67D-07  0.00D+00 EMaxC= 1.00D-01 BMatC= 1.98D-11 BMatP= 5.25D-10
 IDIUse=1 WtCom= 1.00D+00 WtEn= 0.00D+00
 Coeff-Com: -0.202D-05-0.192D-04-0.540D-05-0.684D-03 0.228D-01-0.188D-02
 Coeff-Com: -0.315D+00 0.129D+01
 Coeff:     -0.202D-05-0.192D-04-0.540D-05-0.684D-03 0.228D-01-0.188D-02
 Coeff:     -0.315D+00 0.129D+01
 Gap=     0.663 Goal=   None    Shift=    0.000
 RMSDP=4.74D-07 MaxDP=2.71D-06 DE=-1.40D-09 OVMax= 3.64D-06

 Cycle   9  Pass 1  IDiag  1:
 E= -33.6573188084746     Delta-E=       -0.000000000055 Rises=F Damp=F
 DIIS: error= 1.14D-07 at cycle   9 NSaved=   9.
 NSaved= 9 IEnMin= 9 EnMin= -33.6573188084746     IErMin= 9 ErrMin= 1.14D-07
 ErrMax= 1.14D-07  0.00D+00 EMaxC= 1.00D-01 BMatC= 5.11D-13 BMatP= 1.98D-11
 IDIUse=1 WtCom= 1.00D+00 WtEn= 0.00D+00
 Coeff-Com:  0.542D-05 0.434D-05-0.500D-04 0.374D-03-0.849D-02 0.105D-02
 Coeff-Com:  0.118D+00-0.542D+00 0.143D+01
 Coeff:      0.542D-05 0.434D-05-0.500D-04 0.374D-03-0.849D-02 0.105D-02
 Coeff:      0.118D+00-0.542D+00 0.143D+01
 Gap=     0.663 Goal=   None    Shift=    0.000
 RMSDP=1.03D-07 MaxDP=4.56D-07 DE=-5.46D-11 OVMax= 6.94D-07

 Cycle  10  Pass 1  IDiag  1:
 E= -33.6573188084760     Delta-E=       -0.000000000001 Rises=F Damp=F
 DIIS: error= 9.95D-09 at cycle  10 NSaved=  10.
 NSaved=10 IEnMin=10 EnMin= -33.6573188084760     IErMin=10 ErrMin= 9.95D-09
 ErrMax= 9.95D-09  0.00D+00 EMaxC= 1.00D-01 BMatC= 4.03D-15 BMatP= 5.11D-13
 IDIUse=1 WtCom= 1.00D+00 WtEn= 0.00D+00
 Coeff-Com:  0.124D-06-0.134D-05-0.548D-05-0.235D-04 0.160D-02-0.505D-03
 Coeff-Com: -0.238D-01 0.114D+00-0.375D+00 0.128D+01
 Coeff:      0.124D-06-0.134D-05-0.548D-05-0.235D-04 0.160D-02-0.505D-03
 Coeff:     -0.238D-01 0.114D+00-0.375D+00 0.128D+01
 Gap=     0.663 Goal=   None    Shift=    0.000
 RMSDP=1.30D-08 MaxDP=5.99D-08 DE=-1.38D-12 OVMax= 7.98D-08

 Cycle  11  Pass 1  IDiag  1:
 E= -33.6573188084761     Delta-E=       -0.000000000000 Rises=F Damp=F
 DIIS: error= 6.17D-10 at cycle  11 NSaved=  11.
 NSaved=11 IEnMin=11 EnMin= -33.6573188084761     IErMin=11 ErrMin= 6.17D-10
 ErrMax= 6.17D-10  0.00D+00 EMaxC= 1.00D-01 BMatC= 1.51D-17 BMatP= 4.03D-15
 IDIUse=1 WtCom= 1.00D+00 WtEn= 0.00D+00
 Coeff-Com: -0.778D-07 0.235D-06 0.156D-05 0.146D-05-0.254D-03 0.927D-04
 Coeff-Com:  0.384D-02-0.187D-01 0.634D-01-0.254D+00 0.121D+01
 Coeff:     -0.778D-07 0.235D-06 0.156D-05 0.146D-05-0.254D-03 0.927D-04
 Coeff:      0.384D-02-0.187D-01 0.634D-01-0.254D+00 0.121D+01
 Gap=     0.663 Goal=   None    Shift=    0.000
 RMSDP=6.10D-10 MaxDP=3.45D-09 DE=-5.68D-14 OVMax= 3.28D-09

 SCF Done:  E(RHF) =  -33.6573188085     A.U. after   11 cycles
            NFock= 11  Conv=0.61D-09     -V/T= 2.2567
 KE= 2.678336367661D+01 PE=-1.264019295534D+02 EE= 4.356986157497D+01
 Leave Link  502 at Sun Dec 10 07:03:15 2023, MaxMem=   536870912 cpu:               0.4 elap:               0.1
 (Enter /usr/site/hpc/x86_64/glibc-2.17/broadwell/gaussian/g16_a.03/pgi-16.5/g16/l801.exe)
 Windowed orbitals will be sorted by symmetry type.
 Range of M.O.s used for correlation:     1    24
 NBasis=    24 NAE=     8 NBE=     8 NFC=     0 NFV=     0
 NROrb=     24 NOA=     8 NOB=     8 NVA=    16 NVB=    16
 Leave Link  801 at Sun Dec 10 07:03:15 2023, MaxMem=   536870912 cpu:               0.1 elap:               0.0
 (Enter /usr/site/hpc/x86_64/glibc-2.17/broadwell/gaussian/g16_a.03/pgi-16.5/g16/l804.exe)
 Closed-shell transformation, MDV=   536870912 ITran=4 ISComp=2.
 Unit  1 TFree=       1025975 TCopy=        210600.
 Semi-Direct transformation.
 ModeAB=           2 MOrb=             8 LenV=     536741926
 LASXX=        22470 LTotXX=       22470 LenRXX=       22470
 LTotAB=       26208 MaxLAS=       57600 LenRXY=       57600
 NonZer=       62016 LenScr=      524288 LnRSAI=           0
 LnScr1=           0 LExtra=           0 Total=       604358
 MaxDsk=          -1 SrtSym=           F ITran=            4
 DoSDTr:  NPSUse=  4
 JobTyp=0 Pass  1:  I=   1 to   8.
 (rs|ai) integrals will be sorted in core.
 Complete sort for first half transformation.
 First half transformation complete.
 Complete sort for second half transformation.
 Second half transformation complete.
 Spin components of T(2) and E(2):
     alpha-alpha T2 =       0.9072459524D-02 E2=     -0.2596228132D-01
     alpha-beta  T2 =       0.5971542863D-01 E2=     -0.1765246742D+00
     beta-beta   T2 =       0.9072459524D-02 E2=     -0.2596228132D-01
 ANorm=    0.1038200533D+01
 E2 =    -0.2284492368D+00 EUMP2 =    -0.33885768045313D+02
 Leave Link  804 at Sun Dec 10 07:03:15 2023, MaxMem=   536870912 cpu:               0.2 elap:               0.1
 (Enter /usr/site/hpc/x86_64/glibc-2.17/broadwell/gaussian/g16_a.03/pgi-16.5/g16/l913.exe)
 CIDS:  MDV=   536870912.
 IFCWin=0 IBDFC=1 NFBD=     0     0 NFCmp=     0     0 NFFFC=     0     0
 Using DD3R+UMP44R for 1st iteration.
 Using DD4RQ for 2nd and later iterations.
 Keep R2 and R3 ints in memory in symmetry-blocked form, NReq=865011.
 FoFCou: FMM=F IPFlag=           0 FMFlag=           0 FMFlg1=           0
         NFxFlg=           0 DoJE=F BraDBF=F KetDBF=F FulRan=T
         wScrn=  0.000000 ICntrl=       600 IOpCl=  0 I1Cent=           0 NGrid=           0
         NMat0=    1 NMatS0=    300 NMatT0=    0 NMatD0=    1 NMtDS0=    0 NMtDT0=    0
 Petite list used in FoFCou.
 CIDS: In Core Option IDoMem=           1.
 CCSD(T)
 =======
 Iterations=  50 Convergence= 0.100D-06
 Produce multiple copies of IABC intergrals
 Iteration Nr.   1
 **********************
 DD1Dir will call FoFMem   1 times, MxPair=        72
 NAB=    36 NAA=     0 NBB=     0.
 MP4(R+Q)= -0.75278174D-03
 Maximum subspace dimension=  5
 A-vector RMS=  5.8222815D-03 Max=  1.2975312D-02 conv= 1.00D-05.
 RLE energy=       -0.2344016788
 E3=       -0.53260486D-02        EUMP3=      -0.33891094094D+02
 E4(DQ)=   -0.58848523D-02        UMP4(DQ)=   -0.33896978946D+02
 E4(SDQ)=  -0.79526039D-02        UMP4(SDQ)=  -0.33899046698D+02
 VARIATIONAL ENERGIES WITH THE FIRST-ORDER WAVEFUNCTION:
 DE(Corr)= -0.23425087     E(Corr)=     -33.891569676    
 NORM(A)=   0.10415996D+01
 Iteration Nr.   2
 **********************
 DD1Dir will call FoFMem   1 times, MxPair=        72
 NAB=    36 NAA=     0 NBB=     0.
 A-vector RMS=  9.7279415D-04 Max=  2.6785999D-03 conv= 1.00D-05.
 RLE energy=       -0.2421596330
 DE(Corr)= -0.24023596     E(CORR)=     -33.897554770     Delta=-5.99D-03
 NORM(A)=   0.10453706D+01
 Iteration Nr.   3
 **********************
 DD1Dir will call FoFMem   1 times, MxPair=        72
 NAB=    36 NAA=     0 NBB=     0.
 A-vector RMS=  3.8224759D-04 Max=  8.6126036D-04 conv= 1.00D-05.
 RLE energy=       -0.2427093144
 DE(Corr)= -0.24226138     E(CORR)=     -33.899580190     Delta=-2.03D-03
 NORM(A)=   0.10459255D+01
 Iteration Nr.   4
 **********************
 DD1Dir will call FoFMem   1 times, MxPair=        72
 NAB=    36 NAA=     0 NBB=     0.
 A-vector RMS=  9.2886741D-05 Max=  2.4743378D-04 conv= 1.00D-05.
 RLE energy=       -0.2427566299
 DE(Corr)= -0.24272123     E(CORR)=     -33.900040042     Delta=-4.60D-04
 NORM(A)=   0.10459954D+01
 Iteration Nr.   5
 **********************
 DD1Dir will call FoFMem   1 times, MxPair=        72
 NAB=    36 NAA=     0 NBB=     0.
 A-vector RMS=  4.0115249D-05 Max=  1.1101852D-04 conv= 1.00D-05.
 RLE energy=       -0.2427557775
 DE(Corr)= -0.24275315     E(CORR)=     -33.900071958     Delta=-3.19D-05
 NORM(A)=   0.10460046D+01
 Iteration Nr.   6
 **********************
 DD1Dir will call FoFMem   1 times, MxPair=        72
 NAB=    36 NAA=     0 NBB=     0.
 A-vector RMS=  1.4135001D-05 Max=  4.9812582D-05 conv= 1.00D-05.
 RLE energy=       -0.2427531779
 DE(Corr)= -0.24275563     E(CORR)=     -33.900074435     Delta=-2.48D-06
 NORM(A)=   0.10460070D+01
 Iteration Nr.   7
 **********************
 DD1Dir will call FoFMem   1 times, MxPair=        72
 NAB=    36 NAA=     0 NBB=     0.
 A-vector RMS=  4.6326194D-06 Max=  1.4049034D-05 conv= 1.00D-05.
 RLE energy=       -0.2427549499
 DE(Corr)= -0.24275516     E(CORR)=     -33.900073969     Delta= 4.66D-07
 NORM(A)=   0.10460087D+01
 Iteration Nr.   8
 **********************
 DD1Dir will call FoFMem   1 times, MxPair=        72
 NAB=    36 NAA=     0 NBB=     0.
 A-vector RMS=  1.4889637D-06 Max=  4.7177021D-06 conv= 1.00D-05.
 RLE energy=       -0.2427547792
 DE(Corr)= -0.24275492     E(CORR)=     -33.900073725     Delta= 2.43D-07
 NORM(A)=   0.10460090D+01
 Iteration Nr.   9
 **********************
 DD1Dir will call FoFMem   1 times, MxPair=        72
 NAB=    36 NAA=     0 NBB=     0.
 A-vector RMS=  3.8020777D-07 Max=  1.9267639D-06 conv= 1.00D-05.
 RLE energy=       -0.2427549773
 DE(Corr)= -0.24275502     E(CORR)=     -33.900073828     Delta=-1.02D-07
 NORM(A)=   0.10460092D+01
 Iteration Nr.  10
 **********************
 DD1Dir will call FoFMem   1 times, MxPair=        72
 NAB=    36 NAA=     0 NBB=     0.
 A-vector RMS=  1.1697397D-07 Max=  6.8720157D-07 conv= 1.00D-05.
 RLE energy=       -0.2427550957
 DE(Corr)= -0.24275508     E(CORR)=     -33.900073884     Delta=-5.63D-08
 NORM(A)=   0.10460093D+01
 CI/CC converged in   10 iterations to DelEn=-5.63D-08 Conv= 1.00D-07 ErrA1= 1.17D-07 Conv= 1.00D-05
 Wavefunction amplitudes converged. E(Corr)=     -33.900073884    
 Largest amplitude= 5.57D-02
 IPart=  4 IA=    2   12.50% done.
 IPart=  2 IA=    3   24.17% done.
 IPart=  3 IA=    4   35.00% done.
 IPart=  3 IA=    5   45.00% done.
 IPart=  2 IA=    6   54.17% done.
 IPart=  1 IA=    7   62.50% done.
 IPart=  4 IA=    8   70.00% done.
 IPart=  2 IA=   10   82.50% done.
 IPart=  4 IA=   12   91.67% done.
 Time for triples=        0.25 seconds.
 T4(CCSD)= -0.31303857D-02
 T5(CCSD)=  0.53520553D-03
 CCSD(T)= -0.33902669064D+02
 Discarding MO integrals.
 Leave Link  913 at Sun Dec 10 07:03:15 2023, MaxMem=   536870912 cpu:               1.0 elap:               0.2
 (Enter /usr/site/hpc/x86_64/glibc-2.17/broadwell/gaussian/g16_a.03/pgi-16.5/g16/l601.exe)
 Copying SCF densities to generalized density rwf, IOpCl= 0 IROHF=0.

 **********************************************************************

            Population analysis using the SCF density.

 **********************************************************************

 Orbital symmetries:
       Occupied  (A') (A') (A') (A') (A') (A') (A") (A")
       Virtual   (A') (A') (A') (A') (A") (A") (A') (A') (A') (A')
                 (A') (A') (A') (A') (A') (A')
 The electronic state is 1-A'.
 Alpha  occ. eigenvalues --   -1.37125  -1.33714  -0.72798  -0.69372  -0.57212
 Alpha  occ. eigenvalues --   -0.53583  -0.51768  -0.48370
 Alpha virt. eigenvalues --    0.17945   0.23402   0.29203   0.33692   0.78669
 Alpha virt. eigenvalues --    0.82237   0.82842   0.85298   0.87767   0.89114
 Alpha virt. eigenvalues --    1.15894   1.19834   1.20528   1.32494   2.54223
 Alpha virt. eigenvalues --    2.72705
          Condensed to atoms (all electrons):
               1          2          3          4          5          6
     1  O    6.232359   0.268903   0.263728  -0.000480   0.000044   0.000007
     2  H    0.268903   0.356845  -0.022686   0.002223  -0.000135  -0.000014
     3  H    0.263728  -0.022686   0.391226   0.000015  -0.000000  -0.000000
     4  O   -0.000480   0.002223   0.000015   6.225836   0.265090   0.267672
     5  H    0.000044  -0.000135  -0.000000   0.265090   0.377698  -0.022645
     6  H    0.000007  -0.000014  -0.000000   0.267672  -0.022645   0.372595
 Mulliken charges:
               1
     1  O   -0.764561
     2  H    0.394866
     3  H    0.367717
     4  O   -0.760355
     5  H    0.379948
     6  H    0.382385
 Sum of Mulliken charges =  -0.00000
 Mulliken charges with hydrogens summed into heavy atoms:
               1
     1  O   -0.001978
     4  O    0.001978
 Electronic spatial extent (au):  <R**2>=            252.2308
 Charge=             -0.0000 electrons
 Dipole moment (field-independent basis, Debye):
    X=              0.7519    Y=             -3.9756    Z=              0.0000  Tot=              4.0460
 Quadrupole moment (field-independent basis, Debye-Ang):
   XX=             -9.7593   YY=             -7.9015   ZZ=            -14.9989
   XY=              6.9889   XZ=              0.0000   YZ=              0.0000
 Traceless Quadrupole moment (field-independent basis, Debye-Ang):
   XX=              1.1273   YY=              2.9851   ZZ=             -4.1124
   XY=              6.9889   XZ=              0.0000   YZ=              0.0000
 Octapole moment (field-independent basis, Debye-Ang**2):
  XXX=             -0.0627  YYY=            -42.9361  ZZZ=              0.0000  XYY=             11.2130
  XXY=             -1.9089  XXZ=              0.0000  XZZ=              0.1402  YZZ=             -0.7859
  YYZ=              0.0000  XYZ=              0.0000
 Hexadecapole moment (field-independent basis, Debye-Ang**3):
 XXXX=            -11.3477 YYYY=           -229.3445 ZZZZ=            -12.2410 XXXY=              3.7215
 XXXZ=              0.0000 YYYX=             23.1301 YYYZ=              0.0000 ZZZX=              0.0000
 ZZZY=              0.0000 XXYY=            -37.9880 XXZZ=             -4.5319 YYZZ=            -60.1867
 XXYZ=              0.0000 YYXZ=              0.0000 ZZXY=             -0.9106
 N-N= 2.239138549330D+01 E-N=-1.264019295525D+02  KE= 2.678336367661D+01
 Symmetry A'   KE= 1.791144263181D+01
 Symmetry A"   KE= 8.871921044799D+00
 Leave Link  601 at Sun Dec 10 07:03:15 2023, MaxMem=   536870912 cpu:               0.1 elap:               0.0
 (Enter /usr/site/hpc/x86_64/glibc-2.17/broadwell/gaussian/g16_a.03/pgi-16.5/g16/l9999.exe)
 1\1\GINC-N044\SP\RCCSD(T)-FC\CEP-31G\H4O2\ROOT\10-Dec-2023\0\\#p CCSD(
 T)/CEP-31G\\H2O_H2O_2273\\0,1\O,0,0.,-0.009833,0.\H,0,-0.799571,-0.580
 965,0.\H,0,0.799571,-0.580965,0.\O,0,-3.131198,-2.230242,0.\H,0,-3.753
 401,-1.469736,0.\H,0,-3.648813,-3.065455,0.\\Version=ES64L-G16RevA.03\
 State=1-A'\HF=-33.6573188\MP2=-33.885768\MP3=-33.8910941\MP4D=-33.8962
 262\MP4DQ=-33.8969789\MP4SDQ=-33.8990467\CCSD=-33.9000739\CCSD(T)=-33.
 9026691\RMSD=6.098e-10\PG=CS [SG(H4O2)]\\@


 THOSE WHO ASPIRE NOT TO GUESS AND DIVINE,
 BUT TO DISCOVER AND KNOW, WHO PROPOSE NOT TO DEVISE 
 MIMIC AND FABULOUS WORLDS OF THEIR OWN, BUT TO 
 EXAMINE AND DISSECT THE NATURE OF THIS VERY WORLD 
 ITSELF, MUST GO TO THE FACTS THEMSELVES FOR EVERYTHING.

                               -- FRANCIS BACON, 1620
 Job cpu time:       0 days  0 hours  0 minutes  4.6 seconds.
 Elapsed time:       0 days  0 hours  0 minutes  1.3 seconds.
 File lengths (MBytes):  RWF=     72 Int=      0 D2E=      0 Chk=      8 Scr=      8
 Normal termination of Gaussian 16 at Sun Dec 10 07:03:15 2023.
