 Entering Gaussian System, Link 0=g16
 Input=H2O_H2O_4206.com
 Output=H2O_H2O_4206.log
 Initial command:
 /usr/site/hpc/x86_64/glibc-2.17/broadwell/gaussian/g16_a.03/pgi-16.5/g16/l1.exe "/gpfs/gpfs1/scratch/c7441090/OH Coord/Gau-1273866.inp" -scrdir="/gpfs/gpfs1/scratch/c7441090/OH Coord/"
 Entering Link 1 = /usr/site/hpc/x86_64/glibc-2.17/broadwell/gaussian/g16_a.03/pgi-16.5/g16/l1.exe PID=   1273867.
  
 Copyright (c) 1988,1990,1992,1993,1995,1998,2003,2009,2016,
            Gaussian, Inc.  All Rights Reserved.
  
 This is part of the Gaussian(R) 16 program.  It is based on
 the Gaussian(R) 09 system (copyright 2009, Gaussian, Inc.),
 the Gaussian(R) 03 system (copyright 2003, Gaussian, Inc.),
 the Gaussian(R) 98 system (copyright 1998, Gaussian, Inc.),
 the Gaussian(R) 94 system (copyright 1995, Gaussian, Inc.),
 the Gaussian 92(TM) system (copyright 1992, Gaussian, Inc.),
 the Gaussian 90(TM) system (copyright 1990, Gaussian, Inc.),
 the Gaussian 88(TM) system (copyright 1988, Gaussian, Inc.),
 the Gaussian 86(TM) system (copyright 1986, Carnegie Mellon
 University), and the Gaussian 82(TM) system (copyright 1983,
 Carnegie Mellon University). Gaussian is a federally registered
 trademark of Gaussian, Inc.
  
 This software contains proprietary and confidential information,
 including trade secrets, belonging to Gaussian, Inc.
  
 This software is provided under written license and may be
 used, copied, transmitted, or stored only in accord with that
 written license.
  
 The following legend is applicable only to US Government
 contracts under FAR:
  
                    RESTRICTED RIGHTS LEGEND
  
 Use, reproduction and disclosure by the US Government is
 subject to restrictions as set forth in subparagraphs (a)
 and (c) of the Commercial Computer Software - Restricted
 Rights clause in FAR 52.227-19.
  
 Gaussian, Inc.
 340 Quinnipiac St., Bldg. 40, Wallingford CT 06492
  
  
 ---------------------------------------------------------------
 Warning -- This program may not be used in any manner that
 competes with the business of Gaussian, Inc. or will provide
 assistance to any competitor of Gaussian, Inc.  The licensee
 of this program is prohibited from giving any competitor of
 Gaussian, Inc. access to this program.  By using this program,
 the user acknowledges that Gaussian, Inc. is engaged in the
 business of creating and licensing software in the field of
 computational chemistry and represents and warrants to the
 licensee that it is not a competitor of Gaussian, Inc. and that
 it will not use this program in any manner prohibited above.
 ---------------------------------------------------------------
  

 Cite this work as:
 Gaussian 16, Revision A.03,
 M. J. Frisch, G. W. Trucks, H. B. Schlegel, G. E. Scuseria, 
 M. A. Robb, J. R. Cheeseman, G. Scalmani, V. Barone, 
 G. A. Petersson, H. Nakatsuji, X. Li, M. Caricato, A. V. Marenich, 
 J. Bloino, B. G. Janesko, R. Gomperts, B. Mennucci, H. P. Hratchian, 
 J. V. Ortiz, A. F. Izmaylov, J. L. Sonnenberg, D. Williams-Young, 
 F. Ding, F. Lipparini, F. Egidi, J. Goings, B. Peng, A. Petrone, 
 T. Henderson, D. Ranasinghe, V. G. Zakrzewski, J. Gao, N. Rega, 
 G. Zheng, W. Liang, M. Hada, M. Ehara, K. Toyota, R. Fukuda, 
 J. Hasegawa, M. Ishida, T. Nakajima, Y. Honda, O. Kitao, H. Nakai, 
 T. Vreven, K. Throssell, J. A. Montgomery, Jr., J. E. Peralta, 
 F. Ogliaro, M. J. Bearpark, J. J. Heyd, E. N. Brothers, K. N. Kudin, 
 V. N. Staroverov, T. A. Keith, R. Kobayashi, J. Normand, 
 K. Raghavachari, A. P. Rendell, J. C. Burant, S. S. Iyengar, 
 J. Tomasi, M. Cossi, J. M. Millam, M. Klene, C. Adamo, R. Cammi, 
 J. W. Ochterski, R. L. Martin, K. Morokuma, O. Farkas, 
 J. B. Foresman, and D. J. Fox, Gaussian, Inc., Wallingford CT, 2016.
 
 ******************************************
 Gaussian 16:  ES64L-G16RevA.03 25-Dec-2016
                10-Dec-2023 
 ******************************************
 %NProcShared=4
 Will use up to    4 processors via shared memory.
 %Mem=4GB
 %Chk=H2O_H2O_4206.chk
 ------------------
 #p CCSD(T)/CEP-31G
 ------------------
 1/38=1,172=1/1;
 2/12=2,17=6,18=5,40=1/2;
 3/5=9,6=1,11=9,25=1,30=1/1,2,3;
 4//1;
 5/5=2,38=5/2;
 8/6=4,9=120000,10=1/1,4;
 9/5=7,14=2/13;
 6/7=2,8=2,9=2,10=2/1;
 99/5=1,9=1/99;
 Leave Link    1 at Sun Dec 10 06:48:41 2023, MaxMem=   536870912 cpu:               0.2 elap:               0.1
 (Enter /usr/site/hpc/x86_64/glibc-2.17/broadwell/gaussian/g16_a.03/pgi-16.5/g16/l101.exe)
 ------------
 H2O_H2O_4206
 ------------
 Symbolic Z-matrix:
 Charge =  0 Multiplicity = 1
 O                     0.       -0.00983   0. 
 H                    -0.79957  -0.58097   0. 
 H                     0.79957  -0.58097   0. 
 O                    -4.391    -3.14288   0. 
 H                    -5.34827  -3.36455   0. 
 H                    -3.87086  -3.97652   0. 
 
 ITRead=  0  0  0  0  0  0
 MicOpt= -1 -1 -1 -1 -1 -1
 NAtoms=      6 NQM=        6 NQMF=       0 NMMI=      0 NMMIF=      0
                NMic=       0 NMicF=      0.
                    Isotopes and Nuclear Properties:
 (Nuclear quadrupole moments (NQMom) in fm**2, nuclear magnetic moments (NMagM)
  in nuclear magnetons)

  Atom         1           2           3           4           5           6
 IAtWgt=          16           1           1          16           1           1
 AtmWgt=  15.9949146   1.0078250   1.0078250  15.9949146   1.0078250   1.0078250
 NucSpn=           0           1           1           0           1           1
 AtZEff=  -0.0000000  -0.0000000  -0.0000000  -0.0000000  -0.0000000  -0.0000000
 NQMom=    0.0000000   0.0000000   0.0000000   0.0000000   0.0000000   0.0000000
 NMagM=    0.0000000   2.7928460   2.7928460   0.0000000   2.7928460   2.7928460
 AtZNuc=   8.0000000   1.0000000   1.0000000   8.0000000   1.0000000   1.0000000
 Leave Link  101 at Sun Dec 10 06:48:41 2023, MaxMem=   536870912 cpu:               0.3 elap:               0.1
 (Enter /usr/site/hpc/x86_64/glibc-2.17/broadwell/gaussian/g16_a.03/pgi-16.5/g16/l202.exe)
                          Input orientation:                          
 ---------------------------------------------------------------------
 Center     Atomic      Atomic             Coordinates (Angstroms)
 Number     Number       Type             X           Y           Z
 ---------------------------------------------------------------------
      1          8           0        0.000000   -0.009833    0.000000
      2          1           0       -0.799571   -0.580965    0.000000
      3          1           0        0.799571   -0.580965    0.000000
      4          8           0       -4.391003   -3.142880    0.000000
      5          1           0       -5.348273   -3.364554    0.000000
      6          1           0       -3.870858   -3.976520    0.000000
 ---------------------------------------------------------------------
                    Distance matrix (angstroms):
                    1          2          3          4          5
     1  O    0.000000
     2  H    0.982601   0.000000
     3  H    0.982601   1.599142   0.000000
     4  O    5.394153   4.411552   5.788391   0.000000
     5  H    6.313333   5.332828   6.748656   0.982601   0.000000
     6  H    5.542395   4.578493   5.774314   0.982602   1.599143
                    6
     6  H    0.000000
 Stoichiometry    H4O2
 Framework group  CS[SG(H4O2)]
 Deg. of freedom     9
 Full point group                 CS      NOp   2
 Largest Abelian subgroup         CS      NOp   2
 Largest concise Abelian subgroup C1      NOp   1
                         Standard orientation:                         
 ---------------------------------------------------------------------
 Center     Atomic      Atomic             Coordinates (Angstroms)
 Number     Number       Type             X           Y           Z
 ---------------------------------------------------------------------
      1          8           0        0.076750    2.778689   -0.000000
      2          1           0        0.076241    1.796087   -0.000000
      3          1           0       -0.852578    3.097837    0.000000
      4          8           0        0.076750   -2.615465   -0.000000
      5          1           0        0.452305   -3.523465   -0.000000
      6          1           0       -0.903970   -2.676248    0.000000
 ---------------------------------------------------------------------
 Rotational constants (GHZ):         265.0805555           1.9032857           1.8897174
 Leave Link  202 at Sun Dec 10 06:48:41 2023, MaxMem=   536870912 cpu:               0.0 elap:               0.0
 (Enter /usr/site/hpc/x86_64/glibc-2.17/broadwell/gaussian/g16_a.03/pgi-16.5/g16/l301.exe)
 Standard basis: CEP-31G (6D, 10F)
 Ernie: Thresh=  0.10000D-02 Tol=  0.10000D-05 Strict=F.
 There are    20 symmetry adapted cartesian basis functions of A'  symmetry.
 There are     4 symmetry adapted cartesian basis functions of A"  symmetry.
 There are    20 symmetry adapted basis functions of A'  symmetry.
 There are     4 symmetry adapted basis functions of A"  symmetry.
    24 basis functions,    48 primitive gaussians,    24 cartesian basis functions
     8 alpha electrons        8 beta electrons
       nuclear repulsion energy        19.8475143687 Hartrees.
 IExCor=    0 DFT=F Ex=HF Corr=None ExCW=0 ScaHFX=  1.000000
 ScaDFX=  1.000000  1.000000  1.000000  1.000000 ScalE2=  1.000000  1.000000
 IRadAn=      5 IRanWt=     -1 IRanGd=            0 ICorTp=0 IEmpDi=  4
 NAtoms=    6 NActive=    6 NUniq=    6 SFac= 1.00D+00 NAtFMM=   60 NAOKFM=F Big=F
 Integral buffers will be    131072 words long.
 Raffenetti 1 integral format.
 Two-electron integral symmetry is turned on.
 Leave Link  301 at Sun Dec 10 06:48:41 2023, MaxMem=   536870912 cpu:               0.2 elap:               0.1
 (Enter /usr/site/hpc/x86_64/glibc-2.17/broadwell/gaussian/g16_a.03/pgi-16.5/g16/l302.exe)
 NPDir=0 NMtPBC=     1 NCelOv=     1 NCel=       1 NClECP=     1 NCelD=      1
         NCelK=      1 NCelE2=     1 NClLst=     1 CellRange=     0.0.
 One-electron integrals computed using PRISM.
 One-electron integral symmetry used in STVInt
   2 Symmetry operations used in ECPInt.
 ECPInt:  NShTT=      78 NPrTT=     318 LenC2=      79 LenP2D=     255.
 LDataN:  DoStor=T MaxTD1= 2 Len=   12
 NBasis=    24 RedAO= T EigKep=  3.84D-02  NBF=    20     4
 NBsUse=    24 1.00D-06 EigRej= -1.00D+00 NBFU=    20     4
 Leave Link  302 at Sun Dec 10 06:48:42 2023, MaxMem=   536870912 cpu:               0.3 elap:               0.1
 (Enter /usr/site/hpc/x86_64/glibc-2.17/broadwell/gaussian/g16_a.03/pgi-16.5/g16/l303.exe)
 DipDrv:  MaxL=1.
 Leave Link  303 at Sun Dec 10 06:48:42 2023, MaxMem=   536870912 cpu:               0.1 elap:               0.0
 (Enter /usr/site/hpc/x86_64/glibc-2.17/broadwell/gaussian/g16_a.03/pgi-16.5/g16/l401.exe)
 ExpMin= 1.78D-01 ExpMax= 1.92D+01 ExpMxC= 1.92D+01 IAcc=3 IRadAn=         5 AccDes= 0.00D+00
 Harris functional with IExCor=  205 and IRadAn=       5 diagonalized for initial guess.
 HarFok:  IExCor=  205 AccDes= 0.00D+00 IRadAn=         5 IDoV= 1 UseB2=F ITyADJ=14
 ICtDFT=  3500011 ScaDFX=  1.000000  1.000000  1.000000  1.000000
 FoFCou: FMM=F IPFlag=           0 FMFlag=      100000 FMFlg1=           0
         NFxFlg=           0 DoJE=T BraDBF=F KetDBF=T FulRan=T
         wScrn=  0.000000 ICntrl=       500 IOpCl=  0 I1Cent=   200000004 NGrid=           0
         NMat0=    1 NMatS0=      1 NMatT0=    0 NMatD0=    1 NMtDS0=    0 NMtDT0=    0
 Petite list used in FoFCou.
 Harris En= -34.4763562785233    
 JPrj=0 DoOrth=F DoCkMO=F.
 Initial guess orbital symmetries:
       Occupied  (A') (A') (A') (A') (A') (A') (A") (A")
       Virtual   (A') (A') (A') (A') (A") (A") (A') (A') (A') (A')
                 (A') (A') (A') (A') (A') (A')
 The electronic state of the initial guess is 1-A'.
 Leave Link  401 at Sun Dec 10 06:48:42 2023, MaxMem=   536870912 cpu:               0.4 elap:               0.1
 (Enter /usr/site/hpc/x86_64/glibc-2.17/broadwell/gaussian/g16_a.03/pgi-16.5/g16/l502.exe)
 Keep R1 ints in memory in symmetry-blocked form, NReq=851978.
 FoFCou: FMM=F IPFlag=           0 FMFlag=           0 FMFlg1=           0
         NFxFlg=           0 DoJE=F BraDBF=F KetDBF=F FulRan=T
         wScrn=  0.000000 ICntrl=       600 IOpCl=  0 I1Cent=           0 NGrid=           0
         NMat0=    1 NMatS0=    300 NMatT0=    0 NMatD0=    1 NMtDS0=    0 NMtDT0=    0
 Petite list used in FoFCou.
 Closed shell SCF:
 Using DIIS extrapolation, IDIIS=  1040.
 NGot=   536870912 LenX=   536840576 LenY=   536839559
 Requested convergence on RMS density matrix=1.00D-08 within 128 cycles.
 Requested convergence on MAX density matrix=1.00D-06.
 Requested convergence on             energy=1.00D-06.
 No special actions if energy rises.

 Cycle   1  Pass 1  IDiag  1:
 E= -33.5590539268117    
 DIIS: error= 6.86D-02 at cycle   1 NSaved=   1.
 NSaved= 1 IEnMin= 1 EnMin= -33.5590539268117     IErMin= 1 ErrMin= 6.86D-02
 ErrMax= 6.86D-02  0.00D+00 EMaxC= 1.00D-01 BMatC= 1.02D-01 BMatP= 1.02D-01
 IDIUse=3 WtCom= 3.14D-01 WtEn= 6.86D-01
 Coeff-Com:  0.100D+01
 Coeff-En:   0.100D+01
 Coeff:      0.100D+01
 Gap=     0.603 Goal=   None    Shift=    0.000
 GapD=    0.603 DampG=2.000 DampE=0.500 DampFc=1.0000 IDamp=-1.
 RMSDP=1.48D-02 MaxDP=1.17D-01              OVMax= 9.85D-02

 Cycle   2  Pass 1  IDiag  1:
 E= -33.6215314943947     Delta-E=       -0.062477567583 Rises=F Damp=F
 DIIS: error= 3.72D-02 at cycle   2 NSaved=   2.
 NSaved= 2 IEnMin= 2 EnMin= -33.6215314943947     IErMin= 2 ErrMin= 3.72D-02
 ErrMax= 3.72D-02  0.00D+00 EMaxC= 1.00D-01 BMatC= 3.80D-02 BMatP= 1.02D-01
 IDIUse=3 WtCom= 6.28D-01 WtEn= 3.72D-01
 Coeff-Com:  0.377D+00 0.623D+00
 Coeff-En:   0.109D+00 0.891D+00
 Coeff:      0.277D+00 0.723D+00
 Gap=     0.693 Goal=   None    Shift=    0.000
 RMSDP=6.38D-03 MaxDP=5.40D-02 DE=-6.25D-02 OVMax= 3.56D-02

 Cycle   3  Pass 1  IDiag  1:
 E= -33.6519089393081     Delta-E=       -0.030377444913 Rises=F Damp=F
 DIIS: error= 7.11D-03 at cycle   3 NSaved=   3.
 NSaved= 3 IEnMin= 3 EnMin= -33.6519089393081     IErMin= 3 ErrMin= 7.11D-03
 ErrMax= 7.11D-03  0.00D+00 EMaxC= 1.00D-01 BMatC= 8.87D-04 BMatP= 3.80D-02
 IDIUse=3 WtCom= 9.29D-01 WtEn= 7.11D-02
 Coeff-Com: -0.114D+00-0.168D-01 0.113D+01
 Coeff-En:   0.000D+00 0.000D+00 0.100D+01
 Coeff:     -0.106D+00-0.156D-01 0.112D+01
 Gap=     0.686 Goal=   None    Shift=    0.000
 RMSDP=1.06D-03 MaxDP=8.84D-03 DE=-3.04D-02 OVMax= 7.99D-03

 Cycle   4  Pass 1  IDiag  1:
 E= -33.6527922031564     Delta-E=       -0.000883263848 Rises=F Damp=F
 DIIS: error= 7.44D-04 at cycle   4 NSaved=   4.
 NSaved= 4 IEnMin= 4 EnMin= -33.6527922031564     IErMin= 4 ErrMin= 7.44D-04
 ErrMax= 7.44D-04  0.00D+00 EMaxC= 1.00D-01 BMatC= 5.75D-06 BMatP= 8.87D-04
 IDIUse=3 WtCom= 9.93D-01 WtEn= 7.44D-03
 Coeff-Com:  0.438D-01-0.173D-01-0.529D+00 0.150D+01
 Coeff-En:   0.000D+00 0.000D+00 0.000D+00 0.100D+01
 Coeff:      0.435D-01-0.172D-01-0.525D+00 0.150D+01
 Gap=     0.688 Goal=   None    Shift=    0.000
 RMSDP=2.34D-04 MaxDP=2.00D-03 DE=-8.83D-04 OVMax= 9.50D-04

 Cycle   5  Pass 1  IDiag  1:
 E= -33.6528050472519     Delta-E=       -0.000012844095 Rises=F Damp=F
 DIIS: error= 4.90D-05 at cycle   5 NSaved=   5.
 NSaved= 5 IEnMin= 5 EnMin= -33.6528050472519     IErMin= 5 ErrMin= 4.90D-05
 ErrMax= 4.90D-05  0.00D+00 EMaxC= 1.00D-01 BMatC= 3.67D-08 BMatP= 5.75D-06
 IDIUse=1 WtCom= 1.00D+00 WtEn= 0.00D+00
 Coeff-Com: -0.706D-02 0.314D-02 0.864D-01-0.293D+00 0.121D+01
 Coeff:     -0.706D-02 0.314D-02 0.864D-01-0.293D+00 0.121D+01
 Gap=     0.688 Goal=   None    Shift=    0.000
 RMSDP=1.54D-05 MaxDP=1.46D-04 DE=-1.28D-05 OVMax= 9.96D-05

 Cycle   6  Pass 1  IDiag  1:
 E= -33.6528051377485     Delta-E=       -0.000000090497 Rises=F Damp=F
 DIIS: error= 1.06D-05 at cycle   6 NSaved=   6.
 NSaved= 6 IEnMin= 6 EnMin= -33.6528051377485     IErMin= 6 ErrMin= 1.06D-05
 ErrMax= 1.06D-05  0.00D+00 EMaxC= 1.00D-01 BMatC= 2.06D-09 BMatP= 3.67D-08
 IDIUse=1 WtCom= 1.00D+00 WtEn= 0.00D+00
 Coeff-Com:  0.117D-02-0.410D-03-0.139D-01 0.530D-01-0.387D+00 0.135D+01
 Coeff:      0.117D-02-0.410D-03-0.139D-01 0.530D-01-0.387D+00 0.135D+01
 Gap=     0.688 Goal=   None    Shift=    0.000
 RMSDP=3.80D-06 MaxDP=2.55D-05 DE=-9.05D-08 OVMax= 3.42D-05

 Cycle   7  Pass 1  IDiag  1:
 E= -33.6528051433686     Delta-E=       -0.000000005620 Rises=F Damp=F
 DIIS: error= 2.26D-06 at cycle   7 NSaved=   7.
 NSaved= 7 IEnMin= 7 EnMin= -33.6528051433686     IErMin= 7 ErrMin= 2.26D-06
 ErrMax= 2.26D-06  0.00D+00 EMaxC= 1.00D-01 BMatC= 1.40D-10 BMatP= 2.06D-09
 IDIUse=1 WtCom= 1.00D+00 WtEn= 0.00D+00
 Coeff-Com:  0.429D-03-0.205D-03-0.527D-02 0.174D-01-0.604D-01-0.203D-01
 Coeff-Com:  0.107D+01
 Coeff:      0.429D-03-0.205D-03-0.527D-02 0.174D-01-0.604D-01-0.203D-01
 Coeff:      0.107D+01
 Gap=     0.688 Goal=   None    Shift=    0.000
 RMSDP=9.17D-07 MaxDP=5.46D-06 DE=-5.62D-09 OVMax= 8.43D-06

 Cycle   8  Pass 1  IDiag  1:
 E= -33.6528051436611     Delta-E=       -0.000000000292 Rises=F Damp=F
 DIIS: error= 6.93D-07 at cycle   8 NSaved=   8.
 NSaved= 8 IEnMin= 8 EnMin= -33.6528051436611     IErMin= 8 ErrMin= 6.93D-07
 ErrMax= 6.93D-07  0.00D+00 EMaxC= 1.00D-01 BMatC= 2.34D-11 BMatP= 1.40D-10
 IDIUse=1 WtCom= 1.00D+00 WtEn= 0.00D+00
 Coeff-Com: -0.376D-06-0.235D-04-0.581D-04-0.786D-03 0.303D-01-0.176D+00
 Coeff-Com:  0.275D+00 0.872D+00
 Coeff:     -0.376D-06-0.235D-04-0.581D-04-0.786D-03 0.303D-01-0.176D+00
 Coeff:      0.275D+00 0.872D+00
 Gap=     0.688 Goal=   None    Shift=    0.000
 RMSDP=3.40D-07 MaxDP=1.78D-06 DE=-2.92D-10 OVMax= 2.81D-06

 Cycle   9  Pass 1  IDiag  1:
 E= -33.6528051436972     Delta-E=       -0.000000000036 Rises=F Damp=F
 DIIS: error= 1.63D-07 at cycle   9 NSaved=   9.
 NSaved= 9 IEnMin= 9 EnMin= -33.6528051436972     IErMin= 9 ErrMin= 1.63D-07
 ErrMax= 1.63D-07  0.00D+00 EMaxC= 1.00D-01 BMatC= 6.62D-13 BMatP= 2.34D-11
 IDIUse=1 WtCom= 1.00D+00 WtEn= 0.00D+00
 Coeff-Com:  0.373D-05 0.666D-05-0.143D-04 0.394D-03-0.120D-01 0.723D-01
 Coeff-Com: -0.149D+00-0.332D+00 0.142D+01
 Coeff:      0.373D-05 0.666D-05-0.143D-04 0.394D-03-0.120D-01 0.723D-01
 Coeff:     -0.149D+00-0.332D+00 0.142D+01
 Gap=     0.688 Goal=   None    Shift=    0.000
 RMSDP=1.21D-07 MaxDP=4.78D-07 DE=-3.61D-11 OVMax= 8.17D-07

 Cycle  10  Pass 1  IDiag  1:
 E= -33.6528051436989     Delta-E=       -0.000000000002 Rises=F Damp=F
 DIIS: error= 8.63D-09 at cycle  10 NSaved=  10.
 NSaved=10 IEnMin=10 EnMin= -33.6528051436989     IErMin=10 ErrMin= 8.63D-09
 ErrMax= 8.63D-09  0.00D+00 EMaxC= 1.00D-01 BMatC= 2.91D-15 BMatP= 6.62D-13
 IDIUse=1 WtCom= 1.00D+00 WtEn= 0.00D+00
 Coeff-Com:  0.974D-07-0.178D-05-0.838D-05-0.502D-04 0.257D-02-0.163D-01
 Coeff-Com:  0.345D-01 0.733D-01-0.371D+00 0.128D+01
 Coeff:      0.974D-07-0.178D-05-0.838D-05-0.502D-04 0.257D-02-0.163D-01
 Coeff:      0.345D-01 0.733D-01-0.371D+00 0.128D+01
 Gap=     0.688 Goal=   None    Shift=    0.000
 RMSDP=1.19D-08 MaxDP=5.70D-08 DE=-1.73D-12 OVMax= 6.97D-08

 Cycle  11  Pass 1  IDiag  1:
 E= -33.6528051436989     Delta-E=       -0.000000000000 Rises=F Damp=F
 DIIS: error= 4.18D-10 at cycle  11 NSaved=  11.
 NSaved=11 IEnMin=11 EnMin= -33.6528051436989     IErMin=11 ErrMin= 4.18D-10
 ErrMax= 4.18D-10  0.00D+00 EMaxC= 1.00D-01 BMatC= 4.90D-18 BMatP= 2.91D-15
 IDIUse=1 WtCom= 1.00D+00 WtEn= 0.00D+00
 Coeff-Com: -0.742D-07 0.299D-06 0.201D-05 0.595D-05-0.410D-03 0.264D-02
 Coeff-Com: -0.565D-02-0.119D-01 0.617D-01-0.235D+00 0.119D+01
 Coeff:     -0.742D-07 0.299D-06 0.201D-05 0.595D-05-0.410D-03 0.264D-02
 Coeff:     -0.565D-02-0.119D-01 0.617D-01-0.235D+00 0.119D+01
 Gap=     0.688 Goal=   None    Shift=    0.000
 RMSDP=2.88D-10 MaxDP=1.62D-09 DE=-2.84D-14 OVMax= 1.43D-09

 SCF Done:  E(RHF) =  -33.6528051437     A.U. after   11 cycles
            NFock= 11  Conv=0.29D-09     -V/T= 2.2569
 KE= 2.677471313421D+01 PE=-1.212846706938D+02 EE= 4.100963804718D+01
 Leave Link  502 at Sun Dec 10 06:48:42 2023, MaxMem=   536870912 cpu:               0.3 elap:               0.1
 (Enter /usr/site/hpc/x86_64/glibc-2.17/broadwell/gaussian/g16_a.03/pgi-16.5/g16/l801.exe)
 Windowed orbitals will be sorted by symmetry type.
 Range of M.O.s used for correlation:     1    24
 NBasis=    24 NAE=     8 NBE=     8 NFC=     0 NFV=     0
 NROrb=     24 NOA=     8 NOB=     8 NVA=    16 NVB=    16
 Leave Link  801 at Sun Dec 10 06:48:42 2023, MaxMem=   536870912 cpu:               0.1 elap:               0.0
 (Enter /usr/site/hpc/x86_64/glibc-2.17/broadwell/gaussian/g16_a.03/pgi-16.5/g16/l804.exe)
 Closed-shell transformation, MDV=   536870912 ITran=4 ISComp=2.
 Unit  1 TFree=       1025975 TCopy=        210600.
 Semi-Direct transformation.
 ModeAB=           4 MOrb=             8 LenV=     536742390
 LASXX=        22470 LTotXX=       22470 LenRXX=       48678
 LTotAB=       26208 MaxLAS=       56256 LenRXY=           0
 NonZer=       71148 LenScr=      524288 LnRSAI=       56256
 LnScr1=      524288 LExtra=           0 Total=      1153510
 MaxDsk=          -1 SrtSym=           T ITran=            4
 DoSDTr:  NPSUse=  4
 JobTyp=0 Pass  1:  I=   1 to   8.
 (rs|ai) integrals will be sorted in core.
 Complete sort for first half transformation.
 First half transformation complete.
 Complete sort for second half transformation.
 Second half transformation complete.
 Spin components of T(2) and E(2):
     alpha-alpha T2 =       0.9064974998D-02 E2=     -0.2589265056D-01
     alpha-beta  T2 =       0.5988844283D-01 E2=     -0.1765413388D+00
     beta-beta   T2 =       0.9064974998D-02 E2=     -0.2589265056D-01
 ANorm=    0.1038276646D+01
 E2 =    -0.2283266399D+00 EUMP2 =    -0.33881131783632D+02
 Leave Link  804 at Sun Dec 10 06:48:42 2023, MaxMem=   536870912 cpu:               0.2 elap:               0.1
 (Enter /usr/site/hpc/x86_64/glibc-2.17/broadwell/gaussian/g16_a.03/pgi-16.5/g16/l913.exe)
 CIDS:  MDV=   536870912.
 IFCWin=0 IBDFC=1 NFBD=     0     0 NFCmp=     0     0 NFFFC=     0     0
 Using DD3R+UMP44R for 1st iteration.
 Using DD4RQ for 2nd and later iterations.
 Keep R2 and R3 ints in memory in symmetry-blocked form, NReq=864586.
 FoFCou: FMM=F IPFlag=           0 FMFlag=           0 FMFlg1=           0
         NFxFlg=           0 DoJE=F BraDBF=F KetDBF=F FulRan=T
         wScrn=  0.000000 ICntrl=       600 IOpCl=  0 I1Cent=           0 NGrid=           0
         NMat0=    1 NMatS0=    300 NMatT0=    0 NMatD0=    1 NMtDS0=    0 NMtDT0=    0
 Petite list used in FoFCou.
 CIDS: In Core Option IDoMem=           1.
 CCSD(T)
 =======
 Iterations=  50 Convergence= 0.100D-06
 Produce multiple copies of IABC intergrals
 Iteration Nr.   1
 **********************
 DD1Dir will call FoFMem   1 times, MxPair=        72
 NAB=    36 NAA=     0 NBB=     0.
 MP4(R+Q)= -0.74471470D-03
 Maximum subspace dimension=  5
 A-vector RMS=  5.7527909D-03 Max=  1.3211405D-02 conv= 1.00D-05.
 RLE energy=       -0.2343797239
 E3=       -0.54268545D-02        EUMP3=      -0.33886558638D+02
 E4(DQ)=   -0.59069815D-02        UMP4(DQ)=   -0.33892465620D+02
 E4(SDQ)=  -0.79326362D-02        UMP4(SDQ)=  -0.33894491274D+02
 VARIATIONAL ENERGIES WITH THE FIRST-ORDER WAVEFUNCTION:
 DE(Corr)= -0.23422374     E(Corr)=     -33.887028880    
 NORM(A)=   0.10417054D+01
 Iteration Nr.   2
 **********************
 DD1Dir will call FoFMem   1 times, MxPair=        72
 NAB=    36 NAA=     0 NBB=     0.
 A-vector RMS=  9.8256869D-04 Max=  2.7097111D-03 conv= 1.00D-05.
 RLE energy=       -0.2421443985
 DE(Corr)= -0.24020260     E(CORR)=     -33.893007747     Delta=-5.98D-03
 NORM(A)=   0.10454926D+01
 Iteration Nr.   3
 **********************
 DD1Dir will call FoFMem   1 times, MxPair=        72
 NAB=    36 NAA=     0 NBB=     0.
 A-vector RMS=  3.8189597D-04 Max=  1.1283305D-03 conv= 1.00D-05.
 RLE energy=       -0.2426943450
 DE(Corr)= -0.24224740     E(CORR)=     -33.895052549     Delta=-2.04D-03
 NORM(A)=   0.10460525D+01
 Iteration Nr.   4
 **********************
 DD1Dir will call FoFMem   1 times, MxPair=        72
 NAB=    36 NAA=     0 NBB=     0.
 A-vector RMS=  9.2189446D-05 Max=  2.4906329D-04 conv= 1.00D-05.
 RLE energy=       -0.2427410255
 DE(Corr)= -0.24270519     E(CORR)=     -33.895510335     Delta=-4.58D-04
 NORM(A)=   0.10461263D+01
 Iteration Nr.   5
 **********************
 DD1Dir will call FoFMem   1 times, MxPair=        72
 NAB=    36 NAA=     0 NBB=     0.
 A-vector RMS=  4.1301504D-05 Max=  1.4805105D-04 conv= 1.00D-05.
 RLE energy=       -0.2427392737
 DE(Corr)= -0.24273727     E(CORR)=     -33.895542415     Delta=-3.21D-05
 NORM(A)=   0.10461367D+01
 Iteration Nr.   6
 **********************
 DD1Dir will call FoFMem   1 times, MxPair=        72
 NAB=    36 NAA=     0 NBB=     0.
 A-vector RMS=  1.1413655D-05 Max=  4.0809708D-05 conv= 1.00D-05.
 RLE energy=       -0.2427383893
 DE(Corr)= -0.24273942     E(CORR)=     -33.895544568     Delta=-2.15D-06
 NORM(A)=   0.10461402D+01
 Iteration Nr.   7
 **********************
 DD1Dir will call FoFMem   1 times, MxPair=        72
 NAB=    36 NAA=     0 NBB=     0.
 A-vector RMS=  3.3971814D-06 Max=  1.1540138D-05 conv= 1.00D-05.
 RLE energy=       -0.2427393237
 DE(Corr)= -0.24273882     E(CORR)=     -33.895543960     Delta= 6.07D-07
 NORM(A)=   0.10461416D+01
 Iteration Nr.   8
 **********************
 DD1Dir will call FoFMem   1 times, MxPair=        72
 NAB=    36 NAA=     0 NBB=     0.
 A-vector RMS=  6.8997628D-07 Max=  2.1810114D-06 conv= 1.00D-05.
 RLE energy=       -0.2427388226
 DE(Corr)= -0.24273886     E(CORR)=     -33.895544000     Delta=-3.93D-08
 NORM(A)=   0.10461416D+01
 CI/CC converged in    8 iterations to DelEn=-3.93D-08 Conv= 1.00D-07 ErrA1= 6.90D-07 Conv= 1.00D-05
 Wavefunction amplitudes converged. E(Corr)=     -33.895544000    
 Largest amplitude= 5.86D-02
 IPart=  3 IA=    2   12.50% done.
 IPart=  4 IA=    3   24.17% done.
 IPart=  2 IA=    4   35.00% done.
 IPart=  2 IA=    5   45.00% done.
 IPart=  4 IA=    6   54.17% done.
 IPart=  3 IA=    7   62.50% done.
 IPart=  1 IA=    8   70.00% done.
 IPart=  1 IA=   10   82.50% done.
 IPart=  2 IA=   12   91.67% done.
 Time for triples=        0.24 seconds.
 T4(CCSD)= -0.30854388D-02
 T5(CCSD)=  0.52574150D-03
 CCSD(T)= -0.33898103697D+02
 Discarding MO integrals.
 Leave Link  913 at Sun Dec 10 06:48:42 2023, MaxMem=   536870912 cpu:               0.8 elap:               0.2
 (Enter /usr/site/hpc/x86_64/glibc-2.17/broadwell/gaussian/g16_a.03/pgi-16.5/g16/l601.exe)
 Copying SCF densities to generalized density rwf, IOpCl= 0 IROHF=0.

 **********************************************************************

            Population analysis using the SCF density.

 **********************************************************************

 Orbital symmetries:
       Occupied  (A') (A') (A') (A') (A') (A') (A") (A")
       Virtual   (A') (A') (A') (A') (A") (A") (A') (A') (A') (A')
                 (A') (A') (A') (A') (A') (A')
 The electronic state is 1-A'.
 Alpha  occ. eigenvalues --   -1.36344  -1.34792  -0.71990  -0.70411  -0.56140
 Alpha  occ. eigenvalues --   -0.54552  -0.50929  -0.49376
 Alpha virt. eigenvalues --    0.19418   0.21123   0.29721   0.31372   0.79631
 Alpha virt. eigenvalues --    0.81149   0.82509   0.84159   0.85639   0.87337
 Alpha virt. eigenvalues --    1.16600   1.18164   1.21033   1.22745   2.56558
 Alpha virt. eigenvalues --    2.58248
          Condensed to atoms (all electrons):
               1          2          3          4          5          6
     1  O    6.217722   0.265275   0.262146  -0.000001   0.000000   0.000000
     2  H    0.265275   0.379769  -0.023367   0.000020  -0.000000  -0.000001
     3  H    0.262146  -0.023367   0.394407  -0.000000   0.000000   0.000000
     4  O   -0.000001   0.000020  -0.000000   6.216715   0.265534   0.262872
     5  H    0.000000  -0.000000   0.000000   0.265534   0.382582  -0.023392
     6  H    0.000000  -0.000001   0.000000   0.262872  -0.023392   0.390632
 Mulliken charges:
               1
     1  O   -0.745143
     2  H    0.378304
     3  H    0.366814
     4  O   -0.745140
     5  H    0.375276
     6  H    0.369889
 Sum of Mulliken charges =   0.00000
 Mulliken charges with hydrogens summed into heavy atoms:
               1
     1  O   -0.000025
     4  O    0.000025
 Electronic spatial extent (au):  <R**2>=            458.1163
 Charge=              0.0000 electrons
 Dipole moment (field-independent basis, Debye):
    X=             -3.5252    Y=             -3.8387    Z=              0.0000  Tot=              5.2118
 Quadrupole moment (field-independent basis, Debye-Ang):
   XX=            -10.3180   YY=             -6.8263   ZZ=            -14.9904
   XY=             -4.3067   XZ=             -0.0000   YZ=              0.0000
 Traceless Quadrupole moment (field-independent basis, Debye-Ang):
   XX=              0.3935   YY=              3.8853   ZZ=             -4.2788
   XY=             -4.3067   XZ=             -0.0000   YZ=              0.0000
 Octapole moment (field-independent basis, Debye-Ang**2):
  XXX=             -3.8589  YYY=            -81.1042  ZZZ=              0.0000  XYY=            -26.0855
  XXY=             -2.7106  XXZ=              0.0000  XZZ=             -0.6613  YZZ=             -0.7321
  YYZ=              0.0000  XYZ=              0.0000
 Hexadecapole moment (field-independent basis, Debye-Ang**3):
 XXXX=            -12.3020 YYYY=           -423.6380 ZZZZ=            -12.2245 XXXY=              0.3394
 XXXZ=             -0.0000 YYYX=            -69.8660 YYYZ=              0.0000 ZZZX=              0.0000
 ZZZY=             -0.0000 XXYY=            -75.9070 XXZZ=             -4.5511 YYZZ=           -114.1131
 XXYZ=              0.0000 YYXZ=             -0.0000 ZZXY=              0.3397
 N-N= 1.984751436875D+01 E-N=-1.212846706973D+02  KE= 2.677471313421D+01
 Symmetry A'   KE= 1.789352828559D+01
 Symmetry A"   KE= 8.881184848619D+00
 Leave Link  601 at Sun Dec 10 06:48:42 2023, MaxMem=   536870912 cpu:               0.1 elap:               0.0
 (Enter /usr/site/hpc/x86_64/glibc-2.17/broadwell/gaussian/g16_a.03/pgi-16.5/g16/l9999.exe)
 1\1\GINC-N033\SP\RCCSD(T)-FC\CEP-31G\H4O2\ROOT\10-Dec-2023\0\\#p CCSD(
 T)/CEP-31G\\H2O_H2O_4206\\0,1\O,0,0.,-0.009833,0.\H,0,-0.799571,-0.580
 965,0.\H,0,0.799571,-0.580965,0.\O,0,-4.391003,-3.14288,0.\H,0,-5.3482
 73,-3.364554,0.\H,0,-3.870858,-3.97652,0.\\Version=ES64L-G16RevA.03\St
 ate=1-A'\HF=-33.6528051\MP2=-33.8811318\MP3=-33.8865586\MP4D=-33.89172
 09\MP4DQ=-33.8924656\MP4SDQ=-33.8944913\CCSD=-33.895544\CCSD(T)=-33.89
 81037\RMSD=2.879e-10\PG=CS [SG(H4O2)]\\@


 Just remember, when you're over the hill, you begin to pick up speed.
 -- Charles Schulz
 Job cpu time:       0 days  0 hours  0 minutes  3.2 seconds.
 Elapsed time:       0 days  0 hours  0 minutes  1.0 seconds.
 File lengths (MBytes):  RWF=     72 Int=      0 D2E=      0 Chk=      8 Scr=      8
 Normal termination of Gaussian 16 at Sun Dec 10 06:48:42 2023.
