 Entering Gaussian System, Link 0=g16
 Input=H2O_H2O_74.com
 Output=H2O_H2O_74.log
 Initial command:
 /usr/site/hpc/x86_64/glibc-2.17/broadwell/gaussian/g16_a.03/pgi-16.5/g16/l1.exe "/gpfs/gpfs1/scratch/c7441090/OH Coord/Gau-1613070.inp" -scrdir="/gpfs/gpfs1/scratch/c7441090/OH Coord/"
 Entering Link 1 = /usr/site/hpc/x86_64/glibc-2.17/broadwell/gaussian/g16_a.03/pgi-16.5/g16/l1.exe PID=   1613071.
  
 Copyright (c) 1988,1990,1992,1993,1995,1998,2003,2009,2016,
            Gaussian, Inc.  All Rights Reserved.
  
 This is part of the Gaussian(R) 16 program.  It is based on
 the Gaussian(R) 09 system (copyright 2009, Gaussian, Inc.),
 the Gaussian(R) 03 system (copyright 2003, Gaussian, Inc.),
 the Gaussian(R) 98 system (copyright 1998, Gaussian, Inc.),
 the Gaussian(R) 94 system (copyright 1995, Gaussian, Inc.),
 the Gaussian 92(TM) system (copyright 1992, Gaussian, Inc.),
 the Gaussian 90(TM) system (copyright 1990, Gaussian, Inc.),
 the Gaussian 88(TM) system (copyright 1988, Gaussian, Inc.),
 the Gaussian 86(TM) system (copyright 1986, Carnegie Mellon
 University), and the Gaussian 82(TM) system (copyright 1983,
 Carnegie Mellon University). Gaussian is a federally registered
 trademark of Gaussian, Inc.
  
 This software contains proprietary and confidential information,
 including trade secrets, belonging to Gaussian, Inc.
  
 This software is provided under written license and may be
 used, copied, transmitted, or stored only in accord with that
 written license.
  
 The following legend is applicable only to US Government
 contracts under FAR:
  
                    RESTRICTED RIGHTS LEGEND
  
 Use, reproduction and disclosure by the US Government is
 subject to restrictions as set forth in subparagraphs (a)
 and (c) of the Commercial Computer Software - Restricted
 Rights clause in FAR 52.227-19.
  
 Gaussian, Inc.
 340 Quinnipiac St., Bldg. 40, Wallingford CT 06492
  
  
 ---------------------------------------------------------------
 Warning -- This program may not be used in any manner that
 competes with the business of Gaussian, Inc. or will provide
 assistance to any competitor of Gaussian, Inc.  The licensee
 of this program is prohibited from giving any competitor of
 Gaussian, Inc. access to this program.  By using this program,
 the user acknowledges that Gaussian, Inc. is engaged in the
 business of creating and licensing software in the field of
 computational chemistry and represents and warrants to the
 licensee that it is not a competitor of Gaussian, Inc. and that
 it will not use this program in any manner prohibited above.
 ---------------------------------------------------------------
  

 Cite this work as:
 Gaussian 16, Revision A.03,
 M. J. Frisch, G. W. Trucks, H. B. Schlegel, G. E. Scuseria, 
 M. A. Robb, J. R. Cheeseman, G. Scalmani, V. Barone, 
 G. A. Petersson, H. Nakatsuji, X. Li, M. Caricato, A. V. Marenich, 
 J. Bloino, B. G. Janesko, R. Gomperts, B. Mennucci, H. P. Hratchian, 
 J. V. Ortiz, A. F. Izmaylov, J. L. Sonnenberg, D. Williams-Young, 
 F. Ding, F. Lipparini, F. Egidi, J. Goings, B. Peng, A. Petrone, 
 T. Henderson, D. Ranasinghe, V. G. Zakrzewski, J. Gao, N. Rega, 
 G. Zheng, W. Liang, M. Hada, M. Ehara, K. Toyota, R. Fukuda, 
 J. Hasegawa, M. Ishida, T. Nakajima, Y. Honda, O. Kitao, H. Nakai, 
 T. Vreven, K. Throssell, J. A. Montgomery, Jr., J. E. Peralta, 
 F. Ogliaro, M. J. Bearpark, J. J. Heyd, E. N. Brothers, K. N. Kudin, 
 V. N. Staroverov, T. A. Keith, R. Kobayashi, J. Normand, 
 K. Raghavachari, A. P. Rendell, J. C. Burant, S. S. Iyengar, 
 J. Tomasi, M. Cossi, J. M. Millam, M. Klene, C. Adamo, R. Cammi, 
 J. W. Ochterski, R. L. Martin, K. Morokuma, O. Farkas, 
 J. B. Foresman, and D. J. Fox, Gaussian, Inc., Wallingford CT, 2016.
 
 ******************************************
 Gaussian 16:  ES64L-G16RevA.03 25-Dec-2016
                10-Dec-2023 
 ******************************************
 %NProcShared=4
 Will use up to    4 processors via shared memory.
 %Mem=4GB
 %Chk=H2O_H2O_74.chk
 ------------------
 #p CCSD(T)/CEP-31G
 ------------------
 1/38=1,172=1/1;
 2/12=2,17=6,18=5,40=1/2;
 3/5=9,6=1,11=9,25=1,30=1/1,2,3;
 4//1;
 5/5=2,38=5/2;
 8/6=4,9=120000,10=1/1,4;
 9/5=7,14=2/13;
 6/7=2,8=2,9=2,10=2/1;
 99/5=1,9=1/99;
 Leave Link    1 at Sun Dec 10 06:19:28 2023, MaxMem=   536870912 cpu:               0.2 elap:               0.1
 (Enter /usr/site/hpc/x86_64/glibc-2.17/broadwell/gaussian/g16_a.03/pgi-16.5/g16/l101.exe)
 ----------
 H2O_H2O_74
 ----------
 Symbolic Z-matrix:
 Charge =  0 Multiplicity = 1
 O                     0.       -0.00983   0. 
 H                    -0.79957  -0.58097   0. 
 H                     0.79957  -0.58097   0. 
 O                    -1.70308  -1.20948   0. 
 H                    -2.27421  -0.40991   0. 
 H                    -2.27421  -2.00905   0. 
 
 ITRead=  0  0  0  0  0  0
 MicOpt= -1 -1 -1 -1 -1 -1
 NAtoms=      6 NQM=        6 NQMF=       0 NMMI=      0 NMMIF=      0
                NMic=       0 NMicF=      0.
                    Isotopes and Nuclear Properties:
 (Nuclear quadrupole moments (NQMom) in fm**2, nuclear magnetic moments (NMagM)
  in nuclear magnetons)

  Atom         1           2           3           4           5           6
 IAtWgt=          16           1           1          16           1           1
 AtmWgt=  15.9949146   1.0078250   1.0078250  15.9949146   1.0078250   1.0078250
 NucSpn=           0           1           1           0           1           1
 AtZEff=  -0.0000000  -0.0000000  -0.0000000  -0.0000000  -0.0000000  -0.0000000
 NQMom=    0.0000000   0.0000000   0.0000000   0.0000000   0.0000000   0.0000000
 NMagM=    0.0000000   2.7928460   2.7928460   0.0000000   2.7928460   2.7928460
 AtZNuc=   8.0000000   1.0000000   1.0000000   8.0000000   1.0000000   1.0000000
 Leave Link  101 at Sun Dec 10 06:19:28 2023, MaxMem=   536870912 cpu:               0.3 elap:               0.1
 (Enter /usr/site/hpc/x86_64/glibc-2.17/broadwell/gaussian/g16_a.03/pgi-16.5/g16/l202.exe)
                          Input orientation:                          
 ---------------------------------------------------------------------
 Center     Atomic      Atomic             Coordinates (Angstroms)
 Number     Number       Type             X           Y           Z
 ---------------------------------------------------------------------
      1          8           0        0.000000   -0.009833    0.000000
      2          1           0       -0.799571   -0.580965    0.000000
      3          1           0        0.799571   -0.580965    0.000000
      4          8           0       -1.703076   -1.209479    0.000000
      5          1           0       -2.274208   -0.409908    0.000000
      6          1           0       -2.274208   -2.009051    0.000000
 ---------------------------------------------------------------------
                    Distance matrix (angstroms):
                    1          2          3          4          5
     1  O    0.000000
     2  H    0.982601   0.000000
     3  H    0.982601   1.599142   0.000000
     4  O    2.083175   1.100614   2.580363   0.000000
     5  H    2.309130   1.484525   3.078535   0.982601   0.000000
     6  H    3.028018   2.052799   3.389328   0.982602   1.599143
                    6
     6  H    0.000000
 Stoichiometry    H4O2
 Framework group  CS[SG(H4O2)]
 Deg. of freedom     9
 Full point group                 CS      NOp   2
 Largest Abelian subgroup         CS      NOp   2
 Largest concise Abelian subgroup C1      NOp   1
                         Standard orientation:                         
 ---------------------------------------------------------------------
 Center     Atomic      Atomic             Coordinates (Angstroms)
 Number     Number       Type             X           Y           Z
 ---------------------------------------------------------------------
      1          8           0       -0.013802   -1.121170   -0.000000
      2          1           0       -0.007332   -0.138590   -0.000000
      3          1           0        0.913572   -1.445950   -0.000000
      4          8           0       -0.013802    0.962005    0.000000
      5          1           0       -0.996382    0.968476    0.000000
      6          1           0        0.310979    1.889380    0.000000
 ---------------------------------------------------------------------
 Rotational constants (GHZ):         269.8896729          12.1470266          11.6238668
 Leave Link  202 at Sun Dec 10 06:19:28 2023, MaxMem=   536870912 cpu:               0.0 elap:               0.0
 (Enter /usr/site/hpc/x86_64/glibc-2.17/broadwell/gaussian/g16_a.03/pgi-16.5/g16/l301.exe)
 Standard basis: CEP-31G (6D, 10F)
 Ernie: Thresh=  0.10000D-02 Tol=  0.10000D-05 Strict=F.
 There are    20 symmetry adapted cartesian basis functions of A'  symmetry.
 There are     4 symmetry adapted cartesian basis functions of A"  symmetry.
 There are    20 symmetry adapted basis functions of A'  symmetry.
 There are     4 symmetry adapted basis functions of A"  symmetry.
    24 basis functions,    48 primitive gaussians,    24 cartesian basis functions
     8 alpha electrons        8 beta electrons
       nuclear repulsion energy        30.2129490777 Hartrees.
 IExCor=    0 DFT=F Ex=HF Corr=None ExCW=0 ScaHFX=  1.000000
 ScaDFX=  1.000000  1.000000  1.000000  1.000000 ScalE2=  1.000000  1.000000
 IRadAn=      5 IRanWt=     -1 IRanGd=            0 ICorTp=0 IEmpDi=  4
 NAtoms=    6 NActive=    6 NUniq=    6 SFac= 1.00D+00 NAtFMM=   60 NAOKFM=F Big=F
 Integral buffers will be    131072 words long.
 Raffenetti 1 integral format.
 Two-electron integral symmetry is turned on.
 Leave Link  301 at Sun Dec 10 06:19:28 2023, MaxMem=   536870912 cpu:               0.2 elap:               0.1
 (Enter /usr/site/hpc/x86_64/glibc-2.17/broadwell/gaussian/g16_a.03/pgi-16.5/g16/l302.exe)
 NPDir=0 NMtPBC=     1 NCelOv=     1 NCel=       1 NClECP=     1 NCelD=      1
         NCelK=      1 NCelE2=     1 NClLst=     1 CellRange=     0.0.
 One-electron integrals computed using PRISM.
 One-electron integral symmetry used in STVInt
   2 Symmetry operations used in ECPInt.
 ECPInt:  NShTT=      78 NPrTT=     318 LenC2=      79 LenP2D=     301.
 LDataN:  DoStor=T MaxTD1= 2 Len=   12
 NBasis=    24 RedAO= T EigKep=  2.48D-03  NBF=    20     4
 NBsUse=    24 1.00D-06 EigRej= -1.00D+00 NBFU=    20     4
 Leave Link  302 at Sun Dec 10 06:19:28 2023, MaxMem=   536870912 cpu:               0.4 elap:               0.1
 (Enter /usr/site/hpc/x86_64/glibc-2.17/broadwell/gaussian/g16_a.03/pgi-16.5/g16/l303.exe)
 DipDrv:  MaxL=1.
 Leave Link  303 at Sun Dec 10 06:19:28 2023, MaxMem=   536870912 cpu:               0.1 elap:               0.0
 (Enter /usr/site/hpc/x86_64/glibc-2.17/broadwell/gaussian/g16_a.03/pgi-16.5/g16/l401.exe)
 ExpMin= 1.78D-01 ExpMax= 1.92D+01 ExpMxC= 1.92D+01 IAcc=3 IRadAn=         5 AccDes= 0.00D+00
 Harris functional with IExCor=  205 and IRadAn=       5 diagonalized for initial guess.
 HarFok:  IExCor=  205 AccDes= 0.00D+00 IRadAn=         5 IDoV= 1 UseB2=F ITyADJ=14
 ICtDFT=  3500011 ScaDFX=  1.000000  1.000000  1.000000  1.000000
 FoFCou: FMM=F IPFlag=           0 FMFlag=      100000 FMFlg1=           0
         NFxFlg=           0 DoJE=T BraDBF=F KetDBF=T FulRan=T
         wScrn=  0.000000 ICntrl=       500 IOpCl=  0 I1Cent=   200000004 NGrid=           0
         NMat0=    1 NMatS0=      1 NMatT0=    0 NMatD0=    1 NMtDS0=    0 NMtDT0=    0
 Petite list used in FoFCou.
 Harris En= -34.4480531811919    
 JPrj=0 DoOrth=F DoCkMO=F.
 Initial guess orbital symmetries:
       Occupied  (A') (A') (A') (A') (A') (A") (A') (A")
       Virtual   (A') (A') (A') (A') (A") (A') (A') (A") (A') (A')
                 (A') (A') (A') (A') (A') (A')
 The electronic state of the initial guess is 1-A'.
 Leave Link  401 at Sun Dec 10 06:19:29 2023, MaxMem=   536870912 cpu:               0.5 elap:               0.1
 (Enter /usr/site/hpc/x86_64/glibc-2.17/broadwell/gaussian/g16_a.03/pgi-16.5/g16/l502.exe)
 Keep R1 ints in memory in symmetry-blocked form, NReq=852814.
 FoFCou: FMM=F IPFlag=           0 FMFlag=           0 FMFlg1=           0
         NFxFlg=           0 DoJE=F BraDBF=F KetDBF=F FulRan=T
         wScrn=  0.000000 ICntrl=       600 IOpCl=  0 I1Cent=           0 NGrid=           0
         NMat0=    1 NMatS0=    300 NMatT0=    0 NMatD0=    1 NMtDS0=    0 NMtDT0=    0
 Petite list used in FoFCou.
 Closed shell SCF:
 Using DIIS extrapolation, IDIIS=  1040.
 NGot=   536870912 LenX=   536840564 LenY=   536839547
 Requested convergence on RMS density matrix=1.00D-08 within 128 cycles.
 Requested convergence on MAX density matrix=1.00D-06.
 Requested convergence on             energy=1.00D-06.
 No special actions if energy rises.

 Cycle   1  Pass 1  IDiag  1:
 E= -33.4821012781431    
 DIIS: error= 5.63D-02 at cycle   1 NSaved=   1.
 NSaved= 1 IEnMin= 1 EnMin= -33.4821012781431     IErMin= 1 ErrMin= 5.63D-02
 ErrMax= 5.63D-02  0.00D+00 EMaxC= 1.00D-01 BMatC= 1.12D-01 BMatP= 1.12D-01
 IDIUse=3 WtCom= 4.37D-01 WtEn= 5.63D-01
 Coeff-Com:  0.100D+01
 Coeff-En:   0.100D+01
 Coeff:      0.100D+01
 Gap=     0.474 Goal=   None    Shift=    0.000
 GapD=    0.474 DampG=2.000 DampE=0.500 DampFc=1.0000 IDamp=-1.
 RMSDP=2.63D-02 MaxDP=1.54D-01              OVMax= 1.28D-01

 Cycle   2  Pass 1  IDiag  1:
 E= -33.5553084451785     Delta-E=       -0.073207167035 Rises=F Damp=F
 DIIS: error= 3.57D-02 at cycle   2 NSaved=   2.
 NSaved= 2 IEnMin= 2 EnMin= -33.5553084451785     IErMin= 2 ErrMin= 3.57D-02
 ErrMax= 3.57D-02  0.00D+00 EMaxC= 1.00D-01 BMatC= 3.88D-02 BMatP= 1.12D-01
 IDIUse=3 WtCom= 6.43D-01 WtEn= 3.57D-01
 Coeff-Com:  0.367D+00 0.633D+00
 Coeff-En:   0.546D-01 0.945D+00
 Coeff:      0.256D+00 0.744D+00
 Gap=     0.594 Goal=   None    Shift=    0.000
 RMSDP=8.83D-03 MaxDP=6.84D-02 DE=-7.32D-02 OVMax= 4.89D-02

 Cycle   3  Pass 1  IDiag  1:
 E= -33.5862174086020     Delta-E=       -0.030908963424 Rises=F Damp=F
 DIIS: error= 6.16D-03 at cycle   3 NSaved=   3.
 NSaved= 3 IEnMin= 3 EnMin= -33.5862174086020     IErMin= 3 ErrMin= 6.16D-03
 ErrMax= 6.16D-03  0.00D+00 EMaxC= 1.00D-01 BMatC= 1.23D-03 BMatP= 3.88D-02
 IDIUse=3 WtCom= 9.38D-01 WtEn= 6.16D-02
 Coeff-Com: -0.811D-01 0.431D-01 0.104D+01
 Coeff-En:   0.000D+00 0.000D+00 0.100D+01
 Coeff:     -0.761D-01 0.404D-01 0.104D+01
 Gap=     0.577 Goal=   None    Shift=    0.000
 RMSDP=2.33D-03 MaxDP=1.49D-02 DE=-3.09D-02 OVMax= 1.08D-02

 Cycle   4  Pass 1  IDiag  1:
 E= -33.5873612524532     Delta-E=       -0.001143843851 Rises=F Damp=F
 DIIS: error= 7.76D-04 at cycle   4 NSaved=   4.
 NSaved= 4 IEnMin= 4 EnMin= -33.5873612524532     IErMin= 4 ErrMin= 7.76D-04
 ErrMax= 7.76D-04  0.00D+00 EMaxC= 1.00D-01 BMatC= 1.99D-05 BMatP= 1.23D-03
 IDIUse=3 WtCom= 9.92D-01 WtEn= 7.76D-03
 Coeff-Com: -0.338D-01-0.186D-01 0.249D+00 0.804D+00
 Coeff-En:   0.000D+00 0.000D+00 0.000D+00 0.100D+01
 Coeff:     -0.335D-01-0.185D-01 0.247D+00 0.805D+00
 Gap=     0.581 Goal=   None    Shift=    0.000
 RMSDP=3.01D-04 MaxDP=1.75D-03 DE=-1.14D-03 OVMax= 1.35D-03

 Cycle   5  Pass 1  IDiag  1:
 E= -33.5873843122142     Delta-E=       -0.000023059761 Rises=F Damp=F
 DIIS: error= 2.13D-04 at cycle   5 NSaved=   5.
 NSaved= 5 IEnMin= 5 EnMin= -33.5873843122142     IErMin= 5 ErrMin= 2.13D-04
 ErrMax= 2.13D-04  0.00D+00 EMaxC= 1.00D-01 BMatC= 1.48D-06 BMatP= 1.99D-05
 IDIUse=3 WtCom= 9.98D-01 WtEn= 2.13D-03
 Coeff-Com:  0.130D-01-0.380D-02-0.153D+00-0.314D-01 0.118D+01
 Coeff-En:   0.000D+00 0.000D+00 0.000D+00 0.000D+00 0.100D+01
 Coeff:      0.129D-01-0.379D-02-0.153D+00-0.313D-01 0.117D+01
 Gap=     0.581 Goal=   None    Shift=    0.000
 RMSDP=1.62D-04 MaxDP=9.73D-04 DE=-2.31D-05 OVMax= 6.29D-04

 Cycle   6  Pass 1  IDiag  1:
 E= -33.5873870038497     Delta-E=       -0.000002691635 Rises=F Damp=F
 DIIS: error= 3.93D-05 at cycle   6 NSaved=   6.
 NSaved= 6 IEnMin= 6 EnMin= -33.5873870038497     IErMin= 6 ErrMin= 3.93D-05
 ErrMax= 3.93D-05  0.00D+00 EMaxC= 1.00D-01 BMatC= 2.64D-08 BMatP= 1.48D-06
 IDIUse=1 WtCom= 1.00D+00 WtEn= 0.00D+00
 Coeff-Com: -0.318D-02 0.137D-02 0.414D-01-0.183D-01-0.347D+00 0.133D+01
 Coeff:     -0.318D-02 0.137D-02 0.414D-01-0.183D-01-0.347D+00 0.133D+01
 Gap=     0.581 Goal=   None    Shift=    0.000
 RMSDP=2.24D-05 MaxDP=1.28D-04 DE=-2.69D-06 OVMax= 1.08D-04

 Cycle   7  Pass 1  IDiag  1:
 E= -33.5873870677464     Delta-E=       -0.000000063897 Rises=F Damp=F
 DIIS: error= 5.28D-06 at cycle   7 NSaved=   7.
 NSaved= 7 IEnMin= 7 EnMin= -33.5873870677464     IErMin= 7 ErrMin= 5.28D-06
 ErrMax= 5.28D-06  0.00D+00 EMaxC= 1.00D-01 BMatC= 5.31D-10 BMatP= 2.64D-08
 IDIUse=1 WtCom= 1.00D+00 WtEn= 0.00D+00
 Coeff-Com:  0.736D-03-0.314D-03-0.974D-02 0.611D-02 0.823D-01-0.403D+00
 Coeff-Com:  0.132D+01
 Coeff:      0.736D-03-0.314D-03-0.974D-02 0.611D-02 0.823D-01-0.403D+00
 Coeff:      0.132D+01
 Gap=     0.581 Goal=   None    Shift=    0.000
 RMSDP=3.34D-06 MaxDP=1.77D-05 DE=-6.39D-08 OVMax= 2.44D-05

 Cycle   8  Pass 1  IDiag  1:
 E= -33.5873870692699     Delta-E=       -0.000000001523 Rises=F Damp=F
 DIIS: error= 1.13D-06 at cycle   8 NSaved=   8.
 NSaved= 8 IEnMin= 8 EnMin= -33.5873870692699     IErMin= 8 ErrMin= 1.13D-06
 ErrMax= 1.13D-06  0.00D+00 EMaxC= 1.00D-01 BMatC= 2.65D-11 BMatP= 5.31D-10
 IDIUse=1 WtCom= 1.00D+00 WtEn= 0.00D+00
 Coeff-Com: -0.119D-03 0.377D-04 0.155D-02-0.122D-02-0.120D-01 0.702D-01
 Coeff-Com: -0.373D+00 0.131D+01
 Coeff:     -0.119D-03 0.377D-04 0.155D-02-0.122D-02-0.120D-01 0.702D-01
 Coeff:     -0.373D+00 0.131D+01
 Gap=     0.581 Goal=   None    Shift=    0.000
 RMSDP=6.54D-07 MaxDP=4.19D-06 DE=-1.52D-09 OVMax= 5.85D-06

 Cycle   9  Pass 1  IDiag  1:
 E= -33.5873870693481     Delta-E=       -0.000000000078 Rises=F Damp=F
 DIIS: error= 2.80D-07 at cycle   9 NSaved=   9.
 NSaved= 9 IEnMin= 9 EnMin= -33.5873870693481     IErMin= 9 ErrMin= 2.80D-07
 ErrMax= 2.80D-07  0.00D+00 EMaxC= 1.00D-01 BMatC= 1.44D-12 BMatP= 2.65D-11
 IDIUse=1 WtCom= 1.00D+00 WtEn= 0.00D+00
 Coeff-Com:  0.131D-04 0.391D-06-0.156D-03 0.164D-03 0.636D-03-0.601D-02
 Coeff-Com:  0.634D-01-0.468D+00 0.141D+01
 Coeff:      0.131D-04 0.391D-06-0.156D-03 0.164D-03 0.636D-03-0.601D-02
 Coeff:      0.634D-01-0.468D+00 0.141D+01
 Gap=     0.581 Goal=   None    Shift=    0.000
 RMSDP=2.28D-07 MaxDP=1.22D-06 DE=-7.82D-11 OVMax= 1.75D-06

 Cycle  10  Pass 1  IDiag  1:
 E= -33.5873870693527     Delta-E=       -0.000000000005 Rises=F Damp=F
 DIIS: error= 3.29D-08 at cycle  10 NSaved=  10.
 NSaved=10 IEnMin=10 EnMin= -33.5873870693527     IErMin=10 ErrMin= 3.29D-08
 ErrMax= 3.29D-08  0.00D+00 EMaxC= 1.00D-01 BMatC= 2.05D-14 BMatP= 1.44D-12
 IDIUse=1 WtCom= 1.00D+00 WtEn= 0.00D+00
 Coeff-Com: -0.474D-06-0.105D-05 0.202D-05-0.101D-04 0.141D-03-0.318D-03
 Coeff-Com: -0.541D-02 0.782D-01-0.335D+00 0.126D+01
 Coeff:     -0.474D-06-0.105D-05 0.202D-05-0.101D-04 0.141D-03-0.318D-03
 Coeff:     -0.541D-02 0.782D-01-0.335D+00 0.126D+01
 Gap=     0.581 Goal=   None    Shift=    0.000
 RMSDP=3.48D-08 MaxDP=2.29D-07 DE=-4.67D-12 OVMax= 1.84D-07

 Cycle  11  Pass 1  IDiag  1:
 E= -33.5873870693528     Delta-E=       -0.000000000000 Rises=F Damp=F
 DIIS: error= 5.41D-09 at cycle  11 NSaved=  11.
 NSaved=11 IEnMin=11 EnMin= -33.5873870693528     IErMin=11 ErrMin= 5.41D-09
 ErrMax= 5.41D-09  0.00D+00 EMaxC= 1.00D-01 BMatC= 7.12D-16 BMatP= 2.05D-14
 IDIUse=1 WtCom= 1.00D+00 WtEn= 0.00D+00
 Coeff-Com: -0.253D-06 0.393D-06 0.441D-05-0.134D-05-0.772D-04 0.308D-03
 Coeff-Com:  0.190D-03-0.161D-01 0.835D-01-0.461D+00 0.139D+01
 Coeff:     -0.253D-06 0.393D-06 0.441D-05-0.134D-05-0.772D-04 0.308D-03
 Coeff:      0.190D-03-0.161D-01 0.835D-01-0.461D+00 0.139D+01
 Gap=     0.581 Goal=   None    Shift=    0.000
 RMSDP=6.07D-09 MaxDP=3.86D-08 DE=-7.11D-14 OVMax= 3.61D-08

 SCF Done:  E(RHF) =  -33.5873870694     A.U. after   11 cycles
            NFock= 11  Conv=0.61D-08     -V/T= 2.2256
 KE= 2.740475463759D+01 PE=-1.423720863332D+02 EE= 5.116699554852D+01
 Leave Link  502 at Sun Dec 10 06:19:29 2023, MaxMem=   536870912 cpu:               0.3 elap:               0.1
 (Enter /usr/site/hpc/x86_64/glibc-2.17/broadwell/gaussian/g16_a.03/pgi-16.5/g16/l801.exe)
 Windowed orbitals will be sorted by symmetry type.
 Range of M.O.s used for correlation:     1    24
 NBasis=    24 NAE=     8 NBE=     8 NFC=     0 NFV=     0
 NROrb=     24 NOA=     8 NOB=     8 NVA=    16 NVB=    16

 **** Warning!!: The largest alpha MO coefficient is  0.12239142D+02

 Leave Link  801 at Sun Dec 10 06:19:29 2023, MaxMem=   536870912 cpu:               0.1 elap:               0.0
 (Enter /usr/site/hpc/x86_64/glibc-2.17/broadwell/gaussian/g16_a.03/pgi-16.5/g16/l804.exe)
 Closed-shell transformation, MDV=   536870912 ITran=4 ISComp=2.
 Unit  1 TFree=       1025975 TCopy=        210612.
 Semi-Direct transformation.
 ModeAB=           2 MOrb=             8 LenV=     536741361
 LASXX=        22470 LTotXX=       22470 LenRXX=       22470
 LTotAB=       26208 MaxLAS=       57600 LenRXY=       57600
 NonZer=       62208 LenScr=      524288 LnRSAI=           0
 LnScr1=           0 LExtra=           0 Total=       604358
 MaxDsk=          -1 SrtSym=           F ITran=            4
 DoSDTr:  NPSUse=  4
 JobTyp=0 Pass  1:  I=   1 to   8.
 (rs|ai) integrals will be sorted in core.
 Complete sort for first half transformation.
 First half transformation complete.
 Complete sort for second half transformation.
 Second half transformation complete.
 Spin components of T(2) and E(2):
     alpha-alpha T2 =       0.9147874376D-02 E2=     -0.2682894048D-01
     alpha-beta  T2 =       0.5698242566D-01 E2=     -0.1729441227D+00
     beta-beta   T2 =       0.9147874376D-02 E2=     -0.2682894048D-01
 ANorm=    0.1036956207D+01
 E2 =    -0.2266020037D+00 EUMP2 =    -0.33813989073018D+02
 Leave Link  804 at Sun Dec 10 06:19:29 2023, MaxMem=   536870912 cpu:               0.2 elap:               0.1
 (Enter /usr/site/hpc/x86_64/glibc-2.17/broadwell/gaussian/g16_a.03/pgi-16.5/g16/l913.exe)
 CIDS:  MDV=   536870912.
 IFCWin=0 IBDFC=1 NFBD=     0     0 NFCmp=     0     0 NFFFC=     0     0
 Using DD3R+UMP44R for 1st iteration.
 Using DD4RQ for 2nd and later iterations.
 Keep R2 and R3 ints in memory in symmetry-blocked form, NReq=865422.
 FoFCou: FMM=F IPFlag=           0 FMFlag=           0 FMFlg1=           0
         NFxFlg=           0 DoJE=F BraDBF=F KetDBF=F FulRan=T
         wScrn=  0.000000 ICntrl=       600 IOpCl=  0 I1Cent=           0 NGrid=           0
         NMat0=    1 NMatS0=    300 NMatT0=    0 NMatD0=    1 NMtDS0=    0 NMtDT0=    0
 Petite list used in FoFCou.
 CIDS: In Core Option IDoMem=           1.
 CCSD(T)
 =======
 Iterations=  50 Convergence= 0.100D-06
 Produce multiple copies of IABC intergrals
 Iteration Nr.   1
 **********************
 DD1Dir will call FoFMem   1 times, MxPair=        72
 NAB=    36 NAA=     0 NBB=     0.
 MP4(R+Q)= -0.62505342D-03
 Maximum subspace dimension=  5
 A-vector RMS=  6.2461743D-03 Max=  1.3972253D-02 conv= 1.00D-05.
 RLE energy=       -0.2301457452
 E3=       -0.31683072D-02        EUMP3=      -0.33817157380D+02
 E4(DQ)=   -0.53719034D-02        UMP4(DQ)=   -0.33822529284D+02
 E4(SDQ)=  -0.77609993D-02        UMP4(SDQ)=  -0.33824918379D+02
 VARIATIONAL ENERGIES WITH THE FIRST-ORDER WAVEFUNCTION:
 DE(Corr)= -0.23009159     E(Corr)=     -33.817478663    
 NORM(A)=   0.10395592D+01
 Iteration Nr.   2
 **********************
 DD1Dir will call FoFMem   1 times, MxPair=        72
 NAB=    36 NAA=     0 NBB=     0.
 A-vector RMS=  9.5847259D-04 Max=  2.6592642D-03 conv= 1.00D-05.
 RLE energy=       -0.2375715613
 DE(Corr)= -0.23595039     E(CORR)=     -33.823337456     Delta=-5.86D-03
 NORM(A)=   0.10430389D+01
 Iteration Nr.   3
 **********************
 DD1Dir will call FoFMem   1 times, MxPair=        72
 NAB=    36 NAA=     0 NBB=     0.
 A-vector RMS=  6.1660802D-04 Max=  2.2682546D-03 conv= 1.00D-05.
 RLE energy=       -0.2381074088
 DE(Corr)= -0.23764697     E(CORR)=     -33.825034037     Delta=-1.70D-03
 NORM(A)=   0.10436242D+01
 Iteration Nr.   4
 **********************
 DD1Dir will call FoFMem   1 times, MxPair=        72
 NAB=    36 NAA=     0 NBB=     0.
 A-vector RMS=  1.0826892D-04 Max=  6.0479037D-04 conv= 1.00D-05.
 RLE energy=       -0.2381652554
 DE(Corr)= -0.23812694     E(CORR)=     -33.825514007     Delta=-4.80D-04
 NORM(A)=   0.10437115D+01
 Iteration Nr.   5
 **********************
 DD1Dir will call FoFMem   1 times, MxPair=        72
 NAB=    36 NAA=     0 NBB=     0.
 A-vector RMS=  8.6870363D-05 Max=  3.9877223D-04 conv= 1.00D-05.
 RLE energy=       -0.2381695825
 DE(Corr)= -0.23816218     E(CORR)=     -33.825549251     Delta=-3.52D-05
 NORM(A)=   0.10437345D+01
 Iteration Nr.   6
 **********************
 DD1Dir will call FoFMem   1 times, MxPair=        72
 NAB=    36 NAA=     0 NBB=     0.
 A-vector RMS=  3.1661056D-05 Max=  1.4410995D-04 conv= 1.00D-05.
 RLE energy=       -0.2381637857
 DE(Corr)= -0.23816771     E(CORR)=     -33.825554784     Delta=-5.53D-06
 NORM(A)=   0.10437415D+01
 Iteration Nr.   7
 **********************
 DD1Dir will call FoFMem   1 times, MxPair=        72
 NAB=    36 NAA=     0 NBB=     0.
 A-vector RMS=  1.1250302D-05 Max=  5.0794692D-05 conv= 1.00D-05.
 RLE energy=       -0.2381647576
 DE(Corr)= -0.23816814     E(CORR)=     -33.825555209     Delta=-4.25D-07
 NORM(A)=   0.10437448D+01
 Iteration Nr.   8
 **********************
 DD1Dir will call FoFMem   1 times, MxPair=        72
 NAB=    36 NAA=     0 NBB=     0.
 A-vector RMS=  4.4899524D-06 Max=  2.2214534D-05 conv= 1.00D-05.
 RLE energy=       -0.2381668816
 DE(Corr)= -0.23816711     E(CORR)=     -33.825554180     Delta= 1.03D-06
 NORM(A)=   0.10437468D+01
 Iteration Nr.   9
 **********************
 DD1Dir will call FoFMem   1 times, MxPair=        72
 NAB=    36 NAA=     0 NBB=     0.
 A-vector RMS=  1.0184014D-06 Max=  3.4284071D-06 conv= 1.00D-05.
 RLE energy=       -0.2381673577
 DE(Corr)= -0.23816739     E(CORR)=     -33.825554462     Delta=-2.82D-07
 NORM(A)=   0.10437473D+01
 Iteration Nr.  10
 **********************
 DD1Dir will call FoFMem   1 times, MxPair=        72
 NAB=    36 NAA=     0 NBB=     0.
 A-vector RMS=  4.0427864D-07 Max=  1.2896317D-06 conv= 1.00D-05.
 RLE energy=       -0.2381676972
 DE(Corr)= -0.23816763     E(CORR)=     -33.825554695     Delta=-2.34D-07
 NORM(A)=   0.10437475D+01
 Iteration Nr.  11
 **********************
 DD1Dir will call FoFMem   1 times, MxPair=        72
 NAB=    36 NAA=     0 NBB=     0.
 A-vector RMS=  1.5605351D-07 Max=  5.0357302D-07 conv= 1.00D-05.
 RLE energy=       -0.2381677665
 DE(Corr)= -0.23816773     E(CORR)=     -33.825554801     Delta=-1.05D-07
 NORM(A)=   0.10437476D+01
 Iteration Nr.  12
 **********************
 DD1Dir will call FoFMem   1 times, MxPair=        72
 NAB=    36 NAA=     0 NBB=     0.
 A-vector RMS=  6.0615435D-08 Max=  1.8829727D-07 conv= 1.00D-05.
 RLE energy=       -0.2381677911
 DE(Corr)= -0.23816778     E(CORR)=     -33.825554847     Delta=-4.65D-08
 NORM(A)=   0.10437476D+01
 CI/CC converged in   12 iterations to DelEn=-4.65D-08 Conv= 1.00D-07 ErrA1= 6.06D-08 Conv= 1.00D-05
 Wavefunction amplitudes converged. E(Corr)=     -33.825554847    
 Largest amplitude= 4.90D-02
 IPart=  3 IA=    2   12.50% done.
 IPart=  4 IA=    3   24.17% done.
 IPart=  2 IA=    4   35.00% done.
 IPart=  2 IA=    5   45.00% done.
 IPart=  4 IA=    6   54.17% done.
 IPart=  3 IA=    7   62.50% done.
 IPart=  1 IA=    8   70.00% done.
 IPart=  1 IA=   10   82.50% done.
 IPart=  2 IA=   12   91.67% done.
 Time for triples=        0.27 seconds.
 T4(CCSD)= -0.37931906D-02
 T5(CCSD)=  0.60534173D-03
 CCSD(T)= -0.33828742696D+02
 Discarding MO integrals.
 Leave Link  913 at Sun Dec 10 06:19:29 2023, MaxMem=   536870912 cpu:               1.1 elap:               0.3
 (Enter /usr/site/hpc/x86_64/glibc-2.17/broadwell/gaussian/g16_a.03/pgi-16.5/g16/l601.exe)
 Copying SCF densities to generalized density rwf, IOpCl= 0 IROHF=0.

 **********************************************************************

            Population analysis using the SCF density.

 **********************************************************************

 Orbital symmetries:
       Occupied  (A') (A') (A') (A') (A") (A') (A') (A")
       Virtual   (A') (A') (A') (A') (A") (A') (A') (A") (A') (A')
                 (A') (A') (A') (A') (A') (A')
 The electronic state is 1-A'.
 Alpha  occ. eigenvalues --   -1.46560  -1.27124  -0.84126  -0.73606  -0.58960
 Alpha  occ. eigenvalues --   -0.55996  -0.44043  -0.41251
 Alpha virt. eigenvalues --    0.16878   0.24219   0.30332   0.62072   0.73316
 Alpha virt. eigenvalues --    0.74559   0.91262   0.91578   0.92933   1.05307
 Alpha virt. eigenvalues --    1.11427   1.19710   1.30808   1.47849   3.02685
 Alpha virt. eigenvalues --    4.76729
          Condensed to atoms (all electrons):
               1          2          3          4          5          6
     1  O    6.249385   0.474139   0.272222  -0.271413   0.001420   0.003223
     2  H    0.474139   0.665114  -0.054860  -0.344930   0.013505   0.020440
     3  H    0.272222  -0.054860   0.430242   0.022974  -0.000041  -0.000554
     4  O   -0.271413  -0.344930   0.022974   6.873131   0.244019   0.244948
     5  H    0.001420   0.013505  -0.000041   0.244019   0.316124  -0.014081
     6  H    0.003223   0.020440  -0.000554   0.244948  -0.014081   0.243980
 Mulliken charges:
               1
     1  O   -0.728975
     2  H    0.226591
     3  H    0.330016
     4  O   -0.768730
     5  H    0.439054
     6  H    0.502044
 Sum of Mulliken charges =   0.00000
 Mulliken charges with hydrogens summed into heavy atoms:
               1
     1  O   -0.172368
     4  O    0.172368
 Electronic spatial extent (au):  <R**2>=            103.3876
 Charge=              0.0000 electrons
 Dipole moment (field-independent basis, Debye):
    X=              0.5853    Y=              5.2876    Z=              0.0000  Tot=              5.3199
 Quadrupole moment (field-independent basis, Debye-Ang):
   XX=             -9.6965   YY=            -10.5151   ZZ=            -14.9117
   XY=             -3.7699   XZ=             -0.0000   YZ=              0.0000
 Traceless Quadrupole moment (field-independent basis, Debye-Ang):
   XX=              2.0113   YY=              1.1927   ZZ=             -3.2039
   XY=             -3.7699   XZ=             -0.0000   YZ=              0.0000
 Octapole moment (field-independent basis, Debye-Ang**2):
  XXX=             -0.5272  YYY=             19.8396  ZZZ=              0.0000  XYY=              5.6270
  XXY=              1.8489  XXZ=              0.0000  XZZ=              0.1214  YZZ=              1.4084
  YYZ=              0.0000  XYZ=              0.0000
 Hexadecapole moment (field-independent basis, Debye-Ang**3):
 XXXX=            -11.0907 YYYY=            -82.3009 ZZZZ=            -12.2198 XXXY=             -2.0601
 XXXZ=             -0.0000 YYYX=             -1.3793 YYYZ=             -0.0000 ZZZX=              0.0000
 ZZZY=             -0.0000 XXYY=            -14.7046 XXZZ=             -4.5042 YYZZ=            -21.5044
 XXYZ=             -0.0000 YYXZ=             -0.0000 ZZXY=              0.5450
 N-N= 3.021294907773D+01 E-N=-1.423720863421D+02  KE= 2.740475463759D+01
 Symmetry A'   KE= 1.860464749215D+01
 Symmetry A"   KE= 8.800107145446D+00
 Leave Link  601 at Sun Dec 10 06:19:29 2023, MaxMem=   536870912 cpu:               0.1 elap:               0.0
 (Enter /usr/site/hpc/x86_64/glibc-2.17/broadwell/gaussian/g16_a.03/pgi-16.5/g16/l9999.exe)
 1\1\GINC-N044\SP\RCCSD(T)-FC\CEP-31G\H4O2\ROOT\10-Dec-2023\0\\#p CCSD(
 T)/CEP-31G\\H2O_H2O_74\\0,1\O,0,0.,-0.009833,0.\H,0,-0.799571,-0.58096
 5,0.\H,0,0.799571,-0.580965,0.\O,0,-1.703076,-1.209479,0.\H,0,-2.27420
 8,-0.409908,0.\H,0,-2.274208,-2.009051,0.\\Version=ES64L-G16RevA.03\St
 ate=1-A'\HF=-33.5873871\MP2=-33.8139891\MP3=-33.8171574\MP4D=-33.82190
 42\MP4DQ=-33.8225293\MP4SDQ=-33.8249184\CCSD=-33.8255548\CCSD(T)=-33.8
 287427\RMSD=6.070e-09\PG=CS [SG(H4O2)]\\@


 WHAT, THEN, IS TIME?  IF NO ONE ASKS ME, I KNOW WHAT IT IS.
 IF I WISH TO EXPLAIN WHAT IT IS TO HIM WHO ASKS ME, I DO NOT KNOW.
                                   -- ST. AUGUSTINE (FIFTH CENTURY)
 Job cpu time:       0 days  0 hours  0 minutes  3.7 seconds.
 Elapsed time:       0 days  0 hours  0 minutes  1.0 seconds.
 File lengths (MBytes):  RWF=     72 Int=      0 D2E=      0 Chk=      8 Scr=      8
 Normal termination of Gaussian 16 at Sun Dec 10 06:19:29 2023.
