 Entering Gaussian System, Link 0=g16
 Input=H2O_H2O_2760.com
 Output=H2O_H2O_2760.log
 Initial command:
 /usr/site/hpc/x86_64/glibc-2.17/broadwell/gaussian/g16_a.03/pgi-16.5/g16/l1.exe "/gpfs/gpfs1/scratch/c7441090/OH Coord/Gau-1153304.inp" -scrdir="/gpfs/gpfs1/scratch/c7441090/OH Coord/"
 Entering Link 1 = /usr/site/hpc/x86_64/glibc-2.17/broadwell/gaussian/g16_a.03/pgi-16.5/g16/l1.exe PID=   1153305.
  
 Copyright (c) 1988,1990,1992,1993,1995,1998,2003,2009,2016,
            Gaussian, Inc.  All Rights Reserved.
  
 This is part of the Gaussian(R) 16 program.  It is based on
 the Gaussian(R) 09 system (copyright 2009, Gaussian, Inc.),
 the Gaussian(R) 03 system (copyright 2003, Gaussian, Inc.),
 the Gaussian(R) 98 system (copyright 1998, Gaussian, Inc.),
 the Gaussian(R) 94 system (copyright 1995, Gaussian, Inc.),
 the Gaussian 92(TM) system (copyright 1992, Gaussian, Inc.),
 the Gaussian 90(TM) system (copyright 1990, Gaussian, Inc.),
 the Gaussian 88(TM) system (copyright 1988, Gaussian, Inc.),
 the Gaussian 86(TM) system (copyright 1986, Carnegie Mellon
 University), and the Gaussian 82(TM) system (copyright 1983,
 Carnegie Mellon University). Gaussian is a federally registered
 trademark of Gaussian, Inc.
  
 This software contains proprietary and confidential information,
 including trade secrets, belonging to Gaussian, Inc.
  
 This software is provided under written license and may be
 used, copied, transmitted, or stored only in accord with that
 written license.
  
 The following legend is applicable only to US Government
 contracts under FAR:
  
                    RESTRICTED RIGHTS LEGEND
  
 Use, reproduction and disclosure by the US Government is
 subject to restrictions as set forth in subparagraphs (a)
 and (c) of the Commercial Computer Software - Restricted
 Rights clause in FAR 52.227-19.
  
 Gaussian, Inc.
 340 Quinnipiac St., Bldg. 40, Wallingford CT 06492
  
  
 ---------------------------------------------------------------
 Warning -- This program may not be used in any manner that
 competes with the business of Gaussian, Inc. or will provide
 assistance to any competitor of Gaussian, Inc.  The licensee
 of this program is prohibited from giving any competitor of
 Gaussian, Inc. access to this program.  By using this program,
 the user acknowledges that Gaussian, Inc. is engaged in the
 business of creating and licensing software in the field of
 computational chemistry and represents and warrants to the
 licensee that it is not a competitor of Gaussian, Inc. and that
 it will not use this program in any manner prohibited above.
 ---------------------------------------------------------------
  

 Cite this work as:
 Gaussian 16, Revision A.03,
 M. J. Frisch, G. W. Trucks, H. B. Schlegel, G. E. Scuseria, 
 M. A. Robb, J. R. Cheeseman, G. Scalmani, V. Barone, 
 G. A. Petersson, H. Nakatsuji, X. Li, M. Caricato, A. V. Marenich, 
 J. Bloino, B. G. Janesko, R. Gomperts, B. Mennucci, H. P. Hratchian, 
 J. V. Ortiz, A. F. Izmaylov, J. L. Sonnenberg, D. Williams-Young, 
 F. Ding, F. Lipparini, F. Egidi, J. Goings, B. Peng, A. Petrone, 
 T. Henderson, D. Ranasinghe, V. G. Zakrzewski, J. Gao, N. Rega, 
 G. Zheng, W. Liang, M. Hada, M. Ehara, K. Toyota, R. Fukuda, 
 J. Hasegawa, M. Ishida, T. Nakajima, Y. Honda, O. Kitao, H. Nakai, 
 T. Vreven, K. Throssell, J. A. Montgomery, Jr., J. E. Peralta, 
 F. Ogliaro, M. J. Bearpark, J. J. Heyd, E. N. Brothers, K. N. Kudin, 
 V. N. Staroverov, T. A. Keith, R. Kobayashi, J. Normand, 
 K. Raghavachari, A. P. Rendell, J. C. Burant, S. S. Iyengar, 
 J. Tomasi, M. Cossi, J. M. Millam, M. Klene, C. Adamo, R. Cammi, 
 J. W. Ochterski, R. L. Martin, K. Morokuma, O. Farkas, 
 J. B. Foresman, and D. J. Fox, Gaussian, Inc., Wallingford CT, 2016.
 
 ******************************************
 Gaussian 16:  ES64L-G16RevA.03 25-Dec-2016
                10-Dec-2023 
 ******************************************
 %NProcShared=4
 Will use up to    4 processors via shared memory.
 %Mem=4GB
 %Chk=H2O_H2O_2760.chk
 ------------------
 #p CCSD(T)/CEP-31G
 ------------------
 1/38=1,172=1/1;
 2/12=2,17=6,18=5,40=1/2;
 3/5=9,6=1,11=9,25=1,30=1/1,2,3;
 4//1;
 5/5=2,38=5/2;
 8/6=4,9=120000,10=1/1,4;
 9/5=7,14=2/13;
 6/7=2,8=2,9=2,10=2/1;
 99/5=1,9=1/99;
 Leave Link    1 at Sun Dec 10 06:22:40 2023, MaxMem=   536870912 cpu:               0.2 elap:               0.0
 (Enter /usr/site/hpc/x86_64/glibc-2.17/broadwell/gaussian/g16_a.03/pgi-16.5/g16/l101.exe)
 ------------
 H2O_H2O_2760
 ------------
 Symbolic Z-matrix:
 Charge =  0 Multiplicity = 1
 O                     0.       -0.00983   0. 
 H                    -0.79957  -0.58097   0. 
 H                     0.79957  -0.58097   0. 
 O                    -3.45195  -2.46925   0. 
 H                    -4.43398  -2.43561   0. 
 H                    -3.16529  -3.4091    0. 
 
 ITRead=  0  0  0  0  0  0
 MicOpt= -1 -1 -1 -1 -1 -1
 NAtoms=      6 NQM=        6 NQMF=       0 NMMI=      0 NMMIF=      0
                NMic=       0 NMicF=      0.
                    Isotopes and Nuclear Properties:
 (Nuclear quadrupole moments (NQMom) in fm**2, nuclear magnetic moments (NMagM)
  in nuclear magnetons)

  Atom         1           2           3           4           5           6
 IAtWgt=          16           1           1          16           1           1
 AtmWgt=  15.9949146   1.0078250   1.0078250  15.9949146   1.0078250   1.0078250
 NucSpn=           0           1           1           0           1           1
 AtZEff=  -0.0000000  -0.0000000  -0.0000000  -0.0000000  -0.0000000  -0.0000000
 NQMom=    0.0000000   0.0000000   0.0000000   0.0000000   0.0000000   0.0000000
 NMagM=    0.0000000   2.7928460   2.7928460   0.0000000   2.7928460   2.7928460
 AtZNuc=   8.0000000   1.0000000   1.0000000   8.0000000   1.0000000   1.0000000
 Leave Link  101 at Sun Dec 10 06:22:40 2023, MaxMem=   536870912 cpu:               0.3 elap:               0.1
 (Enter /usr/site/hpc/x86_64/glibc-2.17/broadwell/gaussian/g16_a.03/pgi-16.5/g16/l202.exe)
                          Input orientation:                          
 ---------------------------------------------------------------------
 Center     Atomic      Atomic             Coordinates (Angstroms)
 Number     Number       Type             X           Y           Z
 ---------------------------------------------------------------------
      1          8           0        0.000000   -0.009833    0.000000
      2          1           0       -0.799571   -0.580965    0.000000
      3          1           0        0.799571   -0.580965    0.000000
      4          8           0       -3.451950   -2.469245    0.000000
      5          1           0       -4.433975   -2.435606    0.000000
      6          1           0       -3.165290   -3.409103    0.000000
 ---------------------------------------------------------------------
                    Distance matrix (angstroms):
                    1          2          3          4          5
     1  O    0.000000
     2  H    0.982601   0.000000
     3  H    0.982601   1.599142   0.000000
     4  O    4.238475   3.255874   4.651992   0.000000
     5  H    5.054158   4.080268   5.552450   0.982601   0.000000
     6  H    4.644792   3.687139   4.870163   0.982602   1.599143
                    6
     6  H    0.000000
 Stoichiometry    H4O2
 Framework group  CS[SG(H4O2)]
 Deg. of freedom     9
 Full point group                 CS      NOp   2
 Largest Abelian subgroup         CS      NOp   2
 Largest concise Abelian subgroup C1      NOp   1
                         Standard orientation:                         
 ---------------------------------------------------------------------
 Center     Atomic      Atomic             Coordinates (Angstroms)
 Number     Number       Type             X           Y           Z
 ---------------------------------------------------------------------
      1          8           0        0.063243    2.206986   -0.000000
      2          1           0        0.062053    1.224385   -0.000000
      3          1           0       -0.865863    2.526778   -0.000000
      4          8           0        0.063243   -2.031488    0.000000
      5          1           0        0.660468   -2.811762    0.000000
      6          1           0       -0.868545   -2.343384    0.000000
 ---------------------------------------------------------------------
 Rotational constants (GHZ):         247.8188205           3.0567536           3.0195091
 Leave Link  202 at Sun Dec 10 06:22:40 2023, MaxMem=   536870912 cpu:               0.0 elap:               0.0
 (Enter /usr/site/hpc/x86_64/glibc-2.17/broadwell/gaussian/g16_a.03/pgi-16.5/g16/l301.exe)
 Standard basis: CEP-31G (6D, 10F)
 Ernie: Thresh=  0.10000D-02 Tol=  0.10000D-05 Strict=F.
 There are    20 symmetry adapted cartesian basis functions of A'  symmetry.
 There are     4 symmetry adapted cartesian basis functions of A"  symmetry.
 There are    20 symmetry adapted basis functions of A'  symmetry.
 There are     4 symmetry adapted basis functions of A"  symmetry.
    24 basis functions,    48 primitive gaussians,    24 cartesian basis functions
     8 alpha electrons        8 beta electrons
       nuclear repulsion energy        21.5282420341 Hartrees.
 IExCor=    0 DFT=F Ex=HF Corr=None ExCW=0 ScaHFX=  1.000000
 ScaDFX=  1.000000  1.000000  1.000000  1.000000 ScalE2=  1.000000  1.000000
 IRadAn=      5 IRanWt=     -1 IRanGd=            0 ICorTp=0 IEmpDi=  4
 NAtoms=    6 NActive=    6 NUniq=    6 SFac= 1.00D+00 NAtFMM=   60 NAOKFM=F Big=F
 Integral buffers will be    131072 words long.
 Raffenetti 1 integral format.
 Two-electron integral symmetry is turned on.
 Leave Link  301 at Sun Dec 10 06:22:40 2023, MaxMem=   536870912 cpu:               0.2 elap:               0.1
 (Enter /usr/site/hpc/x86_64/glibc-2.17/broadwell/gaussian/g16_a.03/pgi-16.5/g16/l302.exe)
 NPDir=0 NMtPBC=     1 NCelOv=     1 NCel=       1 NClECP=     1 NCelD=      1
         NCelK=      1 NCelE2=     1 NClLst=     1 CellRange=     0.0.
 One-electron integrals computed using PRISM.
 One-electron integral symmetry used in STVInt
   2 Symmetry operations used in ECPInt.
 ECPInt:  NShTT=      78 NPrTT=     318 LenC2=      79 LenP2D=     273.
 LDataN:  DoStor=T MaxTD1= 2 Len=   12
 NBasis=    24 RedAO= T EigKep=  3.69D-02  NBF=    20     4
 NBsUse=    24 1.00D-06 EigRej= -1.00D+00 NBFU=    20     4
 Leave Link  302 at Sun Dec 10 06:22:40 2023, MaxMem=   536870912 cpu:               0.3 elap:               0.1
 (Enter /usr/site/hpc/x86_64/glibc-2.17/broadwell/gaussian/g16_a.03/pgi-16.5/g16/l303.exe)
 DipDrv:  MaxL=1.
 Leave Link  303 at Sun Dec 10 06:22:40 2023, MaxMem=   536870912 cpu:               0.1 elap:               0.0
 (Enter /usr/site/hpc/x86_64/glibc-2.17/broadwell/gaussian/g16_a.03/pgi-16.5/g16/l401.exe)
 ExpMin= 1.78D-01 ExpMax= 1.92D+01 ExpMxC= 1.92D+01 IAcc=3 IRadAn=         5 AccDes= 0.00D+00
 Harris functional with IExCor=  205 and IRadAn=       5 diagonalized for initial guess.
 HarFok:  IExCor=  205 AccDes= 0.00D+00 IRadAn=         5 IDoV= 1 UseB2=F ITyADJ=14
 ICtDFT=  3500011 ScaDFX=  1.000000  1.000000  1.000000  1.000000
 FoFCou: FMM=F IPFlag=           0 FMFlag=      100000 FMFlg1=           0
         NFxFlg=           0 DoJE=T BraDBF=F KetDBF=T FulRan=T
         wScrn=  0.000000 ICntrl=       500 IOpCl=  0 I1Cent=   200000004 NGrid=           0
         NMat0=    1 NMatS0=      1 NMatT0=    0 NMatD0=    1 NMtDS0=    0 NMtDT0=    0
 Petite list used in FoFCou.
 Harris En= -34.4767387102420    
 JPrj=0 DoOrth=F DoCkMO=F.
 Initial guess orbital symmetries:
       Occupied  (A') (A') (A') (A') (A') (A') (A") (A")
       Virtual   (A') (A') (A') (A') (A") (A") (A') (A') (A') (A')
                 (A') (A') (A') (A') (A') (A')
 The electronic state of the initial guess is 1-A'.
 Leave Link  401 at Sun Dec 10 06:22:40 2023, MaxMem=   536870912 cpu:               0.4 elap:               0.1
 (Enter /usr/site/hpc/x86_64/glibc-2.17/broadwell/gaussian/g16_a.03/pgi-16.5/g16/l502.exe)
 Keep R1 ints in memory in symmetry-blocked form, NReq=852251.
 FoFCou: FMM=F IPFlag=           0 FMFlag=           0 FMFlg1=           0
         NFxFlg=           0 DoJE=F BraDBF=F KetDBF=F FulRan=T
         wScrn=  0.000000 ICntrl=       600 IOpCl=  0 I1Cent=           0 NGrid=           0
         NMat0=    1 NMatS0=    300 NMatT0=    0 NMatD0=    1 NMtDS0=    0 NMtDT0=    0
 Petite list used in FoFCou.
 Closed shell SCF:
 Using DIIS extrapolation, IDIIS=  1040.
 NGot=   536870912 LenX=   536840576 LenY=   536839559
 Requested convergence on RMS density matrix=1.00D-08 within 128 cycles.
 Requested convergence on MAX density matrix=1.00D-06.
 Requested convergence on             energy=1.00D-06.
 No special actions if energy rises.

 Cycle   1  Pass 1  IDiag  1:
 E= -33.5630995767058    
 DIIS: error= 6.73D-02 at cycle   1 NSaved=   1.
 NSaved= 1 IEnMin= 1 EnMin= -33.5630995767058     IErMin= 1 ErrMin= 6.73D-02
 ErrMax= 6.73D-02  0.00D+00 EMaxC= 1.00D-01 BMatC= 1.00D-01 BMatP= 1.00D-01
 IDIUse=3 WtCom= 3.27D-01 WtEn= 6.73D-01
 Coeff-Com:  0.100D+01
 Coeff-En:   0.100D+01
 Coeff:      0.100D+01
 Gap=     0.593 Goal=   None    Shift=    0.000
 GapD=    0.593 DampG=2.000 DampE=0.500 DampFc=1.0000 IDamp=-1.
 RMSDP=1.46D-02 MaxDP=1.18D-01              OVMax= 9.77D-02

 Cycle   2  Pass 1  IDiag  1:
 E= -33.6245045704927     Delta-E=       -0.061404993787 Rises=F Damp=F
 DIIS: error= 3.68D-02 at cycle   2 NSaved=   2.
 NSaved= 2 IEnMin= 2 EnMin= -33.6245045704927     IErMin= 2 ErrMin= 3.68D-02
 ErrMax= 3.68D-02  0.00D+00 EMaxC= 1.00D-01 BMatC= 3.73D-02 BMatP= 1.00D-01
 IDIUse=3 WtCom= 6.32D-01 WtEn= 3.68D-01
 Coeff-Com:  0.376D+00 0.624D+00
 Coeff-En:   0.110D+00 0.890D+00
 Coeff:      0.278D+00 0.722D+00
 Gap=     0.676 Goal=   None    Shift=    0.000
 RMSDP=6.32D-03 MaxDP=5.35D-02 DE=-6.14D-02 OVMax= 3.53D-02

 Cycle   3  Pass 1  IDiag  1:
 E= -33.6543535552196     Delta-E=       -0.029848984727 Rises=F Damp=F
 DIIS: error= 6.92D-03 at cycle   3 NSaved=   3.
 NSaved= 3 IEnMin= 3 EnMin= -33.6543535552196     IErMin= 3 ErrMin= 6.92D-03
 ErrMax= 6.92D-03  0.00D+00 EMaxC= 1.00D-01 BMatC= 8.56D-04 BMatP= 3.73D-02
 IDIUse=3 WtCom= 9.31D-01 WtEn= 6.92D-02
 Coeff-Com: -0.113D+00-0.171D-01 0.113D+01
 Coeff-En:   0.000D+00 0.000D+00 0.100D+01
 Coeff:     -0.105D+00-0.159D-01 0.112D+01
 Gap=     0.669 Goal=   None    Shift=    0.000
 RMSDP=1.03D-03 MaxDP=8.99D-03 DE=-2.98D-02 OVMax= 7.82D-03

 Cycle   4  Pass 1  IDiag  1:
 E= -33.6552008140224     Delta-E=       -0.000847258803 Rises=F Damp=F
 DIIS: error= 7.15D-04 at cycle   4 NSaved=   4.
 NSaved= 4 IEnMin= 4 EnMin= -33.6552008140224     IErMin= 4 ErrMin= 7.15D-04
 ErrMax= 7.15D-04  0.00D+00 EMaxC= 1.00D-01 BMatC= 5.41D-06 BMatP= 8.56D-04
 IDIUse=3 WtCom= 9.93D-01 WtEn= 7.15D-03
 Coeff-Com:  0.433D-01-0.169D-01-0.529D+00 0.150D+01
 Coeff-En:   0.000D+00 0.000D+00 0.000D+00 0.100D+01
 Coeff:      0.430D-01-0.168D-01-0.525D+00 0.150D+01
 Gap=     0.671 Goal=   None    Shift=    0.000
 RMSDP=2.29D-04 MaxDP=1.96D-03 DE=-8.47D-04 OVMax= 9.45D-04

 Cycle   5  Pass 1  IDiag  1:
 E= -33.6552130560134     Delta-E=       -0.000012241991 Rises=F Damp=F
 DIIS: error= 4.86D-05 at cycle   5 NSaved=   5.
 NSaved= 5 IEnMin= 5 EnMin= -33.6552130560134     IErMin= 5 ErrMin= 4.86D-05
 ErrMax= 4.86D-05  0.00D+00 EMaxC= 1.00D-01 BMatC= 4.10D-08 BMatP= 5.41D-06
 IDIUse=1 WtCom= 1.00D+00 WtEn= 0.00D+00
 Coeff-Com: -0.372D-02 0.181D-02 0.470D-01-0.181D+00 0.114D+01
 Coeff:     -0.372D-02 0.181D-02 0.470D-01-0.181D+00 0.114D+01
 Gap=     0.671 Goal=   None    Shift=    0.000
 RMSDP=1.52D-05 MaxDP=1.71D-04 DE=-1.22D-05 OVMax= 1.11D-04

 Cycle   6  Pass 1  IDiag  1:
 E= -33.6552131408574     Delta-E=       -0.000000084844 Rises=F Damp=F
 DIIS: error= 1.25D-05 at cycle   6 NSaved=   6.
 NSaved= 6 IEnMin= 6 EnMin= -33.6552131408574     IErMin= 6 ErrMin= 1.25D-05
 ErrMax= 1.25D-05  0.00D+00 EMaxC= 1.00D-01 BMatC= 6.53D-09 BMatP= 4.10D-08
 IDIUse=1 WtCom= 1.00D+00 WtEn= 0.00D+00
 Coeff-Com: -0.295D-02 0.129D-02 0.366D-01-0.115D+00 0.260D+00 0.820D+00
 Coeff:     -0.295D-02 0.129D-02 0.366D-01-0.115D+00 0.260D+00 0.820D+00
 Gap=     0.671 Goal=   None    Shift=    0.000
 RMSDP=3.62D-06 MaxDP=3.41D-05 DE=-8.48D-08 OVMax= 3.56D-05

 Cycle   7  Pass 1  IDiag  1:
 E= -33.6552131495747     Delta-E=       -0.000000008717 Rises=F Damp=F
 DIIS: error= 5.42D-06 at cycle   7 NSaved=   7.
 NSaved= 7 IEnMin= 7 EnMin= -33.6552131495747     IErMin= 7 ErrMin= 5.42D-06
 ErrMax= 5.42D-06  0.00D+00 EMaxC= 1.00D-01 BMatC= 6.12D-10 BMatP= 6.53D-09
 IDIUse=1 WtCom= 1.00D+00 WtEn= 0.00D+00
 Coeff-Com:  0.882D-03-0.351D-03-0.108D-01 0.377D-01-0.183D+00-0.717D-01
 Coeff-Com:  0.123D+01
 Coeff:      0.882D-03-0.351D-03-0.108D-01 0.377D-01-0.183D+00-0.717D-01
 Coeff:      0.123D+01
 Gap=     0.671 Goal=   None    Shift=    0.000
 RMSDP=1.99D-06 MaxDP=1.90D-05 DE=-8.72D-09 OVMax= 1.87D-05

 Cycle   8  Pass 1  IDiag  1:
 E= -33.6552131510574     Delta-E=       -0.000000001483 Rises=F Damp=F
 DIIS: error= 1.03D-06 at cycle   8 NSaved=   8.
 NSaved= 8 IEnMin= 8 EnMin= -33.6552131510574     IErMin= 8 ErrMin= 1.03D-06
 ErrMax= 1.03D-06  0.00D+00 EMaxC= 1.00D-01 BMatC= 2.24D-11 BMatP= 6.12D-10
 IDIUse=1 WtCom= 1.00D+00 WtEn= 0.00D+00
 Coeff-Com:  0.287D-06-0.234D-04-0.569D-04-0.618D-03 0.260D-01-0.303D-01
 Coeff-Com: -0.286D+00 0.129D+01
 Coeff:      0.287D-06-0.234D-04-0.569D-04-0.618D-03 0.260D-01-0.303D-01
 Coeff:     -0.286D+00 0.129D+01
 Gap=     0.671 Goal=   None    Shift=    0.000
 RMSDP=5.15D-07 MaxDP=2.90D-06 DE=-1.48D-09 OVMax= 3.99D-06

 Cycle   9  Pass 1  IDiag  1:
 E= -33.6552131511188     Delta-E=       -0.000000000061 Rises=F Damp=F
 DIIS: error= 1.33D-07 at cycle   9 NSaved=   9.
 NSaved= 9 IEnMin= 9 EnMin= -33.6552131511188     IErMin= 9 ErrMin= 1.33D-07
 ErrMax= 1.33D-07  0.00D+00 EMaxC= 1.00D-01 BMatC= 5.88D-13 BMatP= 2.24D-11
 IDIUse=1 WtCom= 1.00D+00 WtEn= 0.00D+00
 Coeff-Com:  0.403D-05 0.597D-05-0.238D-04 0.328D-03-0.961D-02 0.121D-01
 Coeff-Com:  0.105D+00-0.543D+00 0.143D+01
 Coeff:      0.403D-05 0.597D-05-0.238D-04 0.328D-03-0.961D-02 0.121D-01
 Coeff:      0.105D+00-0.543D+00 0.143D+01
 Gap=     0.671 Goal=   None    Shift=    0.000
 RMSDP=1.12D-07 MaxDP=5.11D-07 DE=-6.14D-11 OVMax= 7.57D-07

 Cycle  10  Pass 1  IDiag  1:
 E= -33.6552131511203     Delta-E=       -0.000000000001 Rises=F Damp=F
 DIIS: error= 9.25D-09 at cycle  10 NSaved=  10.
 NSaved=10 IEnMin=10 EnMin= -33.6552131511203     IErMin=10 ErrMin= 9.25D-09
 ErrMax= 9.25D-09  0.00D+00 EMaxC= 1.00D-01 BMatC= 3.74D-15 BMatP= 5.88D-13
 IDIUse=1 WtCom= 1.00D+00 WtEn= 0.00D+00
 Coeff-Com:  0.232D-06-0.158D-05-0.837D-05-0.218D-04 0.182D-02-0.267D-02
 Coeff-Com: -0.211D-01 0.112D+00-0.362D+00 0.127D+01
 Coeff:      0.232D-06-0.158D-05-0.837D-05-0.218D-04 0.182D-02-0.267D-02
 Coeff:     -0.211D-01 0.112D+00-0.362D+00 0.127D+01
 Gap=     0.671 Goal=   None    Shift=    0.000
 RMSDP=1.26D-08 MaxDP=6.21D-08 DE=-1.49D-12 OVMax= 7.74D-08

 Cycle  11  Pass 1  IDiag  1:
 E= -33.6552131511203     Delta-E=       -0.000000000000 Rises=F Damp=F
 DIIS: error= 5.48D-10 at cycle  11 NSaved=  11.
 NSaved=11 IEnMin=11 EnMin= -33.6552131511203     IErMin=11 ErrMin= 5.48D-10
 ErrMax= 5.48D-10  0.00D+00 EMaxC= 1.00D-01 BMatC= 1.36D-17 BMatP= 3.74D-15
 IDIUse=1 WtCom= 1.00D+00 WtEn= 0.00D+00
 Coeff-Com: -0.792D-07 0.278D-06 0.186D-05 0.217D-05-0.309D-03 0.467D-03
 Coeff-Com:  0.361D-02-0.195D-01 0.644D-01-0.261D+00 0.121D+01
 Coeff:     -0.792D-07 0.278D-06 0.186D-05 0.217D-05-0.309D-03 0.467D-03
 Coeff:      0.361D-02-0.195D-01 0.644D-01-0.261D+00 0.121D+01
 Gap=     0.671 Goal=   None    Shift=    0.000
 RMSDP=5.70D-10 MaxDP=3.09D-09 DE=-7.11D-14 OVMax= 3.32D-09

 SCF Done:  E(RHF) =  -33.6552131511     A.U. after   11 cycles
            NFock= 11  Conv=0.57D-09     -V/T= 2.2569
 KE= 2.677739903133D+01 PE=-1.246742612939D+02 EE= 4.271340707732D+01
 Leave Link  502 at Sun Dec 10 06:22:40 2023, MaxMem=   536870912 cpu:               0.3 elap:               0.1
 (Enter /usr/site/hpc/x86_64/glibc-2.17/broadwell/gaussian/g16_a.03/pgi-16.5/g16/l801.exe)
 Windowed orbitals will be sorted by symmetry type.
 Range of M.O.s used for correlation:     1    24
 NBasis=    24 NAE=     8 NBE=     8 NFC=     0 NFV=     0
 NROrb=     24 NOA=     8 NOB=     8 NVA=    16 NVB=    16
 Leave Link  801 at Sun Dec 10 06:22:40 2023, MaxMem=   536870912 cpu:               0.1 elap:               0.0
 (Enter /usr/site/hpc/x86_64/glibc-2.17/broadwell/gaussian/g16_a.03/pgi-16.5/g16/l804.exe)
 Closed-shell transformation, MDV=   536870912 ITran=4 ISComp=2.
 Unit  1 TFree=       1025975 TCopy=        210600.
 Semi-Direct transformation.
 ModeAB=           2 MOrb=             8 LenV=     536742031
 LASXX=        22470 LTotXX=       22470 LenRXX=       22470
 LTotAB=       26208 MaxLAS=       57600 LenRXY=       57600
 NonZer=       62016 LenScr=      524288 LnRSAI=           0
 LnScr1=           0 LExtra=           0 Total=       604358
 MaxDsk=          -1 SrtSym=           F ITran=            4
 DoSDTr:  NPSUse=  4
 JobTyp=0 Pass  1:  I=   1 to   8.
 (rs|ai) integrals will be sorted in core.
 Complete sort for first half transformation.
 First half transformation complete.
 Complete sort for second half transformation.
 Second half transformation complete.
 Spin components of T(2) and E(2):
     alpha-alpha T2 =       0.9073195530D-02 E2=     -0.2592889063D-01
     alpha-beta  T2 =       0.5982262568D-01 E2=     -0.1765334984D+00
     beta-beta   T2 =       0.9073195530D-02 E2=     -0.2592889063D-01
 ANorm=    0.1038252867D+01
 E2 =    -0.2283912797D+00 EUMP2 =    -0.33883604430788D+02
 Leave Link  804 at Sun Dec 10 06:22:40 2023, MaxMem=   536870912 cpu:               0.2 elap:               0.1
 (Enter /usr/site/hpc/x86_64/glibc-2.17/broadwell/gaussian/g16_a.03/pgi-16.5/g16/l913.exe)
 CIDS:  MDV=   536870912.
 IFCWin=0 IBDFC=1 NFBD=     0     0 NFCmp=     0     0 NFFFC=     0     0
 Using DD3R+UMP44R for 1st iteration.
 Using DD4RQ for 2nd and later iterations.
 Keep R2 and R3 ints in memory in symmetry-blocked form, NReq=864859.
 FoFCou: FMM=F IPFlag=           0 FMFlag=           0 FMFlg1=           0
         NFxFlg=           0 DoJE=F BraDBF=F KetDBF=F FulRan=T
         wScrn=  0.000000 ICntrl=       600 IOpCl=  0 I1Cent=           0 NGrid=           0
         NMat0=    1 NMatS0=    300 NMatT0=    0 NMatD0=    1 NMtDS0=    0 NMtDT0=    0
 Petite list used in FoFCou.
 CIDS: In Core Option IDoMem=           1.
 CCSD(T)
 =======
 Iterations=  50 Convergence= 0.100D-06
 Produce multiple copies of IABC intergrals
 Iteration Nr.   1
 **********************
 DD1Dir will call FoFMem   1 times, MxPair=        72
 NAB=    36 NAA=     0 NBB=     0.
 MP4(R+Q)= -0.75172627D-03
 Maximum subspace dimension=  5
 A-vector RMS=  5.7910930D-03 Max=  1.3166930D-02 conv= 1.00D-05.
 RLE energy=       -0.2343811865
 E3=       -0.53620642D-02        EUMP3=      -0.33888966495D+02
 E4(DQ)=   -0.58994011D-02        UMP4(DQ)=   -0.33894865896D+02
 E4(SDQ)=  -0.79456829D-02        UMP4(SDQ)=  -0.33896912178D+02
 VARIATIONAL ENERGIES WITH THE FIRST-ORDER WAVEFUNCTION:
 DE(Corr)= -0.23422845     E(Corr)=     -33.889441603    
 NORM(A)=   0.10416624D+01
 Iteration Nr.   2
 **********************
 DD1Dir will call FoFMem   1 times, MxPair=        72
 NAB=    36 NAA=     0 NBB=     0.
 A-vector RMS=  9.7719326D-04 Max=  2.6629105D-03 conv= 1.00D-05.
 RLE energy=       -0.2421393928
 DE(Corr)= -0.24020930     E(CORR)=     -33.895422456     Delta=-5.98D-03
 NORM(A)=   0.10454385D+01
 Iteration Nr.   3
 **********************
 DD1Dir will call FoFMem   1 times, MxPair=        72
 NAB=    36 NAA=     0 NBB=     0.
 A-vector RMS=  3.8196494D-04 Max=  9.8775853D-04 conv= 1.00D-05.
 RLE energy=       -0.2426900808
 DE(Corr)= -0.24224213     E(CORR)=     -33.897455285     Delta=-2.03D-03
 NORM(A)=   0.10459963D+01
 Iteration Nr.   4
 **********************
 DD1Dir will call FoFMem   1 times, MxPair=        72
 NAB=    36 NAA=     0 NBB=     0.
 A-vector RMS=  9.3500129D-05 Max=  2.5841590D-04 conv= 1.00D-05.
 RLE energy=       -0.2427371112
 DE(Corr)= -0.24270149     E(CORR)=     -33.897914641     Delta=-4.59D-04
 NORM(A)=   0.10460679D+01
 Iteration Nr.   5
 **********************
 DD1Dir will call FoFMem   1 times, MxPair=        72
 NAB=    36 NAA=     0 NBB=     0.
 A-vector RMS=  4.0723750D-05 Max=  1.2731812D-04 conv= 1.00D-05.
 RLE energy=       -0.2427359226
 DE(Corr)= -0.24273351     E(CORR)=     -33.897946665     Delta=-3.20D-05
 NORM(A)=   0.10460776D+01
 Iteration Nr.   6
 **********************
 DD1Dir will call FoFMem   1 times, MxPair=        72
 NAB=    36 NAA=     0 NBB=     0.
 A-vector RMS=  1.3520454D-05 Max=  4.8841618D-05 conv= 1.00D-05.
 RLE energy=       -0.2427337332
 DE(Corr)= -0.24273586     E(CORR)=     -33.897949010     Delta=-2.35D-06
 NORM(A)=   0.10460804D+01
 Iteration Nr.   7
 **********************
 DD1Dir will call FoFMem   1 times, MxPair=        72
 NAB=    36 NAA=     0 NBB=     0.
 A-vector RMS=  4.3492468D-06 Max=  1.1410034D-05 conv= 1.00D-05.
 RLE energy=       -0.2427352546
 DE(Corr)= -0.24273534     E(CORR)=     -33.897948488     Delta= 5.22D-07
 NORM(A)=   0.10460819D+01
 Iteration Nr.   8
 **********************
 DD1Dir will call FoFMem   1 times, MxPair=        72
 NAB=    36 NAA=     0 NBB=     0.
 A-vector RMS=  1.3877567D-06 Max=  4.7006074D-06 conv= 1.00D-05.
 RLE energy=       -0.2427349962
 DE(Corr)= -0.24273513     E(CORR)=     -33.897948285     Delta= 2.03D-07
 NORM(A)=   0.10460823D+01
 Iteration Nr.   9
 **********************
 DD1Dir will call FoFMem   1 times, MxPair=        72
 NAB=    36 NAA=     0 NBB=     0.
 A-vector RMS=  3.0798803D-07 Max=  1.1293330D-06 conv= 1.00D-05.
 RLE energy=       -0.2427352014
 DE(Corr)= -0.24273522     E(CORR)=     -33.897948373     Delta=-8.83D-08
 NORM(A)=   0.10460825D+01
 CI/CC converged in    9 iterations to DelEn=-8.83D-08 Conv= 1.00D-07 ErrA1= 3.08D-07 Conv= 1.00D-05
 Wavefunction amplitudes converged. E(Corr)=     -33.897948373    
 Largest amplitude= 5.80D-02
 IPart=  3 IA=    2   12.50% done.
 IPart=  4 IA=    3   24.17% done.
 IPart=  2 IA=    4   35.00% done.
 IPart=  2 IA=    5   45.00% done.
 IPart=  4 IA=    6   54.17% done.
 IPart=  3 IA=    7   62.50% done.
 IPart=  1 IA=    8   70.00% done.
 IPart=  2 IA=   10   82.50% done.
 IPart=  4 IA=   12   91.67% done.
 Time for triples=        0.25 seconds.
 T4(CCSD)= -0.31050467D-02
 T5(CCSD)=  0.53113887D-03
 CCSD(T)= -0.33900522281D+02
 Discarding MO integrals.
 Leave Link  913 at Sun Dec 10 06:22:41 2023, MaxMem=   536870912 cpu:               0.9 elap:               0.2
 (Enter /usr/site/hpc/x86_64/glibc-2.17/broadwell/gaussian/g16_a.03/pgi-16.5/g16/l601.exe)
 Copying SCF densities to generalized density rwf, IOpCl= 0 IROHF=0.

 **********************************************************************

            Population analysis using the SCF density.

 **********************************************************************

 Orbital symmetries:
       Occupied  (A') (A') (A') (A') (A') (A') (A") (A")
       Virtual   (A') (A') (A') (A') (A") (A") (A') (A') (A') (A')
                 (A') (A') (A') (A') (A') (A')
 The electronic state is 1-A'.
 Alpha  occ. eigenvalues --   -1.36862  -1.33953  -0.72517  -0.69559  -0.56805
 Alpha  occ. eigenvalues --   -0.53760  -0.51480  -0.48566
 Alpha virt. eigenvalues --    0.18510   0.22504   0.29306   0.32634   0.79084
 Alpha virt. eigenvalues --    0.81932   0.83172   0.84870   0.85230   0.88200
 Alpha virt. eigenvalues --    1.16156   1.19416   1.20586   1.27270   2.55407
 Alpha virt. eigenvalues --    2.63234
          Condensed to atoms (all electrons):
               1          2          3          4          5          6
     1  O    6.226347   0.267566   0.261177  -0.000174   0.000002   0.000007
     2  H    0.267566   0.363633  -0.022940   0.001285  -0.000014  -0.000043
     3  H    0.261177  -0.022940   0.398526   0.000001   0.000000  -0.000000
     4  O   -0.000174   0.001285   0.000001   6.220327   0.267499   0.263468
     5  H    0.000002  -0.000014   0.000000   0.267499   0.375199  -0.023132
     6  H    0.000007  -0.000043  -0.000000   0.263468  -0.023132   0.386565
 Mulliken charges:
               1
     1  O   -0.754926
     2  H    0.390514
     3  H    0.363237
     4  O   -0.752405
     5  H    0.380446
     6  H    0.373135
 Sum of Mulliken charges =   0.00000
 Mulliken charges with hydrogens summed into heavy atoms:
               1
     1  O   -0.001176
     4  O    0.001176
 Electronic spatial extent (au):  <R**2>=            299.4862
 Charge=              0.0000 electrons
 Dipole moment (field-independent basis, Debye):
    X=             -2.8803    Y=             -4.2199    Z=              0.0000  Tot=              5.1092
 Quadrupole moment (field-independent basis, Debye-Ang):
   XX=             -9.7774   YY=             -6.9522   ZZ=            -14.9952
   XY=             -4.8224   XZ=              0.0000   YZ=             -0.0000
 Traceless Quadrupole moment (field-independent basis, Debye-Ang):
   XX=              0.7975   YY=              3.6227   ZZ=             -4.4202
   XY=             -4.8224   XZ=              0.0000   YZ=             -0.0000
 Octapole moment (field-independent basis, Debye-Ang**2):
  XXX=             -3.0678  YYY=            -52.5217  ZZZ=              0.0000  XYY=            -14.8056
  XXY=             -3.7871  XXZ=              0.0000  XZZ=             -0.5397  YZZ=             -0.8227
  YYZ=              0.0000  XYZ=              0.0000
 Hexadecapole moment (field-independent basis, Debye-Ang**3):
 XXXX=            -12.2210 YYYY=           -280.6055 ZZZZ=            -12.2332 XXXY=             -0.4452
 XXXZ=             -0.0000 YYYX=            -42.4643 YYYZ=              0.0000 ZZZX=             -0.0000
 ZZZY=              0.0000 XXYY=            -42.9636 XXZZ=             -4.5632 YYZZ=            -72.4705
 XXYZ=              0.0000 YYXZ=              0.0000 ZZXY=              0.4473
 N-N= 2.152824203413D+01 E-N=-1.246742612939D+02  KE= 2.677739903133D+01
 Symmetry A'   KE= 1.790043321906D+01
 Symmetry A"   KE= 8.876965812265D+00
 Leave Link  601 at Sun Dec 10 06:22:41 2023, MaxMem=   536870912 cpu:               0.1 elap:               0.0
 (Enter /usr/site/hpc/x86_64/glibc-2.17/broadwell/gaussian/g16_a.03/pgi-16.5/g16/l9999.exe)
 1\1\GINC-N033\SP\RCCSD(T)-FC\CEP-31G\H4O2\ROOT\10-Dec-2023\0\\#p CCSD(
 T)/CEP-31G\\H2O_H2O_2760\\0,1\O,0,0.,-0.009833,0.\H,0,-0.799571,-0.580
 965,0.\H,0,0.799571,-0.580965,0.\O,0,-3.45195,-2.469245,0.\H,0,-4.4339
 75,-2.435606,0.\H,0,-3.16529,-3.409103,0.\\Version=ES64L-G16RevA.03\St
 ate=1-A'\HF=-33.6552132\MP2=-33.8836044\MP3=-33.8889665\MP4D=-33.89411
 42\MP4DQ=-33.8948659\MP4SDQ=-33.8969122\CCSD=-33.8979484\CCSD(T)=-33.9
 005223\RMSD=5.700e-10\PG=CS [SG(H4O2)]\\@


 NECESSARY EVIL: ONE WE LIKE TOO MUCH TO RELINQUISH.
 Job cpu time:       0 days  0 hours  0 minutes  3.2 seconds.
 Elapsed time:       0 days  0 hours  0 minutes  1.0 seconds.
 File lengths (MBytes):  RWF=     72 Int=      0 D2E=      0 Chk=      8 Scr=      8
 Normal termination of Gaussian 16 at Sun Dec 10 06:22:41 2023.
