 Entering Gaussian System, Link 0=g16
 Input=H2O_H2O_648.com
 Output=H2O_H2O_648.log
 Initial command:
 /usr/site/hpc/x86_64/glibc-2.17/broadwell/gaussian/g16_a.03/pgi-16.5/g16/l1.exe "/gpfs/gpfs1/scratch/c7441090/OH Coord/Gau-1640129.inp" -scrdir="/gpfs/gpfs1/scratch/c7441090/OH Coord/"
 Entering Link 1 = /usr/site/hpc/x86_64/glibc-2.17/broadwell/gaussian/g16_a.03/pgi-16.5/g16/l1.exe PID=   1640130.
  
 Copyright (c) 1988,1990,1992,1993,1995,1998,2003,2009,2016,
            Gaussian, Inc.  All Rights Reserved.
  
 This is part of the Gaussian(R) 16 program.  It is based on
 the Gaussian(R) 09 system (copyright 2009, Gaussian, Inc.),
 the Gaussian(R) 03 system (copyright 2003, Gaussian, Inc.),
 the Gaussian(R) 98 system (copyright 1998, Gaussian, Inc.),
 the Gaussian(R) 94 system (copyright 1995, Gaussian, Inc.),
 the Gaussian 92(TM) system (copyright 1992, Gaussian, Inc.),
 the Gaussian 90(TM) system (copyright 1990, Gaussian, Inc.),
 the Gaussian 88(TM) system (copyright 1988, Gaussian, Inc.),
 the Gaussian 86(TM) system (copyright 1986, Carnegie Mellon
 University), and the Gaussian 82(TM) system (copyright 1983,
 Carnegie Mellon University). Gaussian is a federally registered
 trademark of Gaussian, Inc.
  
 This software contains proprietary and confidential information,
 including trade secrets, belonging to Gaussian, Inc.
  
 This software is provided under written license and may be
 used, copied, transmitted, or stored only in accord with that
 written license.
  
 The following legend is applicable only to US Government
 contracts under FAR:
  
                    RESTRICTED RIGHTS LEGEND
  
 Use, reproduction and disclosure by the US Government is
 subject to restrictions as set forth in subparagraphs (a)
 and (c) of the Commercial Computer Software - Restricted
 Rights clause in FAR 52.227-19.
  
 Gaussian, Inc.
 340 Quinnipiac St., Bldg. 40, Wallingford CT 06492
  
  
 ---------------------------------------------------------------
 Warning -- This program may not be used in any manner that
 competes with the business of Gaussian, Inc. or will provide
 assistance to any competitor of Gaussian, Inc.  The licensee
 of this program is prohibited from giving any competitor of
 Gaussian, Inc. access to this program.  By using this program,
 the user acknowledges that Gaussian, Inc. is engaged in the
 business of creating and licensing software in the field of
 computational chemistry and represents and warrants to the
 licensee that it is not a competitor of Gaussian, Inc. and that
 it will not use this program in any manner prohibited above.
 ---------------------------------------------------------------
  

 Cite this work as:
 Gaussian 16, Revision A.03,
 M. J. Frisch, G. W. Trucks, H. B. Schlegel, G. E. Scuseria, 
 M. A. Robb, J. R. Cheeseman, G. Scalmani, V. Barone, 
 G. A. Petersson, H. Nakatsuji, X. Li, M. Caricato, A. V. Marenich, 
 J. Bloino, B. G. Janesko, R. Gomperts, B. Mennucci, H. P. Hratchian, 
 J. V. Ortiz, A. F. Izmaylov, J. L. Sonnenberg, D. Williams-Young, 
 F. Ding, F. Lipparini, F. Egidi, J. Goings, B. Peng, A. Petrone, 
 T. Henderson, D. Ranasinghe, V. G. Zakrzewski, J. Gao, N. Rega, 
 G. Zheng, W. Liang, M. Hada, M. Ehara, K. Toyota, R. Fukuda, 
 J. Hasegawa, M. Ishida, T. Nakajima, Y. Honda, O. Kitao, H. Nakai, 
 T. Vreven, K. Throssell, J. A. Montgomery, Jr., J. E. Peralta, 
 F. Ogliaro, M. J. Bearpark, J. J. Heyd, E. N. Brothers, K. N. Kudin, 
 V. N. Staroverov, T. A. Keith, R. Kobayashi, J. Normand, 
 K. Raghavachari, A. P. Rendell, J. C. Burant, S. S. Iyengar, 
 J. Tomasi, M. Cossi, J. M. Millam, M. Klene, C. Adamo, R. Cammi, 
 J. W. Ochterski, R. L. Martin, K. Morokuma, O. Farkas, 
 J. B. Foresman, and D. J. Fox, Gaussian, Inc., Wallingford CT, 2016.
 
 ******************************************
 Gaussian 16:  ES64L-G16RevA.03 25-Dec-2016
                10-Dec-2023 
 ******************************************
 %NProcShared=4
 Will use up to    4 processors via shared memory.
 %Mem=4GB
 %Chk=H2O_H2O_648.chk
 ------------------
 #p CCSD(T)/CEP-31G
 ------------------
 1/38=1,172=1/1;
 2/12=2,17=6,18=5,40=1/2;
 3/5=9,6=1,11=9,25=1,30=1/1,2,3;
 4//1;
 5/5=2,38=5/2;
 8/6=4,9=120000,10=1/1,4;
 9/5=7,14=2/13;
 6/7=2,8=2,9=2,10=2/1;
 99/5=1,9=1/99;
 Leave Link    1 at Sun Dec 10 06:30:42 2023, MaxMem=   536870912 cpu:               0.2 elap:               0.1
 (Enter /usr/site/hpc/x86_64/glibc-2.17/broadwell/gaussian/g16_a.03/pgi-16.5/g16/l101.exe)
 -----------
 H2O_H2O_648
 -----------
 Symbolic Z-matrix:
 Charge =  0 Multiplicity = 1
 O                     0.       -0.00983   0. 
 H                    -0.79957  -0.58097   0. 
 H                     0.79957  -0.58097   0. 
 O                    -2.07632  -1.47675   0. 
 H                    -2.69852  -0.71624   0. 
 H                    -2.59393  -2.31196   0. 
 
 ITRead=  0  0  0  0  0  0
 MicOpt= -1 -1 -1 -1 -1 -1
 NAtoms=      6 NQM=        6 NQMF=       0 NMMI=      0 NMMIF=      0
                NMic=       0 NMicF=      0.
                    Isotopes and Nuclear Properties:
 (Nuclear quadrupole moments (NQMom) in fm**2, nuclear magnetic moments (NMagM)
  in nuclear magnetons)

  Atom         1           2           3           4           5           6
 IAtWgt=          16           1           1          16           1           1
 AtmWgt=  15.9949146   1.0078250   1.0078250  15.9949146   1.0078250   1.0078250
 NucSpn=           0           1           1           0           1           1
 AtZEff=  -0.0000000  -0.0000000  -0.0000000  -0.0000000  -0.0000000  -0.0000000
 NQMom=    0.0000000   0.0000000   0.0000000   0.0000000   0.0000000   0.0000000
 NMagM=    0.0000000   2.7928460   2.7928460   0.0000000   2.7928460   2.7928460
 AtZNuc=   8.0000000   1.0000000   1.0000000   8.0000000   1.0000000   1.0000000
 Leave Link  101 at Sun Dec 10 06:30:42 2023, MaxMem=   536870912 cpu:               0.3 elap:               0.1
 (Enter /usr/site/hpc/x86_64/glibc-2.17/broadwell/gaussian/g16_a.03/pgi-16.5/g16/l202.exe)
                          Input orientation:                          
 ---------------------------------------------------------------------
 Center     Atomic      Atomic             Coordinates (Angstroms)
 Number     Number       Type             X           Y           Z
 ---------------------------------------------------------------------
      1          8           0        0.000000   -0.009833    0.000000
      2          1           0       -0.799571   -0.580965    0.000000
      3          1           0        0.799571   -0.580965    0.000000
      4          8           0       -2.076320   -1.476745    0.000000
      5          1           0       -2.698523   -0.716239    0.000000
      6          1           0       -2.593934   -2.311958    0.000000
 ---------------------------------------------------------------------
                    Distance matrix (angstroms):
                    1          2          3          4          5
     1  O    0.000000
     2  H    0.982601   0.000000
     3  H    0.982601   1.599142   0.000000
     4  O    2.542230   1.559651   3.012170   0.000000
     5  H    2.789451   1.903764   3.500709   0.982602   0.000000
     6  H    3.468180   2.493206   3.809490   0.982601   1.599143
                    6
     6  H    0.000000
 Stoichiometry    H4O2
 Framework group  CS[SG(H4O2)]
 Deg. of freedom     9
 Full point group                 CS      NOp   2
 Largest Abelian subgroup         CS      NOp   2
 Largest concise Abelian subgroup C1      NOp   1
                         Standard orientation:                         
 ---------------------------------------------------------------------
 Center     Atomic      Atomic             Coordinates (Angstroms)
 Number     Number       Type             X           Y           Z
 ---------------------------------------------------------------------
      1          8           0        0.016812   -1.352772    0.000000
      2          1           0        0.011717   -0.370184    0.000000
      3          1           0       -0.911016   -1.676254    0.000000
      4          8           0        0.016812    1.189458    0.000000
      5          1           0        0.996964    1.258806    0.000000
      6          1           0       -0.366660    2.094143    0.000000
 ---------------------------------------------------------------------
 Rotational constants (GHZ):         264.1035321           8.2974540           8.0447099
 Leave Link  202 at Sun Dec 10 06:30:42 2023, MaxMem=   536870912 cpu:               0.0 elap:               0.0
 (Enter /usr/site/hpc/x86_64/glibc-2.17/broadwell/gaussian/g16_a.03/pgi-16.5/g16/l301.exe)
 Standard basis: CEP-31G (6D, 10F)
 Ernie: Thresh=  0.10000D-02 Tol=  0.10000D-05 Strict=F.
 There are    20 symmetry adapted cartesian basis functions of A'  symmetry.
 There are     4 symmetry adapted cartesian basis functions of A"  symmetry.
 There are    20 symmetry adapted basis functions of A'  symmetry.
 There are     4 symmetry adapted basis functions of A"  symmetry.
    24 basis functions,    48 primitive gaussians,    24 cartesian basis functions
     8 alpha electrons        8 beta electrons
       nuclear repulsion energy        27.0043669065 Hartrees.
 IExCor=    0 DFT=F Ex=HF Corr=None ExCW=0 ScaHFX=  1.000000
 ScaDFX=  1.000000  1.000000  1.000000  1.000000 ScalE2=  1.000000  1.000000
 IRadAn=      5 IRanWt=     -1 IRanGd=            0 ICorTp=0 IEmpDi=  4
 NAtoms=    6 NActive=    6 NUniq=    6 SFac= 1.00D+00 NAtFMM=   60 NAOKFM=F Big=F
 Integral buffers will be    131072 words long.
 Raffenetti 1 integral format.
 Two-electron integral symmetry is turned on.
 Leave Link  301 at Sun Dec 10 06:30:42 2023, MaxMem=   536870912 cpu:               0.2 elap:               0.1
 (Enter /usr/site/hpc/x86_64/glibc-2.17/broadwell/gaussian/g16_a.03/pgi-16.5/g16/l302.exe)
 NPDir=0 NMtPBC=     1 NCelOv=     1 NCel=       1 NClECP=     1 NCelD=      1
         NCelK=      1 NCelE2=     1 NClLst=     1 CellRange=     0.0.
 One-electron integrals computed using PRISM.
 One-electron integral symmetry used in STVInt
   2 Symmetry operations used in ECPInt.
 ECPInt:  NShTT=      78 NPrTT=     318 LenC2=      79 LenP2D=     295.
 LDataN:  DoStor=T MaxTD1= 2 Len=   12
 NBasis=    24 RedAO= T EigKep=  8.23D-03  NBF=    20     4
 NBsUse=    24 1.00D-06 EigRej= -1.00D+00 NBFU=    20     4
 Leave Link  302 at Sun Dec 10 06:30:42 2023, MaxMem=   536870912 cpu:               0.3 elap:               0.1
 (Enter /usr/site/hpc/x86_64/glibc-2.17/broadwell/gaussian/g16_a.03/pgi-16.5/g16/l303.exe)
 DipDrv:  MaxL=1.
 Leave Link  303 at Sun Dec 10 06:30:42 2023, MaxMem=   536870912 cpu:               0.1 elap:               0.0
 (Enter /usr/site/hpc/x86_64/glibc-2.17/broadwell/gaussian/g16_a.03/pgi-16.5/g16/l401.exe)
 ExpMin= 1.78D-01 ExpMax= 1.92D+01 ExpMxC= 1.92D+01 IAcc=3 IRadAn=         5 AccDes= 0.00D+00
 Harris functional with IExCor=  205 and IRadAn=       5 diagonalized for initial guess.
 HarFok:  IExCor=  205 AccDes= 0.00D+00 IRadAn=         5 IDoV= 1 UseB2=F ITyADJ=14
 ICtDFT=  3500011 ScaDFX=  1.000000  1.000000  1.000000  1.000000
 FoFCou: FMM=F IPFlag=           0 FMFlag=      100000 FMFlg1=           0
         NFxFlg=           0 DoJE=T BraDBF=F KetDBF=T FulRan=T
         wScrn=  0.000000 ICntrl=       500 IOpCl=  0 I1Cent=   200000004 NGrid=           0
         NMat0=    1 NMatS0=      1 NMatT0=    0 NMatD0=    1 NMtDS0=    0 NMtDT0=    0
 Petite list used in FoFCou.
 Harris En= -34.4844300383209    
 JPrj=0 DoOrth=F DoCkMO=F.
 Initial guess orbital symmetries:
       Occupied  (A') (A') (A') (A') (A') (A') (A") (A")
       Virtual   (A') (A') (A') (A') (A") (A') (A') (A") (A') (A')
                 (A') (A') (A') (A') (A') (A')
 The electronic state of the initial guess is 1-A'.
 Leave Link  401 at Sun Dec 10 06:30:42 2023, MaxMem=   536870912 cpu:               0.4 elap:               0.1
 (Enter /usr/site/hpc/x86_64/glibc-2.17/broadwell/gaussian/g16_a.03/pgi-16.5/g16/l502.exe)
 Keep R1 ints in memory in symmetry-blocked form, NReq=852772.
 FoFCou: FMM=F IPFlag=           0 FMFlag=           0 FMFlg1=           0
         NFxFlg=           0 DoJE=F BraDBF=F KetDBF=F FulRan=T
         wScrn=  0.000000 ICntrl=       600 IOpCl=  0 I1Cent=           0 NGrid=           0
         NMat0=    1 NMatS0=    300 NMatT0=    0 NMatD0=    1 NMtDS0=    0 NMtDT0=    0
 Petite list used in FoFCou.
 Closed shell SCF:
 Using DIIS extrapolation, IDIIS=  1040.
 NGot=   536870912 LenX=   536840576 LenY=   536839559
 Requested convergence on RMS density matrix=1.00D-08 within 128 cycles.
 Requested convergence on MAX density matrix=1.00D-06.
 Requested convergence on             energy=1.00D-06.
 No special actions if energy rises.

 Cycle   1  Pass 1  IDiag  1:
 E= -33.5702723265594    
 DIIS: error= 5.46D-02 at cycle   1 NSaved=   1.
 NSaved= 1 IEnMin= 1 EnMin= -33.5702723265594     IErMin= 1 ErrMin= 5.46D-02
 ErrMax= 5.46D-02  0.00D+00 EMaxC= 1.00D-01 BMatC= 9.30D-02 BMatP= 9.30D-02
 IDIUse=3 WtCom= 4.54D-01 WtEn= 5.46D-01
 Coeff-Com:  0.100D+01
 Coeff-En:   0.100D+01
 Coeff:      0.100D+01
 Gap=     0.546 Goal=   None    Shift=    0.000
 GapD=    0.546 DampG=2.000 DampE=0.500 DampFc=1.0000 IDamp=-1.
 RMSDP=1.62D-02 MaxDP=1.28D-01              OVMax= 9.52D-02

 Cycle   2  Pass 1  IDiag  1:
 E= -33.6303822323905     Delta-E=       -0.060109905831 Rises=F Damp=F
 DIIS: error= 3.30D-02 at cycle   2 NSaved=   2.
 NSaved= 2 IEnMin= 2 EnMin= -33.6303822323905     IErMin= 2 ErrMin= 3.30D-02
 ErrMax= 3.30D-02  0.00D+00 EMaxC= 1.00D-01 BMatC= 3.11D-02 BMatP= 9.30D-02
 IDIUse=3 WtCom= 6.70D-01 WtEn= 3.30D-01
 Coeff-Com:  0.363D+00 0.637D+00
 Coeff-En:   0.454D-01 0.955D+00
 Coeff:      0.258D+00 0.742D+00
 Gap=     0.630 Goal=   None    Shift=    0.000
 RMSDP=6.17D-03 MaxDP=5.64D-02 DE=-6.01D-02 OVMax= 3.67D-02

 Cycle   3  Pass 1  IDiag  1:
 E= -33.6551139467258     Delta-E=       -0.024731714335 Rises=F Damp=F
 DIIS: error= 5.62D-03 at cycle   3 NSaved=   3.
 NSaved= 3 IEnMin= 3 EnMin= -33.6551139467258     IErMin= 3 ErrMin= 5.62D-03
 ErrMax= 5.62D-03  0.00D+00 EMaxC= 1.00D-01 BMatC= 8.79D-04 BMatP= 3.11D-02
 IDIUse=3 WtCom= 9.44D-01 WtEn= 5.62D-02
 Coeff-Com: -0.105D+00-0.196D-03 0.111D+01
 Coeff-En:   0.000D+00 0.000D+00 0.100D+01
 Coeff:     -0.995D-01-0.185D-03 0.110D+01
 Gap=     0.621 Goal=   None    Shift=    0.000
 RMSDP=1.30D-03 MaxDP=9.97D-03 DE=-2.47D-02 OVMax= 8.07D-03

 Cycle   4  Pass 1  IDiag  1:
 E= -33.6559701437260     Delta-E=       -0.000856197000 Rises=F Damp=F
 DIIS: error= 5.17D-04 at cycle   4 NSaved=   4.
 NSaved= 4 IEnMin= 4 EnMin= -33.6559701437260     IErMin= 4 ErrMin= 5.17D-04
 ErrMax= 5.17D-04  0.00D+00 EMaxC= 1.00D-01 BMatC= 5.77D-06 BMatP= 8.79D-04
 IDIUse=3 WtCom= 9.95D-01 WtEn= 5.17D-03
 Coeff-Com:  0.140D-02-0.206D-01-0.106D+00 0.112D+01
 Coeff-En:   0.000D+00 0.000D+00 0.000D+00 0.100D+01
 Coeff:      0.140D-02-0.205D-01-0.105D+00 0.112D+01
 Gap=     0.623 Goal=   None    Shift=    0.000
 RMSDP=2.18D-04 MaxDP=1.66D-03 DE=-8.56D-04 OVMax= 1.03D-03

 Cycle   5  Pass 1  IDiag  1:
 E= -33.6559810914830     Delta-E=       -0.000010947757 Rises=F Damp=F
 DIIS: error= 1.46D-04 at cycle   5 NSaved=   5.
 NSaved= 5 IEnMin= 5 EnMin= -33.6559810914830     IErMin= 5 ErrMin= 1.46D-04
 ErrMax= 1.46D-04  0.00D+00 EMaxC= 1.00D-01 BMatC= 9.94D-07 BMatP= 5.77D-06
 IDIUse=3 WtCom= 9.99D-01 WtEn= 1.46D-03
 Coeff-Com:  0.140D-01-0.516D-02-0.168D+00 0.310D+00 0.849D+00
 Coeff-En:   0.000D+00 0.000D+00 0.000D+00 0.000D+00 0.100D+01
 Coeff:      0.140D-01-0.515D-02-0.168D+00 0.310D+00 0.849D+00
 Gap=     0.623 Goal=   None    Shift=    0.000
 RMSDP=6.53D-05 MaxDP=5.04D-04 DE=-1.09D-05 OVMax= 3.69D-04

 Cycle   6  Pass 1  IDiag  1:
 E= -33.6559823843623     Delta-E=       -0.000001292879 Rises=F Damp=F
 DIIS: error= 3.49D-05 at cycle   6 NSaved=   6.
 NSaved= 6 IEnMin= 6 EnMin= -33.6559823843623     IErMin= 6 ErrMin= 3.49D-05
 ErrMax= 3.49D-05  0.00D+00 EMaxC= 1.00D-01 BMatC= 1.99D-08 BMatP= 9.94D-07
 IDIUse=1 WtCom= 1.00D+00 WtEn= 0.00D+00
 Coeff-Com: -0.349D-02 0.172D-02 0.445D-01-0.127D+00-0.176D+00 0.126D+01
 Coeff:     -0.349D-02 0.172D-02 0.445D-01-0.127D+00-0.176D+00 0.126D+01
 Gap=     0.623 Goal=   None    Shift=    0.000
 RMSDP=1.48D-05 MaxDP=1.26D-04 DE=-1.29D-06 OVMax= 7.97D-05

 Cycle   7  Pass 1  IDiag  1:
 E= -33.6559824301251     Delta-E=       -0.000000045763 Rises=F Damp=F
 DIIS: error= 4.75D-06 at cycle   7 NSaved=   7.
 NSaved= 7 IEnMin= 7 EnMin= -33.6559824301251     IErMin= 7 ErrMin= 4.75D-06
 ErrMax= 4.75D-06  0.00D+00 EMaxC= 1.00D-01 BMatC= 5.36D-10 BMatP= 1.99D-08
 IDIUse=1 WtCom= 1.00D+00 WtEn= 0.00D+00
 Coeff-Com:  0.939D-03-0.460D-03-0.121D-01 0.391D-01 0.421D-01-0.450D+00
 Coeff-Com:  0.138D+01
 Coeff:      0.939D-03-0.460D-03-0.121D-01 0.391D-01 0.421D-01-0.450D+00
 Coeff:      0.138D+01
 Gap=     0.623 Goal=   None    Shift=    0.000
 RMSDP=2.40D-06 MaxDP=1.31D-05 DE=-4.58D-08 OVMax= 1.99D-05

 Cycle   8  Pass 1  IDiag  1:
 E= -33.6559824315665     Delta-E=       -0.000000001441 Rises=F Damp=F
 DIIS: error= 7.73D-07 at cycle   8 NSaved=   8.
 NSaved= 8 IEnMin= 8 EnMin= -33.6559824315665     IErMin= 8 ErrMin= 7.73D-07
 ErrMax= 7.73D-07  0.00D+00 EMaxC= 1.00D-01 BMatC= 1.80D-11 BMatP= 5.36D-10
 IDIUse=1 WtCom= 1.00D+00 WtEn= 0.00D+00
 Coeff-Com: -0.635D-04 0.165D-04 0.792D-03-0.322D-02-0.681D-03 0.429D-01
 Coeff-Com: -0.281D+00 0.124D+01
 Coeff:     -0.635D-04 0.165D-04 0.792D-03-0.322D-02-0.681D-03 0.429D-01
 Coeff:     -0.281D+00 0.124D+01
 Gap=     0.623 Goal=   None    Shift=    0.000
 RMSDP=4.06D-07 MaxDP=2.46D-06 DE=-1.44D-09 OVMax= 3.51D-06

 Cycle   9  Pass 1  IDiag  1:
 E= -33.6559824316126     Delta-E=       -0.000000000046 Rises=F Damp=F
 DIIS: error= 1.58D-07 at cycle   9 NSaved=   9.
 NSaved= 9 IEnMin= 9 EnMin= -33.6559824316126     IErMin= 9 ErrMin= 1.58D-07
 ErrMax= 1.58D-07  0.00D+00 EMaxC= 1.00D-01 BMatC= 7.56D-13 BMatP= 1.80D-11
 IDIUse=1 WtCom= 1.00D+00 WtEn= 0.00D+00
 Coeff-Com:  0.140D-04-0.608D-06-0.157D-03 0.618D-03-0.249D-03-0.752D-02
 Coeff-Com:  0.685D-01-0.458D+00 0.140D+01
 Coeff:      0.140D-04-0.608D-06-0.157D-03 0.618D-03-0.249D-03-0.752D-02
 Coeff:      0.685D-01-0.458D+00 0.140D+01
 Gap=     0.623 Goal=   None    Shift=    0.000
 RMSDP=1.16D-07 MaxDP=5.29D-07 DE=-4.61D-11 OVMax= 9.12D-07

 Cycle  10  Pass 1  IDiag  1:
 E= -33.6559824316149     Delta-E=       -0.000000000002 Rises=F Damp=F
 DIIS: error= 1.89D-08 at cycle  10 NSaved=  10.
 NSaved=10 IEnMin=10 EnMin= -33.6559824316149     IErMin=10 ErrMin= 1.89D-08
 ErrMax= 1.89D-08  0.00D+00 EMaxC= 1.00D-01 BMatC= 1.43D-14 BMatP= 7.56D-13
 IDIUse=1 WtCom= 1.00D+00 WtEn= 0.00D+00
 Coeff-Com: -0.434D-06-0.117D-05 0.257D-06-0.134D-04 0.163D-03 0.133D-03
 Coeff-Com: -0.827D-02 0.811D-01-0.364D+00 0.129D+01
 Coeff:     -0.434D-06-0.117D-05 0.257D-06-0.134D-04 0.163D-03 0.133D-03
 Coeff:     -0.827D-02 0.811D-01-0.364D+00 0.129D+01
 Gap=     0.623 Goal=   None    Shift=    0.000
 RMSDP=1.90D-08 MaxDP=9.48D-08 DE=-2.28D-12 OVMax= 1.35D-07

 Cycle  11  Pass 1  IDiag  1:
 E= -33.6559824316149     Delta-E=        0.000000000000 Rises=F Damp=F
 DIIS: error= 2.82D-09 at cycle  11 NSaved=  11.
 NSaved=11 IEnMin=10 EnMin= -33.6559824316149     IErMin=11 ErrMin= 2.82D-09
 ErrMax= 2.82D-09  0.00D+00 EMaxC= 1.00D-01 BMatC= 2.27D-16 BMatP= 1.43D-14
 IDIUse=1 WtCom= 1.00D+00 WtEn= 0.00D+00
 Coeff-Com: -0.116D-06 0.330D-06 0.256D-05-0.622D-05-0.451D-04 0.872D-04
 Coeff-Com:  0.124D-02-0.161D-01 0.818D-01-0.379D+00 0.131D+01
 Coeff:     -0.116D-06 0.330D-06 0.256D-05-0.622D-05-0.451D-04 0.872D-04
 Coeff:      0.124D-02-0.161D-01 0.818D-01-0.379D+00 0.131D+01
 Gap=     0.623 Goal=   None    Shift=    0.000
 RMSDP=2.53D-09 MaxDP=1.66D-08 DE= 0.00D+00 OVMax= 1.95D-08

 SCF Done:  E(RHF) =  -33.6559824316     A.U. after   11 cycles
            NFock= 11  Conv=0.25D-08     -V/T= 2.2494
 KE= 2.693825524115D+01 PE=-1.357585287121D+02 EE= 4.815992413285D+01
 Leave Link  502 at Sun Dec 10 06:30:42 2023, MaxMem=   536870912 cpu:               0.3 elap:               0.1
 (Enter /usr/site/hpc/x86_64/glibc-2.17/broadwell/gaussian/g16_a.03/pgi-16.5/g16/l801.exe)
 Windowed orbitals will be sorted by symmetry type.
 Range of M.O.s used for correlation:     1    24
 NBasis=    24 NAE=     8 NBE=     8 NFC=     0 NFV=     0
 NROrb=     24 NOA=     8 NOB=     8 NVA=    16 NVB=    16
 Leave Link  801 at Sun Dec 10 06:30:42 2023, MaxMem=   536870912 cpu:               0.1 elap:               0.0
 (Enter /usr/site/hpc/x86_64/glibc-2.17/broadwell/gaussian/g16_a.03/pgi-16.5/g16/l804.exe)
 Closed-shell transformation, MDV=   536870912 ITran=4 ISComp=2.
 Unit  1 TFree=       1025975 TCopy=        210600.
 Semi-Direct transformation.
 ModeAB=           2 MOrb=             8 LenV=     536741553
 LASXX=        22470 LTotXX=       22470 LenRXX=       22470
 LTotAB=       26208 MaxLAS=       57600 LenRXY=       57600
 NonZer=       62208 LenScr=      524288 LnRSAI=           0
 LnScr1=           0 LExtra=           0 Total=       604358
 MaxDsk=          -1 SrtSym=           F ITran=            4
 DoSDTr:  NPSUse=  4
 JobTyp=0 Pass  1:  I=   1 to   8.
 (rs|ai) integrals will be sorted in core.
 Complete sort for first half transformation.
 First half transformation complete.
 Complete sort for second half transformation.
 Second half transformation complete.
 Spin components of T(2) and E(2):
     alpha-alpha T2 =       0.9136146886D-02 E2=     -0.2641930205D-01
     alpha-beta  T2 =       0.5858753145D-01 E2=     -0.1754949772D+00
     beta-beta   T2 =       0.9136146886D-02 E2=     -0.2641930205D-01
 ANorm=    0.1037718567D+01
 E2 =    -0.2283335813D+00 EUMP2 =    -0.33884316012937D+02
 Leave Link  804 at Sun Dec 10 06:30:42 2023, MaxMem=   536870912 cpu:               0.2 elap:               0.1
 (Enter /usr/site/hpc/x86_64/glibc-2.17/broadwell/gaussian/g16_a.03/pgi-16.5/g16/l913.exe)
 CIDS:  MDV=   536870912.
 IFCWin=0 IBDFC=1 NFBD=     0     0 NFCmp=     0     0 NFFFC=     0     0
 Using DD3R+UMP44R for 1st iteration.
 Using DD4RQ for 2nd and later iterations.
 Keep R2 and R3 ints in memory in symmetry-blocked form, NReq=865380.
 FoFCou: FMM=F IPFlag=           0 FMFlag=           0 FMFlg1=           0
         NFxFlg=           0 DoJE=F BraDBF=F KetDBF=F FulRan=T
         wScrn=  0.000000 ICntrl=       600 IOpCl=  0 I1Cent=           0 NGrid=           0
         NMat0=    1 NMatS0=    300 NMatT0=    0 NMatD0=    1 NMtDS0=    0 NMtDT0=    0
 Petite list used in FoFCou.
 CIDS: In Core Option IDoMem=           1.
 CCSD(T)
 =======
 Iterations=  50 Convergence= 0.100D-06
 Produce multiple copies of IABC intergrals
 Iteration Nr.   1
 **********************
 DD1Dir will call FoFMem   1 times, MxPair=        72
 NAB=    36 NAA=     0 NBB=     0.
 MP4(R+Q)= -0.66731068D-03
 Maximum subspace dimension=  5
 A-vector RMS=  5.9342360D-03 Max=  1.3174691D-02 conv= 1.00D-05.
 RLE energy=       -0.2333736967
 E3=       -0.45372978D-02        EUMP3=      -0.33888853311D+02
 E4(DQ)=   -0.56167089D-02        UMP4(DQ)=   -0.33894470020D+02
 E4(SDQ)=  -0.78097167D-02        UMP4(SDQ)=  -0.33896663027D+02
 VARIATIONAL ENERGIES WITH THE FIRST-ORDER WAVEFUNCTION:
 DE(Corr)= -0.23326518     E(Corr)=     -33.889247613    
 NORM(A)=   0.10407536D+01
 Iteration Nr.   2
 **********************
 DD1Dir will call FoFMem   1 times, MxPair=        72
 NAB=    36 NAA=     0 NBB=     0.
 A-vector RMS=  9.4595308D-04 Max=  2.1392334D-03 conv= 1.00D-05.
 RLE energy=       -0.2409777947
 DE(Corr)= -0.23917540     E(CORR)=     -33.895157828     Delta=-5.91D-03
 NORM(A)=   0.10443720D+01
 Iteration Nr.   3
 **********************
 DD1Dir will call FoFMem   1 times, MxPair=        72
 NAB=    36 NAA=     0 NBB=     0.
 A-vector RMS=  3.9574827D-04 Max=  1.1206105D-03 conv= 1.00D-05.
 RLE energy=       -0.2415060907
 DE(Corr)= -0.24106561     E(CORR)=     -33.897048038     Delta=-1.89D-03
 NORM(A)=   0.10448994D+01
 Iteration Nr.   4
 **********************
 DD1Dir will call FoFMem   1 times, MxPair=        72
 NAB=    36 NAA=     0 NBB=     0.
 A-vector RMS=  8.7086472D-05 Max=  2.0227919D-04 conv= 1.00D-05.
 RLE energy=       -0.2415544291
 DE(Corr)= -0.24152124     E(CORR)=     -33.897503672     Delta=-4.56D-04
 NORM(A)=   0.10449624D+01
 Iteration Nr.   5
 **********************
 DD1Dir will call FoFMem   1 times, MxPair=        72
 NAB=    36 NAA=     0 NBB=     0.
 A-vector RMS=  4.5593556D-05 Max=  1.8957294D-04 conv= 1.00D-05.
 RLE energy=       -0.2415551179
 DE(Corr)= -0.24155153     E(CORR)=     -33.897533962     Delta=-3.03D-05
 NORM(A)=   0.10449705D+01
 Iteration Nr.   6
 **********************
 DD1Dir will call FoFMem   1 times, MxPair=        72
 NAB=    36 NAA=     0 NBB=     0.
 A-vector RMS=  1.5989693D-05 Max=  5.9055008D-05 conv= 1.00D-05.
 RLE energy=       -0.2415512359
 DE(Corr)= -0.24155442     E(CORR)=     -33.897536853     Delta=-2.89D-06
 NORM(A)=   0.10449720D+01
 Iteration Nr.   7
 **********************
 DD1Dir will call FoFMem   1 times, MxPair=        72
 NAB=    36 NAA=     0 NBB=     0.
 A-vector RMS=  7.0139166D-06 Max=  2.4664032D-05 conv= 1.00D-05.
 RLE energy=       -0.2415529624
 DE(Corr)= -0.24155434     E(CORR)=     -33.897536773     Delta= 8.00D-08
 NORM(A)=   0.10449737D+01
 Iteration Nr.   8
 **********************
 DD1Dir will call FoFMem   1 times, MxPair=        72
 NAB=    36 NAA=     0 NBB=     0.
 A-vector RMS=  2.6152335D-06 Max=  1.0939731D-05 conv= 1.00D-05.
 RLE energy=       -0.2415536573
 DE(Corr)= -0.24155381     E(CORR)=     -33.897536247     Delta= 5.27D-07
 NORM(A)=   0.10449746D+01
 Iteration Nr.   9
 **********************
 DD1Dir will call FoFMem   1 times, MxPair=        72
 NAB=    36 NAA=     0 NBB=     0.
 A-vector RMS=  5.9102767D-07 Max=  1.5870600D-06 conv= 1.00D-05.
 RLE energy=       -0.2415539598
 DE(Corr)= -0.24155399     E(CORR)=     -33.897536424     Delta=-1.77D-07
 NORM(A)=   0.10449749D+01
 Iteration Nr.  10
 **********************
 DD1Dir will call FoFMem   1 times, MxPair=        72
 NAB=    36 NAA=     0 NBB=     0.
 A-vector RMS=  1.8373623D-07 Max=  6.9070834D-07 conv= 1.00D-05.
 RLE energy=       -0.2415541628
 DE(Corr)= -0.24155412     E(CORR)=     -33.897536555     Delta=-1.31D-07
 NORM(A)=   0.10449751D+01
 Iteration Nr.  11
 **********************
 DD1Dir will call FoFMem   1 times, MxPair=        72
 NAB=    36 NAA=     0 NBB=     0.
 A-vector RMS=  5.4423615D-08 Max=  1.8660188D-07 conv= 1.00D-05.
 RLE energy=       -0.2415542115
 DE(Corr)= -0.24155419     E(CORR)=     -33.897536626     Delta=-7.09D-08
 NORM(A)=   0.10449751D+01
 CI/CC converged in   11 iterations to DelEn=-7.09D-08 Conv= 1.00D-07 ErrA1= 5.44D-08 Conv= 1.00D-05
 Wavefunction amplitudes converged. E(Corr)=     -33.897536626    
 Largest amplitude= 4.76D-02
 IPart=  3 IA=    2   12.50% done.
 IPart=  2 IA=    3   24.17% done.
 IPart=  4 IA=    4   35.00% done.
 IPart=  4 IA=    5   45.00% done.
 IPart=  2 IA=    6   54.17% done.
 IPart=  1 IA=    7   62.50% done.
 IPart=  3 IA=    8   70.00% done.
 IPart=  2 IA=   10   82.50% done.
 IPart=  4 IA=   12   91.67% done.
 Time for triples=        0.26 seconds.
 T4(CCSD)= -0.34331570D-02
 T5(CCSD)=  0.54636617D-03
 CCSD(T)= -0.33900423416D+02
 Discarding MO integrals.
 Leave Link  913 at Sun Dec 10 06:30:43 2023, MaxMem=   536870912 cpu:               1.0 elap:               0.3
 (Enter /usr/site/hpc/x86_64/glibc-2.17/broadwell/gaussian/g16_a.03/pgi-16.5/g16/l601.exe)
 Copying SCF densities to generalized density rwf, IOpCl= 0 IROHF=0.

 **********************************************************************

            Population analysis using the SCF density.

 **********************************************************************

 Orbital symmetries:
       Occupied  (A') (A') (A') (A') (A') (A") (A') (A")
       Virtual   (A') (A') (A') (A') (A") (A') (A') (A") (A') (A')
                 (A') (A') (A') (A') (A') (A')
 The electronic state is 1-A'.
 Alpha  occ. eigenvalues --   -1.40401  -1.30313  -0.76694  -0.68931  -0.59461
 Alpha  occ. eigenvalues --   -0.54908  -0.49409  -0.44904
 Alpha virt. eigenvalues --    0.17414   0.26760   0.27901   0.51266   0.74267
 Alpha virt. eigenvalues --    0.76486   0.86835   0.88215   0.92917   1.06643
 Alpha virt. eigenvalues --    1.15414   1.22188   1.27278   1.38020   2.64544
 Alpha virt. eigenvalues --    3.93859
          Condensed to atoms (all electrons):
               1          2          3          4          5          6
     1  O    6.226750   0.322342   0.269444  -0.050115   0.001203   0.000426
     2  H    0.322342   0.381962  -0.032672  -0.073756   0.003790   0.004085
     3  H    0.269444  -0.032672   0.407086   0.004522  -0.000050  -0.000073
     4  O   -0.050115  -0.073756   0.004522   6.418583   0.257724   0.276395
     5  H    0.001203   0.003790  -0.000050   0.257724   0.347656  -0.018955
     6  H    0.000426   0.004085  -0.000073   0.276395  -0.018955   0.289338
 Mulliken charges:
               1
     1  O   -0.770050
     2  H    0.394248
     3  H    0.351742
     4  O   -0.833353
     5  H    0.408630
     6  H    0.448784
 Sum of Mulliken charges =  -0.00000
 Mulliken charges with hydrogens summed into heavy atoms:
               1
     1  O   -0.024060
     4  O    0.024060
 Electronic spatial extent (au):  <R**2>=            133.7250
 Charge=             -0.0000 electrons
 Dipole moment (field-independent basis, Debye):
    X=             -0.7528    Y=              4.5910    Z=              0.0000  Tot=              4.6524
 Quadrupole moment (field-independent basis, Debye-Ang):
   XX=             -9.7077   YY=             -9.3810   ZZ=            -15.0105
   XY=              4.5631   XZ=              0.0000   YZ=              0.0000
 Traceless Quadrupole moment (field-independent basis, Debye-Ang):
   XX=              1.6587   YY=              1.9854   ZZ=             -3.6441
   XY=              4.5631   XZ=              0.0000   YZ=              0.0000
 Octapole moment (field-independent basis, Debye-Ang**2):
  XXX=              0.2289  YYY=             23.1913  ZZZ=              0.0000  XYY=             -7.1959
  XXY=              1.8396  XXZ=              0.0000  XZZ=             -0.1459  YZZ=              1.0430
  YYZ=              0.0000  XYZ=              0.0000
 Hexadecapole moment (field-independent basis, Debye-Ang**3):
 XXXX=            -11.2410 YYYY=           -112.3432 ZZZZ=            -12.2897 XXXY=              2.5874
 XXXZ=              0.0000 YYYX=              4.5768 YYYZ=              0.0000 ZZZX=              0.0000
 ZZZY=              0.0000 XXYY=            -18.7476 XXZZ=             -4.5337 YYZZ=            -29.2796
 XXYZ=              0.0000 YYXZ=              0.0000 ZZXY=             -0.6270
 N-N= 2.700436690651D+01 E-N=-1.357585287117D+02  KE= 2.693825524115D+01
 Symmetry A'   KE= 1.811476974891D+01
 Symmetry A"   KE= 8.823485492244D+00
 Leave Link  601 at Sun Dec 10 06:30:43 2023, MaxMem=   536870912 cpu:               0.1 elap:               0.0
 (Enter /usr/site/hpc/x86_64/glibc-2.17/broadwell/gaussian/g16_a.03/pgi-16.5/g16/l9999.exe)
 1\1\GINC-N044\SP\RCCSD(T)-FC\CEP-31G\H4O2\ROOT\10-Dec-2023\0\\#p CCSD(
 T)/CEP-31G\\H2O_H2O_648\\0,1\O,0,0.,-0.009833,0.\H,0,-0.799571,-0.5809
 65,0.\H,0,0.799571,-0.580965,0.\O,0,-2.07632,-1.476745,0.\H,0,-2.69852
 3,-0.716239,0.\H,0,-2.593934,-2.311958,0.\\Version=ES64L-G16RevA.03\St
 ate=1-A'\HF=-33.6559824\MP2=-33.884316\MP3=-33.8888533\MP4D=-33.893802
 7\MP4DQ=-33.89447\MP4SDQ=-33.896663\CCSD=-33.8975366\CCSD(T)=-33.90042
 34\RMSD=2.529e-09\PG=CS [SG(H4O2)]\\@


 EVERYTHING'S GOT A MORAL, IF ONLY YOU CAN FIND IT.

                                    -- LEWIS CARROL, ALICE IN WONDERLAND
 Job cpu time:       0 days  0 hours  0 minutes  3.4 seconds.
 Elapsed time:       0 days  0 hours  0 minutes  1.0 seconds.
 File lengths (MBytes):  RWF=     72 Int=      0 D2E=      0 Chk=      8 Scr=      8
 Normal termination of Gaussian 16 at Sun Dec 10 06:30:43 2023.
