 Entering Gaussian System, Link 0=g16
 Input=H2O_H2O_3874.com
 Output=H2O_H2O_3874.log
 Initial command:
 /usr/site/hpc/x86_64/glibc-2.17/broadwell/gaussian/g16_a.03/pgi-16.5/g16/l1.exe "/gpfs/gpfs1/scratch/c7441090/OH Coord/Gau-1245211.inp" -scrdir="/gpfs/gpfs1/scratch/c7441090/OH Coord/"
 Entering Link 1 = /usr/site/hpc/x86_64/glibc-2.17/broadwell/gaussian/g16_a.03/pgi-16.5/g16/l1.exe PID=   1245212.
  
 Copyright (c) 1988,1990,1992,1993,1995,1998,2003,2009,2016,
            Gaussian, Inc.  All Rights Reserved.
  
 This is part of the Gaussian(R) 16 program.  It is based on
 the Gaussian(R) 09 system (copyright 2009, Gaussian, Inc.),
 the Gaussian(R) 03 system (copyright 2003, Gaussian, Inc.),
 the Gaussian(R) 98 system (copyright 1998, Gaussian, Inc.),
 the Gaussian(R) 94 system (copyright 1995, Gaussian, Inc.),
 the Gaussian 92(TM) system (copyright 1992, Gaussian, Inc.),
 the Gaussian 90(TM) system (copyright 1990, Gaussian, Inc.),
 the Gaussian 88(TM) system (copyright 1988, Gaussian, Inc.),
 the Gaussian 86(TM) system (copyright 1986, Carnegie Mellon
 University), and the Gaussian 82(TM) system (copyright 1983,
 Carnegie Mellon University). Gaussian is a federally registered
 trademark of Gaussian, Inc.
  
 This software contains proprietary and confidential information,
 including trade secrets, belonging to Gaussian, Inc.
  
 This software is provided under written license and may be
 used, copied, transmitted, or stored only in accord with that
 written license.
  
 The following legend is applicable only to US Government
 contracts under FAR:
  
                    RESTRICTED RIGHTS LEGEND
  
 Use, reproduction and disclosure by the US Government is
 subject to restrictions as set forth in subparagraphs (a)
 and (c) of the Commercial Computer Software - Restricted
 Rights clause in FAR 52.227-19.
  
 Gaussian, Inc.
 340 Quinnipiac St., Bldg. 40, Wallingford CT 06492
  
  
 ---------------------------------------------------------------
 Warning -- This program may not be used in any manner that
 competes with the business of Gaussian, Inc. or will provide
 assistance to any competitor of Gaussian, Inc.  The licensee
 of this program is prohibited from giving any competitor of
 Gaussian, Inc. access to this program.  By using this program,
 the user acknowledges that Gaussian, Inc. is engaged in the
 business of creating and licensing software in the field of
 computational chemistry and represents and warrants to the
 licensee that it is not a competitor of Gaussian, Inc. and that
 it will not use this program in any manner prohibited above.
 ---------------------------------------------------------------
  

 Cite this work as:
 Gaussian 16, Revision A.03,
 M. J. Frisch, G. W. Trucks, H. B. Schlegel, G. E. Scuseria, 
 M. A. Robb, J. R. Cheeseman, G. Scalmani, V. Barone, 
 G. A. Petersson, H. Nakatsuji, X. Li, M. Caricato, A. V. Marenich, 
 J. Bloino, B. G. Janesko, R. Gomperts, B. Mennucci, H. P. Hratchian, 
 J. V. Ortiz, A. F. Izmaylov, J. L. Sonnenberg, D. Williams-Young, 
 F. Ding, F. Lipparini, F. Egidi, J. Goings, B. Peng, A. Petrone, 
 T. Henderson, D. Ranasinghe, V. G. Zakrzewski, J. Gao, N. Rega, 
 G. Zheng, W. Liang, M. Hada, M. Ehara, K. Toyota, R. Fukuda, 
 J. Hasegawa, M. Ishida, T. Nakajima, Y. Honda, O. Kitao, H. Nakai, 
 T. Vreven, K. Throssell, J. A. Montgomery, Jr., J. E. Peralta, 
 F. Ogliaro, M. J. Bearpark, J. J. Heyd, E. N. Brothers, K. N. Kudin, 
 V. N. Staroverov, T. A. Keith, R. Kobayashi, J. Normand, 
 K. Raghavachari, A. P. Rendell, J. C. Burant, S. S. Iyengar, 
 J. Tomasi, M. Cossi, J. M. Millam, M. Klene, C. Adamo, R. Cammi, 
 J. W. Ochterski, R. L. Martin, K. Morokuma, O. Farkas, 
 J. B. Foresman, and D. J. Fox, Gaussian, Inc., Wallingford CT, 2016.
 
 ******************************************
 Gaussian 16:  ES64L-G16RevA.03 25-Dec-2016
                10-Dec-2023 
 ******************************************
 %NProcShared=4
 Will use up to    4 processors via shared memory.
 %Mem=4GB
 %Chk=H2O_H2O_3874.chk
 ------------------
 #p CCSD(T)/CEP-31G
 ------------------
 1/38=1,172=1/1;
 2/12=2,17=6,18=5,40=1/2;
 3/5=9,6=1,11=9,25=1,30=1/1,2,3;
 4//1;
 5/5=2,38=5/2;
 8/6=4,9=120000,10=1/1,4;
 9/5=7,14=2/13;
 6/7=2,8=2,9=2,10=2/1;
 99/5=1,9=1/99;
 Leave Link    1 at Sun Dec 10 06:42:42 2023, MaxMem=   536870912 cpu:               0.2 elap:               0.1
 (Enter /usr/site/hpc/x86_64/glibc-2.17/broadwell/gaussian/g16_a.03/pgi-16.5/g16/l101.exe)
 ------------
 H2O_H2O_3874
 ------------
 Symbolic Z-matrix:
 Charge =  0 Multiplicity = 1
 O                     0.       -0.00983   0. 
 H                    -0.79957  -0.58097   0. 
 H                     0.79957  -0.58097   0. 
 O                    -4.16987  -2.9715    0. 
 H                    -4.741    -2.17193   0. 
 H                    -4.741    -3.77108   0. 
 
 ITRead=  0  0  0  0  0  0
 MicOpt= -1 -1 -1 -1 -1 -1
 NAtoms=      6 NQM=        6 NQMF=       0 NMMI=      0 NMMIF=      0
                NMic=       0 NMicF=      0.
                    Isotopes and Nuclear Properties:
 (Nuclear quadrupole moments (NQMom) in fm**2, nuclear magnetic moments (NMagM)
  in nuclear magnetons)

  Atom         1           2           3           4           5           6
 IAtWgt=          16           1           1          16           1           1
 AtmWgt=  15.9949146   1.0078250   1.0078250  15.9949146   1.0078250   1.0078250
 NucSpn=           0           1           1           0           1           1
 AtZEff=  -0.0000000  -0.0000000  -0.0000000  -0.0000000  -0.0000000  -0.0000000
 NQMom=    0.0000000   0.0000000   0.0000000   0.0000000   0.0000000   0.0000000
 NMagM=    0.0000000   2.7928460   2.7928460   0.0000000   2.7928460   2.7928460
 AtZNuc=   8.0000000   1.0000000   1.0000000   8.0000000   1.0000000   1.0000000
 Leave Link  101 at Sun Dec 10 06:42:42 2023, MaxMem=   536870912 cpu:               0.3 elap:               0.1
 (Enter /usr/site/hpc/x86_64/glibc-2.17/broadwell/gaussian/g16_a.03/pgi-16.5/g16/l202.exe)
                          Input orientation:                          
 ---------------------------------------------------------------------
 Center     Atomic      Atomic             Coordinates (Angstroms)
 Number     Number       Type             X           Y           Z
 ---------------------------------------------------------------------
      1          8           0        0.000000   -0.009833    0.000000
      2          1           0       -0.799571   -0.580965    0.000000
      3          1           0        0.799571   -0.580965    0.000000
      4          8           0       -4.169868   -2.971504    0.000000
      5          1           0       -4.741000   -2.171932    0.000000
      6          1           0       -4.741000   -3.771075    0.000000
 ---------------------------------------------------------------------
                    Distance matrix (angstroms):
                    1          2          3          4          5
     1  O    0.000000
     2  H    0.982601   0.000000
     3  H    0.982601   1.599142   0.000000
     4  O    5.114616   4.132019   5.514526   0.000000
     5  H    5.210734   4.250416   5.764469   0.982602   0.000000
     6  H    6.051778   5.070667   6.393335   0.982601   1.599143
                    6
     6  H    0.000000
 Stoichiometry    H4O2
 Framework group  CS[SG(H4O2)]
 Deg. of freedom     9
 Full point group                 CS      NOp   2
 Largest Abelian subgroup         CS      NOp   2
 Largest concise Abelian subgroup C1      NOp   1
                         Standard orientation:                         
 ---------------------------------------------------------------------
 Center     Atomic      Atomic             Coordinates (Angstroms)
 Number     Number       Type             X           Y           Z
 ---------------------------------------------------------------------
      1          8           0       -0.013491    2.636943    0.000000
      2          1           0       -0.010856    1.654345    0.000000
      3          1           0        0.915144    2.958101    0.000000
      4          8           0       -0.013491   -2.477672    0.000000
      5          1           0       -0.996090   -2.480307    0.000000
      6          1           0        0.307667   -3.406307    0.000000
 ---------------------------------------------------------------------
 Rotational constants (GHZ):         269.8895434           2.1153635           2.0989124
 Leave Link  202 at Sun Dec 10 06:42:42 2023, MaxMem=   536870912 cpu:               0.0 elap:               0.0
 (Enter /usr/site/hpc/x86_64/glibc-2.17/broadwell/gaussian/g16_a.03/pgi-16.5/g16/l301.exe)
 Standard basis: CEP-31G (6D, 10F)
 Ernie: Thresh=  0.10000D-02 Tol=  0.10000D-05 Strict=F.
 There are    20 symmetry adapted cartesian basis functions of A'  symmetry.
 There are     4 symmetry adapted cartesian basis functions of A"  symmetry.
 There are    20 symmetry adapted basis functions of A'  symmetry.
 There are     4 symmetry adapted basis functions of A"  symmetry.
    24 basis functions,    48 primitive gaussians,    24 cartesian basis functions
     8 alpha electrons        8 beta electrons
       nuclear repulsion energy        20.1932295688 Hartrees.
 IExCor=    0 DFT=F Ex=HF Corr=None ExCW=0 ScaHFX=  1.000000
 ScaDFX=  1.000000  1.000000  1.000000  1.000000 ScalE2=  1.000000  1.000000
 IRadAn=      5 IRanWt=     -1 IRanGd=            0 ICorTp=0 IEmpDi=  4
 NAtoms=    6 NActive=    6 NUniq=    6 SFac= 1.00D+00 NAtFMM=   60 NAOKFM=F Big=F
 Integral buffers will be    131072 words long.
 Raffenetti 1 integral format.
 Two-electron integral symmetry is turned on.
 Leave Link  301 at Sun Dec 10 06:42:42 2023, MaxMem=   536870912 cpu:               0.2 elap:               0.1
 (Enter /usr/site/hpc/x86_64/glibc-2.17/broadwell/gaussian/g16_a.03/pgi-16.5/g16/l302.exe)
 NPDir=0 NMtPBC=     1 NCelOv=     1 NCel=       1 NClECP=     1 NCelD=      1
         NCelK=      1 NCelE2=     1 NClLst=     1 CellRange=     0.0.
 One-electron integrals computed using PRISM.
 One-electron integral symmetry used in STVInt
   2 Symmetry operations used in ECPInt.
 ECPInt:  NShTT=      78 NPrTT=     318 LenC2=      79 LenP2D=     259.
 LDataN:  DoStor=T MaxTD1= 2 Len=   12
 NBasis=    24 RedAO= T EigKep=  3.82D-02  NBF=    20     4
 NBsUse=    24 1.00D-06 EigRej= -1.00D+00 NBFU=    20     4
 Leave Link  302 at Sun Dec 10 06:42:42 2023, MaxMem=   536870912 cpu:               0.3 elap:               0.1
 (Enter /usr/site/hpc/x86_64/glibc-2.17/broadwell/gaussian/g16_a.03/pgi-16.5/g16/l303.exe)
 DipDrv:  MaxL=1.
 Leave Link  303 at Sun Dec 10 06:42:42 2023, MaxMem=   536870912 cpu:               0.1 elap:               0.0
 (Enter /usr/site/hpc/x86_64/glibc-2.17/broadwell/gaussian/g16_a.03/pgi-16.5/g16/l401.exe)
 ExpMin= 1.78D-01 ExpMax= 1.92D+01 ExpMxC= 1.92D+01 IAcc=3 IRadAn=         5 AccDes= 0.00D+00
 Harris functional with IExCor=  205 and IRadAn=       5 diagonalized for initial guess.
 HarFok:  IExCor=  205 AccDes= 0.00D+00 IRadAn=         5 IDoV= 1 UseB2=F ITyADJ=14
 ICtDFT=  3500011 ScaDFX=  1.000000  1.000000  1.000000  1.000000
 FoFCou: FMM=F IPFlag=           0 FMFlag=      100000 FMFlg1=           0
         NFxFlg=           0 DoJE=T BraDBF=F KetDBF=T FulRan=T
         wScrn=  0.000000 ICntrl=       500 IOpCl=  0 I1Cent=   200000004 NGrid=           0
         NMat0=    1 NMatS0=      1 NMatT0=    0 NMatD0=    1 NMtDS0=    0 NMtDT0=    0
 Petite list used in FoFCou.
 Harris En= -34.4763577048624    
 JPrj=0 DoOrth=F DoCkMO=F.
 Initial guess orbital symmetries:
       Occupied  (A') (A') (A') (A') (A') (A') (A") (A")
       Virtual   (A') (A') (A') (A') (A") (A") (A') (A') (A') (A')
                 (A') (A') (A') (A') (A') (A')
 The electronic state of the initial guess is 1-A'.
 Leave Link  401 at Sun Dec 10 06:42:43 2023, MaxMem=   536870912 cpu:               0.4 elap:               0.1
 (Enter /usr/site/hpc/x86_64/glibc-2.17/broadwell/gaussian/g16_a.03/pgi-16.5/g16/l502.exe)
 Keep R1 ints in memory in symmetry-blocked form, NReq=852064.
 FoFCou: FMM=F IPFlag=           0 FMFlag=           0 FMFlg1=           0
         NFxFlg=           0 DoJE=F BraDBF=F KetDBF=F FulRan=T
         wScrn=  0.000000 ICntrl=       600 IOpCl=  0 I1Cent=           0 NGrid=           0
         NMat0=    1 NMatS0=    300 NMatT0=    0 NMatD0=    1 NMtDS0=    0 NMtDT0=    0
 Petite list used in FoFCou.
 Closed shell SCF:
 Using DIIS extrapolation, IDIIS=  1040.
 NGot=   536870912 LenX=   536840576 LenY=   536839559
 Requested convergence on RMS density matrix=1.00D-08 within 128 cycles.
 Requested convergence on MAX density matrix=1.00D-06.
 Requested convergence on             energy=1.00D-06.
 No special actions if energy rises.

 Cycle   1  Pass 1  IDiag  1:
 E= -33.5608248356940    
 DIIS: error= 6.83D-02 at cycle   1 NSaved=   1.
 NSaved= 1 IEnMin= 1 EnMin= -33.5608248356940     IErMin= 1 ErrMin= 6.83D-02
 ErrMax= 6.83D-02  0.00D+00 EMaxC= 1.00D-01 BMatC= 1.01D-01 BMatP= 1.01D-01
 IDIUse=3 WtCom= 3.17D-01 WtEn= 6.83D-01
 Coeff-Com:  0.100D+01
 Coeff-En:   0.100D+01
 Coeff:      0.100D+01
 Gap=     0.602 Goal=   None    Shift=    0.000
 GapD=    0.602 DampG=2.000 DampE=0.500 DampFc=1.0000 IDamp=-1.
 RMSDP=1.47D-02 MaxDP=1.17D-01              OVMax= 9.79D-02

 Cycle   2  Pass 1  IDiag  1:
 E= -33.6228604034074     Delta-E=       -0.062035567713 Rises=F Damp=F
 DIIS: error= 3.70D-02 at cycle   2 NSaved=   2.
 NSaved= 2 IEnMin= 2 EnMin= -33.6228604034074     IErMin= 2 ErrMin= 3.70D-02
 ErrMax= 3.70D-02  0.00D+00 EMaxC= 1.00D-01 BMatC= 3.77D-02 BMatP= 1.01D-01
 IDIUse=3 WtCom= 6.30D-01 WtEn= 3.70D-01
 Coeff-Com:  0.376D+00 0.624D+00
 Coeff-En:   0.110D+00 0.890D+00
 Coeff:      0.278D+00 0.722D+00
 Gap=     0.692 Goal=   None    Shift=    0.000
 RMSDP=6.35D-03 MaxDP=5.38D-02 DE=-6.20D-02 OVMax= 3.55D-02

 Cycle   3  Pass 1  IDiag  1:
 E= -33.6530316552095     Delta-E=       -0.030171251802 Rises=F Damp=F
 DIIS: error= 7.04D-03 at cycle   3 NSaved=   3.
 NSaved= 3 IEnMin= 3 EnMin= -33.6530316552095     IErMin= 3 ErrMin= 7.04D-03
 ErrMax= 7.04D-03  0.00D+00 EMaxC= 1.00D-01 BMatC= 8.69D-04 BMatP= 3.77D-02
 IDIUse=3 WtCom= 9.30D-01 WtEn= 7.04D-02
 Coeff-Com: -0.114D+00-0.179D-01 0.113D+01
 Coeff-En:   0.000D+00 0.000D+00 0.100D+01
 Coeff:     -0.106D+00-0.166D-01 0.112D+01
 Gap=     0.684 Goal=   None    Shift=    0.000
 RMSDP=1.04D-03 MaxDP=8.63D-03 DE=-3.02D-02 OVMax= 7.90D-03

 Cycle   4  Pass 1  IDiag  1:
 E= -33.6538948049277     Delta-E=       -0.000863149718 Rises=F Damp=F
 DIIS: error= 7.31D-04 at cycle   4 NSaved=   4.
 NSaved= 4 IEnMin= 4 EnMin= -33.6538948049277     IErMin= 4 ErrMin= 7.31D-04
 ErrMax= 7.31D-04  0.00D+00 EMaxC= 1.00D-01 BMatC= 5.56D-06 BMatP= 8.69D-04
 IDIUse=3 WtCom= 9.93D-01 WtEn= 7.31D-03
 Coeff-Com:  0.439D-01-0.168D-01-0.533D+00 0.151D+01
 Coeff-En:   0.000D+00 0.000D+00 0.000D+00 0.100D+01
 Coeff:      0.436D-01-0.167D-01-0.529D+00 0.150D+01
 Gap=     0.686 Goal=   None    Shift=    0.000
 RMSDP=2.31D-04 MaxDP=1.98D-03 DE=-8.63D-04 OVMax= 9.38D-04

 Cycle   5  Pass 1  IDiag  1:
 E= -33.6539073116724     Delta-E=       -0.000012506745 Rises=F Damp=F
 DIIS: error= 4.76D-05 at cycle   5 NSaved=   5.
 NSaved= 5 IEnMin= 5 EnMin= -33.6539073116724     IErMin= 5 ErrMin= 4.76D-05
 ErrMax= 4.76D-05  0.00D+00 EMaxC= 1.00D-01 BMatC= 3.43D-08 BMatP= 5.56D-06
 IDIUse=1 WtCom= 1.00D+00 WtEn= 0.00D+00
 Coeff-Com: -0.701D-02 0.304D-02 0.864D-01-0.290D+00 0.121D+01
 Coeff:     -0.701D-02 0.304D-02 0.864D-01-0.290D+00 0.121D+01
 Gap=     0.686 Goal=   None    Shift=    0.000
 RMSDP=1.49D-05 MaxDP=1.43D-04 DE=-1.25D-05 OVMax= 9.64D-05

 Cycle   6  Pass 1  IDiag  1:
 E= -33.6539073955741     Delta-E=       -0.000000083902 Rises=F Damp=F
 DIIS: error= 1.03D-05 at cycle   6 NSaved=   6.
 NSaved= 6 IEnMin= 6 EnMin= -33.6539073955741     IErMin= 6 ErrMin= 1.03D-05
 ErrMax= 1.03D-05  0.00D+00 EMaxC= 1.00D-01 BMatC= 1.95D-09 BMatP= 3.43D-08
 IDIUse=1 WtCom= 1.00D+00 WtEn= 0.00D+00
 Coeff-Com:  0.106D-02-0.364D-03-0.128D-01 0.486D-01-0.369D+00 0.133D+01
 Coeff:      0.106D-02-0.364D-03-0.128D-01 0.486D-01-0.369D+00 0.133D+01
 Gap=     0.686 Goal=   None    Shift=    0.000
 RMSDP=3.66D-06 MaxDP=2.29D-05 DE=-8.39D-08 OVMax= 3.33D-05

 Cycle   7  Pass 1  IDiag  1:
 E= -33.6539074008166     Delta-E=       -0.000000005242 Rises=F Damp=F
 DIIS: error= 2.29D-06 at cycle   7 NSaved=   7.
 NSaved= 7 IEnMin= 7 EnMin= -33.6539074008166     IErMin= 7 ErrMin= 2.29D-06
 ErrMax= 2.29D-06  0.00D+00 EMaxC= 1.00D-01 BMatC= 1.60D-10 BMatP= 1.95D-09
 IDIUse=1 WtCom= 1.00D+00 WtEn= 0.00D+00
 Coeff-Com:  0.534D-03-0.235D-03-0.656D-02 0.221D-01-0.943D-01 0.869D-01
 Coeff-Com:  0.992D+00
 Coeff:      0.534D-03-0.235D-03-0.656D-02 0.221D-01-0.943D-01 0.869D-01
 Coeff:      0.992D+00
 Gap=     0.686 Goal=   None    Shift=    0.000
 RMSDP=8.81D-07 MaxDP=5.58D-06 DE=-5.24D-09 OVMax= 8.36D-06

 Cycle   8  Pass 1  IDiag  1:
 E= -33.6539074011215     Delta-E=       -0.000000000305 Rises=F Damp=F
 DIIS: error= 7.21D-07 at cycle   8 NSaved=   8.
 NSaved= 8 IEnMin= 8 EnMin= -33.6539074011215     IErMin= 8 ErrMin= 7.21D-07
 ErrMax= 7.21D-07  0.00D+00 EMaxC= 1.00D-01 BMatC= 2.43D-11 BMatP= 1.60D-10
 IDIUse=1 WtCom= 1.00D+00 WtEn= 0.00D+00
 Coeff-Com: -0.184D-05-0.214D-04-0.266D-04-0.835D-03 0.306D-01-0.177D+00
 Coeff-Com:  0.205D+00 0.943D+00
 Coeff:     -0.184D-05-0.214D-04-0.266D-04-0.835D-03 0.306D-01-0.177D+00
 Coeff:      0.205D+00 0.943D+00
 Gap=     0.686 Goal=   None    Shift=    0.000
 RMSDP=3.80D-07 MaxDP=1.85D-06 DE=-3.05D-10 OVMax= 3.12D-06

 Cycle   9  Pass 1  IDiag  1:
 E= -33.6539074011629     Delta-E=       -0.000000000041 Rises=F Damp=F
 DIIS: error= 1.47D-07 at cycle   9 NSaved=   9.
 NSaved= 9 IEnMin= 9 EnMin= -33.6539074011629     IErMin= 9 ErrMin= 1.47D-07
 ErrMax= 1.47D-07  0.00D+00 EMaxC= 1.00D-01 BMatC= 6.13D-13 BMatP= 2.43D-11
 IDIUse=1 WtCom= 1.00D+00 WtEn= 0.00D+00
 Coeff-Com:  0.424D-05 0.575D-05-0.267D-04 0.412D-03-0.120D-01 0.720D-01
 Coeff-Com: -0.113D+00-0.378D+00 0.143D+01
 Coeff:      0.424D-05 0.575D-05-0.267D-04 0.412D-03-0.120D-01 0.720D-01
 Coeff:     -0.113D+00-0.378D+00 0.143D+01
 Gap=     0.686 Goal=   None    Shift=    0.000
 RMSDP=1.16D-07 MaxDP=4.53D-07 DE=-4.14D-11 OVMax= 7.68D-07

 Cycle  10  Pass 1  IDiag  1:
 E= -33.6539074011646     Delta-E=       -0.000000000002 Rises=F Damp=F
 DIIS: error= 8.45D-09 at cycle  10 NSaved=  10.
 NSaved=10 IEnMin=10 EnMin= -33.6539074011646     IErMin=10 ErrMin= 8.45D-09
 ErrMax= 8.45D-09  0.00D+00 EMaxC= 1.00D-01 BMatC= 2.82D-15 BMatP= 6.13D-13
 IDIUse=1 WtCom= 1.00D+00 WtEn= 0.00D+00
 Coeff-Com:  0.152D-07-0.166D-05-0.634D-05-0.558D-04 0.269D-02-0.170D-01
 Coeff-Com:  0.274D-01 0.883D-01-0.391D+00 0.129D+01
 Coeff:      0.152D-07-0.166D-05-0.634D-05-0.558D-04 0.269D-02-0.170D-01
 Coeff:      0.274D-01 0.883D-01-0.391D+00 0.129D+01
 Gap=     0.686 Goal=   None    Shift=    0.000
 RMSDP=1.18D-08 MaxDP=5.54D-08 DE=-1.66D-12 OVMax= 6.92D-08

 Cycle  11  Pass 1  IDiag  1:
 E= -33.6539074011645     Delta-E=        0.000000000000 Rises=F Damp=F
 DIIS: error= 3.91D-10 at cycle  11 NSaved=  11.
 NSaved=11 IEnMin=10 EnMin= -33.6539074011646     IErMin=11 ErrMin= 3.91D-10
 ErrMax= 3.91D-10  0.00D+00 EMaxC= 1.00D-01 BMatC= 3.84D-18 BMatP= 2.82D-15
 IDIUse=1 WtCom= 1.00D+00 WtEn= 0.00D+00
 Coeff-Com: -0.683D-07 0.295D-06 0.182D-05 0.697D-05-0.448D-03 0.287D-02
 Coeff-Com: -0.469D-02-0.150D-01 0.677D-01-0.243D+00 0.119D+01
 Coeff:     -0.683D-07 0.295D-06 0.182D-05 0.697D-05-0.448D-03 0.287D-02
 Coeff:     -0.469D-02-0.150D-01 0.677D-01-0.243D+00 0.119D+01
 Gap=     0.686 Goal=   None    Shift=    0.000
 RMSDP=2.35D-10 MaxDP=1.38D-09 DE= 2.84D-14 OVMax= 1.01D-09

 SCF Done:  E(RHF) =  -33.6539074012     A.U. after   11 cycles
            NFock= 11  Conv=0.23D-09     -V/T= 2.2568
 KE= 2.677664875471D+01 PE=-1.219825067957D+02 EE= 4.135872107106D+01
 Leave Link  502 at Sun Dec 10 06:42:43 2023, MaxMem=   536870912 cpu:               0.3 elap:               0.1
 (Enter /usr/site/hpc/x86_64/glibc-2.17/broadwell/gaussian/g16_a.03/pgi-16.5/g16/l801.exe)
 Windowed orbitals will be sorted by symmetry type.
 Range of M.O.s used for correlation:     1    24
 NBasis=    24 NAE=     8 NBE=     8 NFC=     0 NFV=     0
 NROrb=     24 NOA=     8 NOB=     8 NVA=    16 NVB=    16
 Leave Link  801 at Sun Dec 10 06:42:43 2023, MaxMem=   536870912 cpu:               0.1 elap:               0.0
 (Enter /usr/site/hpc/x86_64/glibc-2.17/broadwell/gaussian/g16_a.03/pgi-16.5/g16/l804.exe)
 Closed-shell transformation, MDV=   536870912 ITran=4 ISComp=2.
 Unit  1 TFree=       1025975 TCopy=        210600.
 Semi-Direct transformation.
 ModeAB=           4 MOrb=             8 LenV=     536742347
 LASXX=        22470 LTotXX=       22470 LenRXX=       48678
 LTotAB=       26208 MaxLAS=       56256 LenRXY=           0
 NonZer=       71148 LenScr=      524288 LnRSAI=       56256
 LnScr1=      524288 LExtra=           0 Total=      1153510
 MaxDsk=          -1 SrtSym=           T ITran=            4
 DoSDTr:  NPSUse=  4
 JobTyp=0 Pass  1:  I=   1 to   8.
 (rs|ai) integrals will be sorted in core.
 Complete sort for first half transformation.
 First half transformation complete.
 Complete sort for second half transformation.
 Second half transformation complete.
 Spin components of T(2) and E(2):
     alpha-alpha T2 =       0.9062568428D-02 E2=     -0.2589446796D-01
     alpha-beta  T2 =       0.5983852257D-01 E2=     -0.1764850058D+00
     beta-beta   T2 =       0.9062568428D-02 E2=     -0.2589446796D-01
 ANorm=    0.1038250287D+01
 E2 =    -0.2282739417D+00 EUMP2 =    -0.33882181342868D+02
 Leave Link  804 at Sun Dec 10 06:42:43 2023, MaxMem=   536870912 cpu:               0.2 elap:               0.1
 (Enter /usr/site/hpc/x86_64/glibc-2.17/broadwell/gaussian/g16_a.03/pgi-16.5/g16/l913.exe)
 CIDS:  MDV=   536870912.
 IFCWin=0 IBDFC=1 NFBD=     0     0 NFCmp=     0     0 NFFFC=     0     0
 Using DD3R+UMP44R for 1st iteration.
 Using DD4RQ for 2nd and later iterations.
 Keep R2 and R3 ints in memory in symmetry-blocked form, NReq=864672.
 FoFCou: FMM=F IPFlag=           0 FMFlag=           0 FMFlg1=           0
         NFxFlg=           0 DoJE=F BraDBF=F KetDBF=F FulRan=T
         wScrn=  0.000000 ICntrl=       600 IOpCl=  0 I1Cent=           0 NGrid=           0
         NMat0=    1 NMatS0=    300 NMatT0=    0 NMatD0=    1 NMtDS0=    0 NMtDT0=    0
 Petite list used in FoFCou.
 CIDS: In Core Option IDoMem=           1.
 CCSD(T)
 =======
 Iterations=  50 Convergence= 0.100D-06
 Produce multiple copies of IABC intergrals
 Iteration Nr.   1
 **********************
 DD1Dir will call FoFMem   1 times, MxPair=        72
 NAB=    36 NAA=     0 NBB=     0.
 MP4(R+Q)= -0.74968077D-03
 Maximum subspace dimension=  5
 A-vector RMS=  5.7476684D-03 Max=  1.3203680D-02 conv= 1.00D-05.
 RLE energy=       -0.2343123007
 E3=       -0.54080414D-02        EUMP3=      -0.33887589384D+02
 E4(DQ)=   -0.59029498D-02        UMP4(DQ)=   -0.33893492334D+02
 E4(SDQ)=  -0.79270277D-02        UMP4(SDQ)=  -0.33895516412D+02
 VARIATIONAL ENERGIES WITH THE FIRST-ORDER WAVEFUNCTION:
 DE(Corr)= -0.23415703     E(Corr)=     -33.888064430    
 NORM(A)=   0.10416687D+01
 Iteration Nr.   2
 **********************
 DD1Dir will call FoFMem   1 times, MxPair=        72
 NAB=    36 NAA=     0 NBB=     0.
 A-vector RMS=  9.8152916D-04 Max=  2.6904153D-03 conv= 1.00D-05.
 RLE energy=       -0.2420653957
 DE(Corr)= -0.24012678     E(CORR)=     -33.894034181     Delta=-5.97D-03
 NORM(A)=   0.10454458D+01
 Iteration Nr.   3
 **********************
 DD1Dir will call FoFMem   1 times, MxPair=        72
 NAB=    36 NAA=     0 NBB=     0.
 A-vector RMS=  3.7972520D-04 Max=  1.0870848D-03 conv= 1.00D-05.
 RLE energy=       -0.2426147800
 DE(Corr)= -0.24216873     E(CORR)=     -33.896076136     Delta=-2.04D-03
 NORM(A)=   0.10460034D+01
 Iteration Nr.   4
 **********************
 DD1Dir will call FoFMem   1 times, MxPair=        72
 NAB=    36 NAA=     0 NBB=     0.
 A-vector RMS=  9.1916272D-05 Max=  2.4774754D-04 conv= 1.00D-05.
 RLE energy=       -0.2426612279
 DE(Corr)= -0.24262556     E(CORR)=     -33.896532959     Delta=-4.57D-04
 NORM(A)=   0.10460763D+01
 Iteration Nr.   5
 **********************
 DD1Dir will call FoFMem   1 times, MxPair=        72
 NAB=    36 NAA=     0 NBB=     0.
 A-vector RMS=  4.0972914D-05 Max=  1.4240846D-04 conv= 1.00D-05.
 RLE energy=       -0.2426595203
 DE(Corr)= -0.24265752     E(CORR)=     -33.896564923     Delta=-3.20D-05
 NORM(A)=   0.10460866D+01
 Iteration Nr.   6
 **********************
 DD1Dir will call FoFMem   1 times, MxPair=        72
 NAB=    36 NAA=     0 NBB=     0.
 A-vector RMS=  1.1545842D-05 Max=  4.1209304D-05 conv= 1.00D-05.
 RLE energy=       -0.2426585615
 DE(Corr)= -0.24265966     E(CORR)=     -33.896567063     Delta=-2.14D-06
 NORM(A)=   0.10460899D+01
 Iteration Nr.   7
 **********************
 DD1Dir will call FoFMem   1 times, MxPair=        72
 NAB=    36 NAA=     0 NBB=     0.
 A-vector RMS=  3.4914088D-06 Max=  1.1010414D-05 conv= 1.00D-05.
 RLE energy=       -0.2426595203
 DE(Corr)= -0.24265907     E(CORR)=     -33.896566472     Delta= 5.91D-07
 NORM(A)=   0.10460913D+01
 Iteration Nr.   8
 **********************
 DD1Dir will call FoFMem   1 times, MxPair=        72
 NAB=    36 NAA=     0 NBB=     0.
 A-vector RMS=  8.2369452D-07 Max=  2.6909947D-06 conv= 1.00D-05.
 RLE energy=       -0.2426590152
 DE(Corr)= -0.24265908     E(CORR)=     -33.896566485     Delta=-1.32D-08
 NORM(A)=   0.10460914D+01
 CI/CC converged in    8 iterations to DelEn=-1.32D-08 Conv= 1.00D-07 ErrA1= 8.24D-07 Conv= 1.00D-05
 Wavefunction amplitudes converged. E(Corr)=     -33.896566485    
 Largest amplitude= 5.86D-02
 IPart=  2 IA=    2   12.50% done.
 IPart=  3 IA=    3   24.17% done.
 IPart=  4 IA=    4   35.00% done.
 IPart=  4 IA=    5   45.00% done.
 IPart=  3 IA=    6   54.17% done.
 IPart=  2 IA=    7   62.50% done.
 IPart=  1 IA=    8   70.00% done.
 IPart=  4 IA=   10   82.50% done.
 IPart=  1 IA=   12   91.67% done.
 Time for triples=        0.27 seconds.
 T4(CCSD)= -0.30832581D-02
 T5(CCSD)=  0.52540733D-03
 CCSD(T)= -0.33899124336D+02
 Discarding MO integrals.
 Leave Link  913 at Sun Dec 10 06:42:43 2023, MaxMem=   536870912 cpu:               0.9 elap:               0.2
 (Enter /usr/site/hpc/x86_64/glibc-2.17/broadwell/gaussian/g16_a.03/pgi-16.5/g16/l601.exe)
 Copying SCF densities to generalized density rwf, IOpCl= 0 IROHF=0.

 **********************************************************************

            Population analysis using the SCF density.

 **********************************************************************

 Orbital symmetries:
       Occupied  (A') (A') (A') (A') (A') (A') (A") (A")
       Virtual   (A') (A') (A') (A') (A") (A") (A') (A') (A') (A')
                 (A') (A') (A') (A') (A') (A')
 The electronic state is 1-A'.
 Alpha  occ. eigenvalues --   -1.36389  -1.34676  -0.72034  -0.70319  -0.56242
 Alpha  occ. eigenvalues --   -0.54485  -0.50991  -0.49285
 Alpha virt. eigenvalues --    0.19333   0.21359   0.29738   0.31561   0.79565
 Alpha virt. eigenvalues --    0.81224   0.82342   0.84192   0.85543   0.87341
 Alpha virt. eigenvalues --    1.16587   1.18380   1.21014   1.23096   2.56493
 Alpha virt. eigenvalues --    2.58542
          Condensed to atoms (all electrons):
               1          2          3          4          5          6
     1  O    6.220255   0.265517   0.263619  -0.000005   0.000000   0.000000
     2  H    0.265517   0.378371  -0.023197   0.000067  -0.000003  -0.000000
     3  H    0.263619  -0.023197   0.389510  -0.000000   0.000000   0.000000
     4  O   -0.000005   0.000067  -0.000000   6.219152   0.264243   0.265458
     5  H    0.000000  -0.000003   0.000000   0.264243   0.385083  -0.023289
     6  H    0.000000  -0.000000   0.000000   0.265458  -0.023289   0.382808
 Mulliken charges:
               1
     1  O   -0.749386
     2  H    0.379245
     3  H    0.370068
     4  O   -0.748915
     5  H    0.373965
     6  H    0.375024
 Sum of Mulliken charges =   0.00000
 Mulliken charges with hydrogens summed into heavy atoms:
               1
     1  O   -0.000074
     4  O    0.000074
 Electronic spatial extent (au):  <R**2>=            415.7421
 Charge=              0.0000 electrons
 Dipole moment (field-independent basis, Debye):
    X=              0.6181    Y=             -3.7494    Z=              0.0000  Tot=              3.8000
 Quadrupole moment (field-independent basis, Debye-Ang):
   XX=             -9.8746   YY=             -7.2995   ZZ=            -14.9927
   XY=              9.5474   XZ=              0.0000   YZ=              0.0000
 Traceless Quadrupole moment (field-independent basis, Debye-Ang):
   XX=              0.8477   YY=              3.4228   ZZ=             -4.2704
   XY=              9.5474   XZ=              0.0000   YZ=              0.0000
 Octapole moment (field-independent basis, Debye-Ang**2):
  XXX=             -0.0946  YYY=            -72.1077  ZZZ=              0.0000  XYY=             15.1893
  XXY=             -1.8199  XXZ=              0.0000  XZZ=              0.1159  YZZ=             -0.7175
  YYZ=              0.0000  XYZ=              0.0000
 Hexadecapole moment (field-independent basis, Debye-Ang**3):
 XXXX=            -11.3692 YYYY=           -383.8548 ZZZZ=            -12.2290 XXXY=              4.5914
 XXXZ=              0.0000 YYYX=             59.1551 YYYZ=              0.0000 ZZZX=              0.0000
 ZZZY=              0.0000 XXYY=            -66.5956 XXZZ=             -4.5278 YYZZ=           -103.0370
 XXYZ=              0.0000 YYXZ=              0.0000 ZZXY=             -1.2684
 N-N= 2.019322956879D+01 E-N=-1.219825067992D+02  KE= 2.677664875471D+01
 Symmetry A'   KE= 1.789823293777D+01
 Symmetry A"   KE= 8.878415816949D+00
 Leave Link  601 at Sun Dec 10 06:42:43 2023, MaxMem=   536870912 cpu:               0.1 elap:               0.0
 (Enter /usr/site/hpc/x86_64/glibc-2.17/broadwell/gaussian/g16_a.03/pgi-16.5/g16/l9999.exe)
 1\1\GINC-N033\SP\RCCSD(T)-FC\CEP-31G\H4O2\ROOT\10-Dec-2023\0\\#p CCSD(
 T)/CEP-31G\\H2O_H2O_3874\\0,1\O,0,0.,-0.009833,0.\H,0,-0.799571,-0.580
 965,0.\H,0,0.799571,-0.580965,0.\O,0,-4.169868,-2.971504,0.\H,0,-4.741
 ,-2.171932,0.\H,0,-4.741,-3.771075,0.\\Version=ES64L-G16RevA.03\State=
 1-A'\HF=-33.6539074\MP2=-33.8821813\MP3=-33.8875894\MP4D=-33.8927427\M
 P4DQ=-33.8934923\MP4SDQ=-33.8955164\CCSD=-33.8965665\CCSD(T)=-33.89912
 43\RMSD=2.349e-10\PG=CS [SG(H4O2)]\\@


 IN THE LONG RUN, DIGGING FOR TRUTH HAS ALWAYS PROVED NOT ONLY 
 MORE INTERESTING BUT MORE PROFITABLE THAN DIGGING FOR GOLD.

                             -- GEORGE R. HARRISON
 Job cpu time:       0 days  0 hours  0 minutes  3.3 seconds.
 Elapsed time:       0 days  0 hours  0 minutes  1.0 seconds.
 File lengths (MBytes):  RWF=     72 Int=      0 D2E=      0 Chk=      8 Scr=      8
 Normal termination of Gaussian 16 at Sun Dec 10 06:42:43 2023.
