 Entering Gaussian System, Link 0=g16
 Input=H2O_H2O_70.com
 Output=H2O_H2O_70.log
 Initial command:
 /usr/site/hpc/x86_64/glibc-2.17/broadwell/gaussian/g16_a.03/pgi-16.5/g16/l1.exe "/gpfs/gpfs1/scratch/c7441090/OH Coord/Gau-1612903.inp" -scrdir="/gpfs/gpfs1/scratch/c7441090/OH Coord/"
 Entering Link 1 = /usr/site/hpc/x86_64/glibc-2.17/broadwell/gaussian/g16_a.03/pgi-16.5/g16/l1.exe PID=   1612904.
  
 Copyright (c) 1988,1990,1992,1993,1995,1998,2003,2009,2016,
            Gaussian, Inc.  All Rights Reserved.
  
 This is part of the Gaussian(R) 16 program.  It is based on
 the Gaussian(R) 09 system (copyright 2009, Gaussian, Inc.),
 the Gaussian(R) 03 system (copyright 2003, Gaussian, Inc.),
 the Gaussian(R) 98 system (copyright 1998, Gaussian, Inc.),
 the Gaussian(R) 94 system (copyright 1995, Gaussian, Inc.),
 the Gaussian 92(TM) system (copyright 1992, Gaussian, Inc.),
 the Gaussian 90(TM) system (copyright 1990, Gaussian, Inc.),
 the Gaussian 88(TM) system (copyright 1988, Gaussian, Inc.),
 the Gaussian 86(TM) system (copyright 1986, Carnegie Mellon
 University), and the Gaussian 82(TM) system (copyright 1983,
 Carnegie Mellon University). Gaussian is a federally registered
 trademark of Gaussian, Inc.
  
 This software contains proprietary and confidential information,
 including trade secrets, belonging to Gaussian, Inc.
  
 This software is provided under written license and may be
 used, copied, transmitted, or stored only in accord with that
 written license.
  
 The following legend is applicable only to US Government
 contracts under FAR:
  
                    RESTRICTED RIGHTS LEGEND
  
 Use, reproduction and disclosure by the US Government is
 subject to restrictions as set forth in subparagraphs (a)
 and (c) of the Commercial Computer Software - Restricted
 Rights clause in FAR 52.227-19.
  
 Gaussian, Inc.
 340 Quinnipiac St., Bldg. 40, Wallingford CT 06492
  
  
 ---------------------------------------------------------------
 Warning -- This program may not be used in any manner that
 competes with the business of Gaussian, Inc. or will provide
 assistance to any competitor of Gaussian, Inc.  The licensee
 of this program is prohibited from giving any competitor of
 Gaussian, Inc. access to this program.  By using this program,
 the user acknowledges that Gaussian, Inc. is engaged in the
 business of creating and licensing software in the field of
 computational chemistry and represents and warrants to the
 licensee that it is not a competitor of Gaussian, Inc. and that
 it will not use this program in any manner prohibited above.
 ---------------------------------------------------------------
  

 Cite this work as:
 Gaussian 16, Revision A.03,
 M. J. Frisch, G. W. Trucks, H. B. Schlegel, G. E. Scuseria, 
 M. A. Robb, J. R. Cheeseman, G. Scalmani, V. Barone, 
 G. A. Petersson, H. Nakatsuji, X. Li, M. Caricato, A. V. Marenich, 
 J. Bloino, B. G. Janesko, R. Gomperts, B. Mennucci, H. P. Hratchian, 
 J. V. Ortiz, A. F. Izmaylov, J. L. Sonnenberg, D. Williams-Young, 
 F. Ding, F. Lipparini, F. Egidi, J. Goings, B. Peng, A. Petrone, 
 T. Henderson, D. Ranasinghe, V. G. Zakrzewski, J. Gao, N. Rega, 
 G. Zheng, W. Liang, M. Hada, M. Ehara, K. Toyota, R. Fukuda, 
 J. Hasegawa, M. Ishida, T. Nakajima, Y. Honda, O. Kitao, H. Nakai, 
 T. Vreven, K. Throssell, J. A. Montgomery, Jr., J. E. Peralta, 
 F. Ogliaro, M. J. Bearpark, J. J. Heyd, E. N. Brothers, K. N. Kudin, 
 V. N. Staroverov, T. A. Keith, R. Kobayashi, J. Normand, 
 K. Raghavachari, A. P. Rendell, J. C. Burant, S. S. Iyengar, 
 J. Tomasi, M. Cossi, J. M. Millam, M. Klene, C. Adamo, R. Cammi, 
 J. W. Ochterski, R. L. Martin, K. Morokuma, O. Farkas, 
 J. B. Foresman, and D. J. Fox, Gaussian, Inc., Wallingford CT, 2016.
 
 ******************************************
 Gaussian 16:  ES64L-G16RevA.03 25-Dec-2016
                10-Dec-2023 
 ******************************************
 %NProcShared=4
 Will use up to    4 processors via shared memory.
 %Mem=4GB
 %Chk=H2O_H2O_70.chk
 ------------------
 #p CCSD(T)/CEP-31G
 ------------------
 1/38=1,172=1/1;
 2/12=2,17=6,18=5,40=1/2;
 3/5=9,6=1,11=9,25=1,30=1/1,2,3;
 4//1;
 5/5=2,38=5/2;
 8/6=4,9=120000,10=1/1,4;
 9/5=7,14=2/13;
 6/7=2,8=2,9=2,10=2/1;
 99/5=1,9=1/99;
 Leave Link    1 at Sun Dec 10 06:19:23 2023, MaxMem=   536870912 cpu:               0.2 elap:               0.1
 (Enter /usr/site/hpc/x86_64/glibc-2.17/broadwell/gaussian/g16_a.03/pgi-16.5/g16/l101.exe)
 ----------
 H2O_H2O_70
 ----------
 Symbolic Z-matrix:
 Charge =  0 Multiplicity = 1
 O                     0.       -0.00983   0. 
 H                    -0.79957  -0.58097   0. 
 H                     0.79957  -0.58097   0. 
 O                    -1.70274  -1.21202   0. 
 H                    -2.46136  -0.58752   0. 
 H                    -2.04747  -2.13217   0. 
 
 ITRead=  0  0  0  0  0  0
 MicOpt= -1 -1 -1 -1 -1 -1
 NAtoms=      6 NQM=        6 NQMF=       0 NMMI=      0 NMMIF=      0
                NMic=       0 NMicF=      0.
                    Isotopes and Nuclear Properties:
 (Nuclear quadrupole moments (NQMom) in fm**2, nuclear magnetic moments (NMagM)
  in nuclear magnetons)

  Atom         1           2           3           4           5           6
 IAtWgt=          16           1           1          16           1           1
 AtmWgt=  15.9949146   1.0078250   1.0078250  15.9949146   1.0078250   1.0078250
 NucSpn=           0           1           1           0           1           1
 AtZEff=  -0.0000000  -0.0000000  -0.0000000  -0.0000000  -0.0000000  -0.0000000
 NQMom=    0.0000000   0.0000000   0.0000000   0.0000000   0.0000000   0.0000000
 NMagM=    0.0000000   2.7928460   2.7928460   0.0000000   2.7928460   2.7928460
 AtZNuc=   8.0000000   1.0000000   1.0000000   8.0000000   1.0000000   1.0000000
 Leave Link  101 at Sun Dec 10 06:19:23 2023, MaxMem=   536870912 cpu:               0.3 elap:               0.1
 (Enter /usr/site/hpc/x86_64/glibc-2.17/broadwell/gaussian/g16_a.03/pgi-16.5/g16/l202.exe)
                          Input orientation:                          
 ---------------------------------------------------------------------
 Center     Atomic      Atomic             Coordinates (Angstroms)
 Number     Number       Type             X           Y           Z
 ---------------------------------------------------------------------
      1          8           0        0.000000   -0.009833    0.000000
      2          1           0       -0.799571   -0.580965    0.000000
      3          1           0        0.799571   -0.580965    0.000000
      4          8           0       -1.702741   -1.212024    0.000000
      5          1           0       -2.461356   -0.587518    0.000000
      6          1           0       -2.047468   -2.132171    0.000000
 ---------------------------------------------------------------------
                    Distance matrix (angstroms):
                    1          2          3          4          5
     1  O    0.000000
     2  H    0.982601   0.000000
     3  H    0.982601   1.599142   0.000000
     4  O    2.084368   1.101795   2.580659   0.000000
     5  H    2.528239   1.661798   3.260934   0.982601   0.000000
     6  H    2.948973   1.990851   3.242202   0.982602   1.599142
                    6
     6  H    0.000000
 Stoichiometry    H4O2
 Framework group  CS[SG(H4O2)]
 Deg. of freedom     9
 Full point group                 CS      NOp   2
 Largest Abelian subgroup         CS      NOp   2
 Largest concise Abelian subgroup C1      NOp   1
                         Standard orientation:                         
 ---------------------------------------------------------------------
 Center     Atomic      Atomic             Coordinates (Angstroms)
 Number     Number       Type             X           Y           Z
 ---------------------------------------------------------------------
      1          8           0        0.026913    1.128717   -0.000000
      2          1           0        0.021515    0.146131   -0.000000
      3          1           0       -0.900815    1.452486   -0.000000
      4          8           0        0.026913   -0.955651    0.000000
      5          1           0        0.974621   -1.215178    0.000000
      6          1           0       -0.525937   -1.767970    0.000000
 ---------------------------------------------------------------------
 Rotational constants (GHZ):         250.8364210          12.0971382          11.5405689
 Leave Link  202 at Sun Dec 10 06:19:23 2023, MaxMem=   536870912 cpu:               0.0 elap:               0.0
 (Enter /usr/site/hpc/x86_64/glibc-2.17/broadwell/gaussian/g16_a.03/pgi-16.5/g16/l301.exe)
 Standard basis: CEP-31G (6D, 10F)
 Ernie: Thresh=  0.10000D-02 Tol=  0.10000D-05 Strict=F.
 There are    20 symmetry adapted cartesian basis functions of A'  symmetry.
 There are     4 symmetry adapted cartesian basis functions of A"  symmetry.
 There are    20 symmetry adapted basis functions of A'  symmetry.
 There are     4 symmetry adapted basis functions of A"  symmetry.
    24 basis functions,    48 primitive gaussians,    24 cartesian basis functions
     8 alpha electrons        8 beta electrons
       nuclear repulsion energy        30.0808917520 Hartrees.
 IExCor=    0 DFT=F Ex=HF Corr=None ExCW=0 ScaHFX=  1.000000
 ScaDFX=  1.000000  1.000000  1.000000  1.000000 ScalE2=  1.000000  1.000000
 IRadAn=      5 IRanWt=     -1 IRanGd=            0 ICorTp=0 IEmpDi=  4
 NAtoms=    6 NActive=    6 NUniq=    6 SFac= 1.00D+00 NAtFMM=   60 NAOKFM=F Big=F
 Integral buffers will be    131072 words long.
 Raffenetti 1 integral format.
 Two-electron integral symmetry is turned on.
 Leave Link  301 at Sun Dec 10 06:19:23 2023, MaxMem=   536870912 cpu:               0.2 elap:               0.1
 (Enter /usr/site/hpc/x86_64/glibc-2.17/broadwell/gaussian/g16_a.03/pgi-16.5/g16/l302.exe)
 NPDir=0 NMtPBC=     1 NCelOv=     1 NCel=       1 NClECP=     1 NCelD=      1
         NCelK=      1 NCelE2=     1 NClLst=     1 CellRange=     0.0.
 One-electron integrals computed using PRISM.
 One-electron integral symmetry used in STVInt
   2 Symmetry operations used in ECPInt.
 ECPInt:  NShTT=      78 NPrTT=     318 LenC2=      79 LenP2D=     300.
 LDataN:  DoStor=T MaxTD1= 2 Len=   12
 NBasis=    24 RedAO= T EigKep=  3.02D-03  NBF=    20     4
 NBsUse=    24 1.00D-06 EigRej= -1.00D+00 NBFU=    20     4
 Leave Link  302 at Sun Dec 10 06:19:24 2023, MaxMem=   536870912 cpu:               0.4 elap:               0.1
 (Enter /usr/site/hpc/x86_64/glibc-2.17/broadwell/gaussian/g16_a.03/pgi-16.5/g16/l303.exe)
 DipDrv:  MaxL=1.
 Leave Link  303 at Sun Dec 10 06:19:24 2023, MaxMem=   536870912 cpu:               0.1 elap:               0.0
 (Enter /usr/site/hpc/x86_64/glibc-2.17/broadwell/gaussian/g16_a.03/pgi-16.5/g16/l401.exe)
 ExpMin= 1.78D-01 ExpMax= 1.92D+01 ExpMxC= 1.92D+01 IAcc=3 IRadAn=         5 AccDes= 0.00D+00
 Harris functional with IExCor=  205 and IRadAn=       5 diagonalized for initial guess.
 HarFok:  IExCor=  205 AccDes= 0.00D+00 IRadAn=         5 IDoV= 1 UseB2=F ITyADJ=14
 ICtDFT=  3500011 ScaDFX=  1.000000  1.000000  1.000000  1.000000
 FoFCou: FMM=F IPFlag=           0 FMFlag=      100000 FMFlg1=           0
         NFxFlg=           0 DoJE=T BraDBF=F KetDBF=T FulRan=T
         wScrn=  0.000000 ICntrl=       500 IOpCl=  0 I1Cent=   200000004 NGrid=           0
         NMat0=    1 NMatS0=      1 NMatT0=    0 NMatD0=    1 NMtDS0=    0 NMtDT0=    0
 Petite list used in FoFCou.
 Harris En= -34.4576713407365    
 JPrj=0 DoOrth=F DoCkMO=F.
 Initial guess orbital symmetries:
       Occupied  (A') (A') (A') (A') (A') (A") (A') (A")
       Virtual   (A') (A') (A') (A') (A") (A') (A') (A") (A') (A')
                 (A') (A') (A') (A') (A') (A')
 The electronic state of the initial guess is 1-A'.
 Leave Link  401 at Sun Dec 10 06:19:24 2023, MaxMem=   536870912 cpu:               0.5 elap:               0.1
 (Enter /usr/site/hpc/x86_64/glibc-2.17/broadwell/gaussian/g16_a.03/pgi-16.5/g16/l502.exe)
 Keep R1 ints in memory in symmetry-blocked form, NReq=852814.
 FoFCou: FMM=F IPFlag=           0 FMFlag=           0 FMFlg1=           0
         NFxFlg=           0 DoJE=F BraDBF=F KetDBF=F FulRan=T
         wScrn=  0.000000 ICntrl=       600 IOpCl=  0 I1Cent=           0 NGrid=           0
         NMat0=    1 NMatS0=    300 NMatT0=    0 NMatD0=    1 NMtDS0=    0 NMtDT0=    0
 Petite list used in FoFCou.
 Closed shell SCF:
 Using DIIS extrapolation, IDIIS=  1040.
 NGot=   536870912 LenX=   536840564 LenY=   536839547
 Requested convergence on RMS density matrix=1.00D-08 within 128 cycles.
 Requested convergence on MAX density matrix=1.00D-06.
 Requested convergence on             energy=1.00D-06.
 No special actions if energy rises.

 Cycle   1  Pass 1  IDiag  1:
 E= -33.4855550183799    
 DIIS: error= 5.69D-02 at cycle   1 NSaved=   1.
 NSaved= 1 IEnMin= 1 EnMin= -33.4855550183799     IErMin= 1 ErrMin= 5.69D-02
 ErrMax= 5.69D-02  0.00D+00 EMaxC= 1.00D-01 BMatC= 1.15D-01 BMatP= 1.15D-01
 IDIUse=3 WtCom= 4.31D-01 WtEn= 5.69D-01
 Coeff-Com:  0.100D+01
 Coeff-En:   0.100D+01
 Coeff:      0.100D+01
 Gap=     0.456 Goal=   None    Shift=    0.000
 GapD=    0.456 DampG=2.000 DampE=0.500 DampFc=1.0000 IDamp=-1.
 RMSDP=2.74D-02 MaxDP=1.56D-01              OVMax= 1.32D-01

 Cycle   2  Pass 1  IDiag  1:
 E= -33.5608519411369     Delta-E=       -0.075296922757 Rises=F Damp=F
 DIIS: error= 3.61D-02 at cycle   2 NSaved=   2.
 NSaved= 2 IEnMin= 2 EnMin= -33.5608519411369     IErMin= 2 ErrMin= 3.61D-02
 ErrMax= 3.61D-02  0.00D+00 EMaxC= 1.00D-01 BMatC= 4.06D-02 BMatP= 1.15D-01
 IDIUse=3 WtCom= 6.39D-01 WtEn= 3.61D-01
 Coeff-Com:  0.369D+00 0.631D+00
 Coeff-En:   0.596D-01 0.940D+00
 Coeff:      0.257D+00 0.743D+00
 Gap=     0.583 Goal=   None    Shift=    0.000
 RMSDP=9.26D-03 MaxDP=7.02D-02 DE=-7.53D-02 OVMax= 4.97D-02

 Cycle   3  Pass 1  IDiag  1:
 E= -33.5930935749020     Delta-E=       -0.032241633765 Rises=F Damp=F
 DIIS: error= 6.70D-03 at cycle   3 NSaved=   3.
 NSaved= 3 IEnMin= 3 EnMin= -33.5930935749020     IErMin= 3 ErrMin= 6.70D-03
 ErrMax= 6.70D-03  0.00D+00 EMaxC= 1.00D-01 BMatC= 1.28D-03 BMatP= 4.06D-02
 IDIUse=3 WtCom= 9.33D-01 WtEn= 6.70D-02
 Coeff-Com: -0.789D-01 0.465D-01 0.103D+01
 Coeff-En:   0.000D+00 0.000D+00 0.100D+01
 Coeff:     -0.736D-01 0.433D-01 0.103D+01
 Gap=     0.566 Goal=   None    Shift=    0.000
 RMSDP=2.30D-03 MaxDP=1.45D-02 DE=-3.22D-02 OVMax= 1.08D-02

 Cycle   4  Pass 1  IDiag  1:
 E= -33.5942771248374     Delta-E=       -0.001183549935 Rises=F Damp=F
 DIIS: error= 8.73D-04 at cycle   4 NSaved=   4.
 NSaved= 4 IEnMin= 4 EnMin= -33.5942771248374     IErMin= 4 ErrMin= 8.73D-04
 ErrMax= 8.73D-04  0.00D+00 EMaxC= 1.00D-01 BMatC= 2.01D-05 BMatP= 1.28D-03
 IDIUse=3 WtCom= 9.91D-01 WtEn= 8.73D-03
 Coeff-Com: -0.324D-01-0.185D-01 0.237D+00 0.814D+00
 Coeff-En:   0.000D+00 0.000D+00 0.000D+00 0.100D+01
 Coeff:     -0.321D-01-0.183D-01 0.235D+00 0.815D+00
 Gap=     0.570 Goal=   None    Shift=    0.000
 RMSDP=2.90D-04 MaxDP=1.82D-03 DE=-1.18D-03 OVMax= 1.31D-03

 Cycle   5  Pass 1  IDiag  1:
 E= -33.5943006079263     Delta-E=       -0.000023483089 Rises=F Damp=F
 DIIS: error= 2.22D-04 at cycle   5 NSaved=   5.
 NSaved= 5 IEnMin= 5 EnMin= -33.5943006079263     IErMin= 5 ErrMin= 2.22D-04
 ErrMax= 2.22D-04  0.00D+00 EMaxC= 1.00D-01 BMatC= 1.56D-06 BMatP= 2.01D-05
 IDIUse=3 WtCom= 9.98D-01 WtEn= 2.22D-03
 Coeff-Com:  0.120D-01-0.480D-02-0.148D+00-0.123D-01 0.115D+01
 Coeff-En:   0.000D+00 0.000D+00 0.000D+00 0.000D+00 0.100D+01
 Coeff:      0.120D-01-0.479D-02-0.148D+00-0.123D-01 0.115D+01
 Gap=     0.570 Goal=   None    Shift=    0.000
 RMSDP=1.53D-04 MaxDP=8.96D-04 DE=-2.35D-05 OVMax= 6.36D-04

 Cycle   6  Pass 1  IDiag  1:
 E= -33.5943033717920     Delta-E=       -0.000002763866 Rises=F Damp=F
 DIIS: error= 3.90D-05 at cycle   6 NSaved=   6.
 NSaved= 6 IEnMin= 6 EnMin= -33.5943033717920     IErMin= 6 ErrMin= 3.90D-05
 ErrMax= 3.90D-05  0.00D+00 EMaxC= 1.00D-01 BMatC= 2.82D-08 BMatP= 1.56D-06
 IDIUse=1 WtCom= 1.00D+00 WtEn= 0.00D+00
 Coeff-Com: -0.296D-02 0.176D-02 0.408D-01-0.249D-01-0.348D+00 0.133D+01
 Coeff:     -0.296D-02 0.176D-02 0.408D-01-0.249D-01-0.348D+00 0.133D+01
 Gap=     0.570 Goal=   None    Shift=    0.000
 RMSDP=2.22D-05 MaxDP=1.34D-04 DE=-2.76D-06 OVMax= 1.16D-04

 Cycle   7  Pass 1  IDiag  1:
 E= -33.5943034422034     Delta-E=       -0.000000070411 Rises=F Damp=F
 DIIS: error= 6.36D-06 at cycle   7 NSaved=   7.
 NSaved= 7 IEnMin= 7 EnMin= -33.5943034422034     IErMin= 7 ErrMin= 6.36D-06
 ErrMax= 6.36D-06  0.00D+00 EMaxC= 1.00D-01 BMatC= 6.01D-10 BMatP= 2.82D-08
 IDIUse=1 WtCom= 1.00D+00 WtEn= 0.00D+00
 Coeff-Com:  0.746D-03-0.437D-03-0.104D-01 0.785D-02 0.896D-01-0.427D+00
 Coeff-Com:  0.134D+01
 Coeff:      0.746D-03-0.437D-03-0.104D-01 0.785D-02 0.896D-01-0.427D+00
 Coeff:      0.134D+01
 Gap=     0.570 Goal=   None    Shift=    0.000
 RMSDP=3.79D-06 MaxDP=2.05D-05 DE=-7.04D-08 OVMax= 2.70D-05

 Cycle   8  Pass 1  IDiag  1:
 E= -33.5943034439816     Delta-E=       -0.000000001778 Rises=F Damp=F
 DIIS: error= 1.38D-06 at cycle   8 NSaved=   8.
 NSaved= 8 IEnMin= 8 EnMin= -33.5943034439816     IErMin= 8 ErrMin= 1.38D-06
 ErrMax= 1.38D-06  0.00D+00 EMaxC= 1.00D-01 BMatC= 3.19D-11 BMatP= 6.01D-10
 IDIUse=1 WtCom= 1.00D+00 WtEn= 0.00D+00
 Coeff-Com: -0.143D-03 0.676D-04 0.194D-02-0.168D-02-0.155D-01 0.833D-01
 Coeff-Com: -0.400D+00 0.133D+01
 Coeff:     -0.143D-03 0.676D-04 0.194D-02-0.168D-02-0.155D-01 0.833D-01
 Coeff:     -0.400D+00 0.133D+01
 Gap=     0.570 Goal=   None    Shift=    0.000
 RMSDP=7.41D-07 MaxDP=4.95D-06 DE=-1.78D-09 OVMax= 6.69D-06

 Cycle   9  Pass 1  IDiag  1:
 E= -33.5943034440773     Delta-E=       -0.000000000096 Rises=F Damp=F
 DIIS: error= 3.20D-07 at cycle   9 NSaved=   9.
 NSaved= 9 IEnMin= 9 EnMin= -33.5943034440773     IErMin= 9 ErrMin= 3.20D-07
 ErrMax= 3.20D-07  0.00D+00 EMaxC= 1.00D-01 BMatC= 1.75D-12 BMatP= 3.19D-11
 IDIUse=1 WtCom= 1.00D+00 WtEn= 0.00D+00
 Coeff-Com:  0.118D-04 0.104D-05-0.135D-03 0.155D-03 0.400D-03-0.424D-02
 Coeff-Com:  0.556D-01-0.451D+00 0.140D+01
 Coeff:      0.118D-04 0.104D-05-0.135D-03 0.155D-03 0.400D-03-0.424D-02
 Coeff:      0.556D-01-0.451D+00 0.140D+01
 Gap=     0.570 Goal=   None    Shift=    0.000
 RMSDP=2.50D-07 MaxDP=1.41D-06 DE=-9.57D-11 OVMax= 1.98D-06

 Cycle  10  Pass 1  IDiag  1:
 E= -33.5943034440830     Delta-E=       -0.000000000006 Rises=F Damp=F
 DIIS: error= 3.27D-08 at cycle  10 NSaved=  10.
 NSaved=10 IEnMin=10 EnMin= -33.5943034440830     IErMin=10 ErrMin= 3.27D-08
 ErrMax= 3.27D-08  0.00D+00 EMaxC= 1.00D-01 BMatC= 2.32D-14 BMatP= 1.75D-12
 IDIUse=1 WtCom= 1.00D+00 WtEn= 0.00D+00
 Coeff-Com: -0.366D-06-0.167D-05-0.225D-05-0.381D-05 0.210D-03-0.701D-03
 Coeff-Com: -0.484D-02 0.833D-01-0.353D+00 0.127D+01
 Coeff:     -0.366D-06-0.167D-05-0.225D-05-0.381D-05 0.210D-03-0.701D-03
 Coeff:     -0.484D-02 0.833D-01-0.353D+00 0.127D+01
 Gap=     0.570 Goal=   None    Shift=    0.000
 RMSDP=3.59D-08 MaxDP=2.35D-07 DE=-5.70D-12 OVMax= 1.91D-07

 Cycle  11  Pass 1  IDiag  1:
 E= -33.5943034440830     Delta-E=       -0.000000000000 Rises=F Damp=F
 DIIS: error= 4.63D-09 at cycle  11 NSaved=  11.
 NSaved=11 IEnMin=11 EnMin= -33.5943034440830     IErMin=11 ErrMin= 4.63D-09
 ErrMax= 4.63D-09  0.00D+00 EMaxC= 1.00D-01 BMatC= 7.45D-16 BMatP= 2.32D-14
 IDIUse=1 WtCom= 1.00D+00 WtEn= 0.00D+00
 Coeff-Com: -0.236D-06 0.600D-06 0.513D-05-0.328D-05-0.948D-04 0.392D-03
 Coeff-Com:  0.238D-03-0.187D-01 0.912D-01-0.463D+00 0.139D+01
 Coeff:     -0.236D-06 0.600D-06 0.513D-05-0.328D-05-0.948D-04 0.392D-03
 Coeff:      0.238D-03-0.187D-01 0.912D-01-0.463D+00 0.139D+01
 Gap=     0.570 Goal=   None    Shift=    0.000
 RMSDP=6.15D-09 MaxDP=3.84D-08 DE=-7.11D-14 OVMax= 3.56D-08

 SCF Done:  E(RHF) =  -33.5943034441     A.U. after   11 cycles
            NFock= 11  Conv=0.62D-08     -V/T= 2.2259
 KE= 2.740484649056D+01 PE=-1.421665792225D+02 EE= 5.108653753588D+01
 Leave Link  502 at Sun Dec 10 06:19:24 2023, MaxMem=   536870912 cpu:               0.3 elap:               0.1
 (Enter /usr/site/hpc/x86_64/glibc-2.17/broadwell/gaussian/g16_a.03/pgi-16.5/g16/l801.exe)
 Windowed orbitals will be sorted by symmetry type.
 Range of M.O.s used for correlation:     1    24
 NBasis=    24 NAE=     8 NBE=     8 NFC=     0 NFV=     0
 NROrb=     24 NOA=     8 NOB=     8 NVA=    16 NVB=    16

 **** Warning!!: The largest alpha MO coefficient is  0.10903585D+02

 Leave Link  801 at Sun Dec 10 06:19:24 2023, MaxMem=   536870912 cpu:               0.2 elap:               0.0
 (Enter /usr/site/hpc/x86_64/glibc-2.17/broadwell/gaussian/g16_a.03/pgi-16.5/g16/l804.exe)
 Closed-shell transformation, MDV=   536870912 ITran=4 ISComp=2.
 Unit  1 TFree=       1025975 TCopy=        210612.
 Semi-Direct transformation.
 ModeAB=           2 MOrb=             8 LenV=     536741361
 LASXX=        22470 LTotXX=       22470 LenRXX=       22470
 LTotAB=       26208 MaxLAS=       57600 LenRXY=       57600
 NonZer=       62208 LenScr=      524288 LnRSAI=           0
 LnScr1=           0 LExtra=           0 Total=       604358
 MaxDsk=          -1 SrtSym=           F ITran=            4
 DoSDTr:  NPSUse=  4
 JobTyp=0 Pass  1:  I=   1 to   8.
 (rs|ai) integrals will be sorted in core.
 Complete sort for first half transformation.
 First half transformation complete.
 Complete sort for second half transformation.
 Second half transformation complete.
 Spin components of T(2) and E(2):
     alpha-alpha T2 =       0.9200171237D-02 E2=     -0.2696012223D-01
     alpha-beta  T2 =       0.5700546032D-01 E2=     -0.1730091910D+00
     beta-beta   T2 =       0.9200171237D-02 E2=     -0.2696012223D-01
 ANorm=    0.1037017745D+01
 E2 =    -0.2269294355D+00 EUMP2 =    -0.33821232879588D+02
 Leave Link  804 at Sun Dec 10 06:19:24 2023, MaxMem=   536870912 cpu:               0.2 elap:               0.1
 (Enter /usr/site/hpc/x86_64/glibc-2.17/broadwell/gaussian/g16_a.03/pgi-16.5/g16/l913.exe)
 CIDS:  MDV=   536870912.
 IFCWin=0 IBDFC=1 NFBD=     0     0 NFCmp=     0     0 NFFFC=     0     0
 Using DD3R+UMP44R for 1st iteration.
 Using DD4RQ for 2nd and later iterations.
 Keep R2 and R3 ints in memory in symmetry-blocked form, NReq=865422.
 FoFCou: FMM=F IPFlag=           0 FMFlag=           0 FMFlg1=           0
         NFxFlg=           0 DoJE=F BraDBF=F KetDBF=F FulRan=T
         wScrn=  0.000000 ICntrl=       600 IOpCl=  0 I1Cent=           0 NGrid=           0
         NMat0=    1 NMatS0=    300 NMatT0=    0 NMatD0=    1 NMtDS0=    0 NMtDT0=    0
 Petite list used in FoFCou.
 CIDS: In Core Option IDoMem=           1.
 CCSD(T)
 =======
 Iterations=  50 Convergence= 0.100D-06
 Produce multiple copies of IABC intergrals
 Iteration Nr.   1
 **********************
 DD1Dir will call FoFMem   1 times, MxPair=        72
 NAB=    36 NAA=     0 NBB=     0.
 MP4(R+Q)= -0.60605097D-03
 Maximum subspace dimension=  5
 A-vector RMS=  6.1850066D-03 Max=  1.3879604D-02 conv= 1.00D-05.
 RLE energy=       -0.2303340235
 E3=       -0.30552030D-02        EUMP3=      -0.33824288083D+02
 E4(DQ)=   -0.52999824D-02        UMP4(DQ)=   -0.33829588065D+02
 E4(SDQ)=  -0.76417409D-02        UMP4(SDQ)=  -0.33831929823D+02
 VARIATIONAL ENERGIES WITH THE FIRST-ORDER WAVEFUNCTION:
 DE(Corr)= -0.23028412     E(Corr)=     -33.824587566    
 NORM(A)=   0.10395468D+01
 Iteration Nr.   2
 **********************
 DD1Dir will call FoFMem   1 times, MxPair=        72
 NAB=    36 NAA=     0 NBB=     0.
 A-vector RMS=  9.5935372D-04 Max=  2.8659511D-03 conv= 1.00D-05.
 RLE energy=       -0.2376396611
 DE(Corr)= -0.23604827     E(CORR)=     -33.830351714     Delta=-5.76D-03
 NORM(A)=   0.10429581D+01
 Iteration Nr.   3
 **********************
 DD1Dir will call FoFMem   1 times, MxPair=        72
 NAB=    36 NAA=     0 NBB=     0.
 A-vector RMS=  6.0789223D-04 Max=  2.5222393D-03 conv= 1.00D-05.
 RLE energy=       -0.2381700654
 DE(Corr)= -0.23771694     E(CORR)=     -33.832020384     Delta=-1.67D-03
 NORM(A)=   0.10435416D+01
 Iteration Nr.   4
 **********************
 DD1Dir will call FoFMem   1 times, MxPair=        72
 NAB=    36 NAA=     0 NBB=     0.
 A-vector RMS=  1.0668161D-04 Max=  6.3014019D-04 conv= 1.00D-05.
 RLE energy=       -0.2382248823
 DE(Corr)= -0.23818737     E(CORR)=     -33.832490816     Delta=-4.70D-04
 NORM(A)=   0.10436289D+01
 Iteration Nr.   5
 **********************
 DD1Dir will call FoFMem   1 times, MxPair=        72
 NAB=    36 NAA=     0 NBB=     0.
 A-vector RMS=  9.3455449D-05 Max=  4.6095078D-04 conv= 1.00D-05.
 RLE energy=       -0.2382281663
 DE(Corr)= -0.23822112     E(CORR)=     -33.832524569     Delta=-3.38D-05
 NORM(A)=   0.10436537D+01
 Iteration Nr.   6
 **********************
 DD1Dir will call FoFMem   1 times, MxPair=        72
 NAB=    36 NAA=     0 NBB=     0.
 A-vector RMS=  3.3164297D-05 Max=  1.5300144D-04 conv= 1.00D-05.
 RLE energy=       -0.2382212899
 DE(Corr)= -0.23822633     E(CORR)=     -33.832529770     Delta=-5.20D-06
 NORM(A)=   0.10436617D+01
 Iteration Nr.   7
 **********************
 DD1Dir will call FoFMem   1 times, MxPair=        72
 NAB=    36 NAA=     0 NBB=     0.
 A-vector RMS=  1.1302725D-05 Max=  5.0388768D-05 conv= 1.00D-05.
 RLE energy=       -0.2382231984
 DE(Corr)= -0.23822656     E(CORR)=     -33.832530006     Delta=-2.35D-07
 NORM(A)=   0.10436657D+01
 Iteration Nr.   8
 **********************
 DD1Dir will call FoFMem   1 times, MxPair=        72
 NAB=    36 NAA=     0 NBB=     0.
 A-vector RMS=  4.6035698D-06 Max=  2.3048613D-05 conv= 1.00D-05.
 RLE energy=       -0.2382252082
 DE(Corr)= -0.23822543     E(CORR)=     -33.832528879     Delta= 1.13D-06
 NORM(A)=   0.10436678D+01
 Iteration Nr.   9
 **********************
 DD1Dir will call FoFMem   1 times, MxPair=        72
 NAB=    36 NAA=     0 NBB=     0.
 A-vector RMS=  8.4303626D-07 Max=  2.2567707D-06 conv= 1.00D-05.
 RLE energy=       -0.2382257515
 DE(Corr)= -0.23822578     E(CORR)=     -33.832529224     Delta=-3.45D-07
 NORM(A)=   0.10436683D+01
 Iteration Nr.  10
 **********************
 DD1Dir will call FoFMem   1 times, MxPair=        72
 NAB=    36 NAA=     0 NBB=     0.
 A-vector RMS=  3.7126532D-07 Max=  1.2147793D-06 conv= 1.00D-05.
 RLE energy=       -0.2382260894
 DE(Corr)= -0.23822602     E(CORR)=     -33.832529462     Delta=-2.38D-07
 NORM(A)=   0.10436686D+01
 Iteration Nr.  11
 **********************
 DD1Dir will call FoFMem   1 times, MxPair=        72
 NAB=    36 NAA=     0 NBB=     0.
 A-vector RMS=  1.4473747D-07 Max=  4.6095808D-07 conv= 1.00D-05.
 RLE energy=       -0.2382261622
 DE(Corr)= -0.23822613     E(CORR)=     -33.832529573     Delta=-1.11D-07
 NORM(A)=   0.10436686D+01
 Iteration Nr.  12
 **********************
 DD1Dir will call FoFMem   1 times, MxPair=        72
 NAB=    36 NAA=     0 NBB=     0.
 A-vector RMS=  5.6820838D-08 Max=  2.0441342D-07 conv= 1.00D-05.
 RLE energy=       -0.2382261891
 DE(Corr)= -0.23822618     E(CORR)=     -33.832529619     Delta=-4.67D-08
 NORM(A)=   0.10436687D+01
 CI/CC converged in   12 iterations to DelEn=-4.67D-08 Conv= 1.00D-07 ErrA1= 5.68D-08 Conv= 1.00D-05
 Wavefunction amplitudes converged. E(Corr)=     -33.832529619    
 Largest amplitude= 5.00D-02
 IPart=  2 IA=    2   12.50% done.
 IPart=  3 IA=    3   24.17% done.
 IPart=  4 IA=    4   35.00% done.
 IPart=  3 IA=    5   45.00% done.
 IPart=  2 IA=    6   54.17% done.
 IPart=  4 IA=    7   62.50% done.
 IPart=  1 IA=    8   70.00% done.
 IPart=  2 IA=   10   82.50% done.
 IPart=  3 IA=   12   91.67% done.
 Time for triples=        0.27 seconds.
 T4(CCSD)= -0.38322758D-02
 T5(CCSD)=  0.60355753D-03
 CCSD(T)= -0.33835758338D+02
 Discarding MO integrals.
 Leave Link  913 at Sun Dec 10 06:19:24 2023, MaxMem=   536870912 cpu:               1.1 elap:               0.3
 (Enter /usr/site/hpc/x86_64/glibc-2.17/broadwell/gaussian/g16_a.03/pgi-16.5/g16/l601.exe)
 Copying SCF densities to generalized density rwf, IOpCl= 0 IROHF=0.

 **********************************************************************

            Population analysis using the SCF density.

 **********************************************************************

 Orbital symmetries:
       Occupied  (A') (A') (A') (A') (A") (A') (A') (A")
       Virtual   (A') (A') (A') (A') (A") (A') (A') (A") (A') (A')
                 (A') (A') (A') (A') (A') (A')
 The electronic state is 1-A'.
 Alpha  occ. eigenvalues --   -1.46245  -1.26562  -0.82436  -0.76351  -0.59132
 Alpha  occ. eigenvalues --   -0.54862  -0.43311  -0.40535
 Alpha virt. eigenvalues --    0.16508   0.24670   0.30461   0.62435   0.73282
 Alpha virt. eigenvalues --    0.73835   0.87713   0.92029   0.92211   1.03903
 Alpha virt. eigenvalues --    1.12610   1.19224   1.31064   1.39920   2.97409
 Alpha virt. eigenvalues --    4.59073
          Condensed to atoms (all electrons):
               1          2          3          4          5          6
     1  O    6.277045   0.469859   0.266599  -0.273993   0.002545   0.003138
     2  H    0.469859   0.637606  -0.058018  -0.366568   0.024704   0.020965
     3  H    0.266599  -0.058018   0.451065   0.025464  -0.000011  -0.000856
     4  O   -0.273993  -0.366568   0.025464   6.899179   0.237755   0.246905
     5  H    0.002545   0.024704  -0.000011   0.237755   0.304909  -0.015266
     6  H    0.003138   0.020965  -0.000856   0.246905  -0.015266   0.263755
 Mulliken charges:
               1
     1  O   -0.745193
     2  H    0.271453
     3  H    0.315757
     4  O   -0.768741
     5  H    0.445364
     6  H    0.481360
 Sum of Mulliken charges =  -0.00000
 Mulliken charges with hydrogens summed into heavy atoms:
               1
     1  O   -0.157983
     4  O    0.157983
 Electronic spatial extent (au):  <R**2>=            104.2006
 Charge=             -0.0000 electrons
 Dipole moment (field-independent basis, Debye):
    X=             -1.1245    Y=             -5.6437    Z=              0.0000  Tot=              5.7547
 Quadrupole moment (field-independent basis, Debye-Ang):
   XX=             -9.3564   YY=            -10.6655   ZZ=            -14.9211
   XY=             -3.4350   XZ=              0.0000   YZ=             -0.0000
 Traceless Quadrupole moment (field-independent basis, Debye-Ang):
   XX=              2.2912   YY=              0.9822   ZZ=             -3.2734
   XY=             -3.4350   XZ=              0.0000   YZ=             -0.0000
 Octapole moment (field-independent basis, Debye-Ang**2):
  XXX=              0.0973  YYY=            -19.0776  ZZZ=              0.0000  XYY=             -5.7029
  XXY=             -3.3118  XXZ=              0.0000  XZZ=             -0.2144  YZZ=             -1.4889
  YYZ=              0.0000  XYZ=              0.0000
 Hexadecapole moment (field-independent basis, Debye-Ang**3):
 XXXX=            -11.3400 YYYY=            -88.9829 ZZZZ=            -12.2387 XXXY=             -2.0675
 XXXZ=              0.0000 YYYX=             -1.6636 YYYZ=              0.0000 ZZZX=             -0.0000
 ZZZY=              0.0000 XXYY=            -12.7237 XXZZ=             -4.5361 YYZZ=            -21.7003
 XXYZ=              0.0000 YYXZ=              0.0000 ZZXY=              0.4924
 N-N= 3.008089175199D+01 E-N=-1.421665792314D+02  KE= 2.740484649056D+01
 Symmetry A'   KE= 1.861347342897D+01
 Symmetry A"   KE= 8.791373061598D+00
 Leave Link  601 at Sun Dec 10 06:19:24 2023, MaxMem=   536870912 cpu:               0.1 elap:               0.0
 (Enter /usr/site/hpc/x86_64/glibc-2.17/broadwell/gaussian/g16_a.03/pgi-16.5/g16/l9999.exe)
 1\1\GINC-N044\SP\RCCSD(T)-FC\CEP-31G\H4O2\ROOT\10-Dec-2023\0\\#p CCSD(
 T)/CEP-31G\\H2O_H2O_70\\0,1\O,0,0.,-0.009833,0.\H,0,-0.799571,-0.58096
 5,0.\H,0,0.799571,-0.580965,0.\O,0,-1.702741,-1.212024,0.\H,0,-2.46135
 6,-0.587518,0.\H,0,-2.047468,-2.132171,0.\\Version=ES64L-G16RevA.03\St
 ate=1-A'\HF=-33.5943034\MP2=-33.8212329\MP3=-33.8242881\MP4D=-33.82898
 2\MP4DQ=-33.8295881\MP4SDQ=-33.8319298\CCSD=-33.8325296\CCSD(T)=-33.83
 57583\RMSD=6.153e-09\PG=CS [SG(H4O2)]\\@



 IN THIS SHORT LIFE

 THAT ONLY LASTS AN HOUR

 HOW MUCH, HOW LITTLE, IS WITHIN OUR POWER....


 EMILY DICKINSON BOLTS OF MELODY NO. 521
 Job cpu time:       0 days  0 hours  0 minutes  3.7 seconds.
 Elapsed time:       0 days  0 hours  0 minutes  1.0 seconds.
 File lengths (MBytes):  RWF=     72 Int=      0 D2E=      0 Chk=      8 Scr=      8
 Normal termination of Gaussian 16 at Sun Dec 10 06:19:24 2023.
