 Entering Gaussian System, Link 0=g16
 Input=H2O_H2O_1716.com
 Output=H2O_H2O_1716.log
 Initial command:
 /usr/site/hpc/x86_64/glibc-2.17/broadwell/gaussian/g16_a.03/pgi-16.5/g16/l1.exe "/gpfs/gpfs1/scratch/c7441090/OH Coord/Gau-1690158.inp" -scrdir="/gpfs/gpfs1/scratch/c7441090/OH Coord/"
 Entering Link 1 = /usr/site/hpc/x86_64/glibc-2.17/broadwell/gaussian/g16_a.03/pgi-16.5/g16/l1.exe PID=   1690159.
  
 Copyright (c) 1988,1990,1992,1993,1995,1998,2003,2009,2016,
            Gaussian, Inc.  All Rights Reserved.
  
 This is part of the Gaussian(R) 16 program.  It is based on
 the Gaussian(R) 09 system (copyright 2009, Gaussian, Inc.),
 the Gaussian(R) 03 system (copyright 2003, Gaussian, Inc.),
 the Gaussian(R) 98 system (copyright 1998, Gaussian, Inc.),
 the Gaussian(R) 94 system (copyright 1995, Gaussian, Inc.),
 the Gaussian 92(TM) system (copyright 1992, Gaussian, Inc.),
 the Gaussian 90(TM) system (copyright 1990, Gaussian, Inc.),
 the Gaussian 88(TM) system (copyright 1988, Gaussian, Inc.),
 the Gaussian 86(TM) system (copyright 1986, Carnegie Mellon
 University), and the Gaussian 82(TM) system (copyright 1983,
 Carnegie Mellon University). Gaussian is a federally registered
 trademark of Gaussian, Inc.
  
 This software contains proprietary and confidential information,
 including trade secrets, belonging to Gaussian, Inc.
  
 This software is provided under written license and may be
 used, copied, transmitted, or stored only in accord with that
 written license.
  
 The following legend is applicable only to US Government
 contracts under FAR:
  
                    RESTRICTED RIGHTS LEGEND
  
 Use, reproduction and disclosure by the US Government is
 subject to restrictions as set forth in subparagraphs (a)
 and (c) of the Commercial Computer Software - Restricted
 Rights clause in FAR 52.227-19.
  
 Gaussian, Inc.
 340 Quinnipiac St., Bldg. 40, Wallingford CT 06492
  
  
 ---------------------------------------------------------------
 Warning -- This program may not be used in any manner that
 competes with the business of Gaussian, Inc. or will provide
 assistance to any competitor of Gaussian, Inc.  The licensee
 of this program is prohibited from giving any competitor of
 Gaussian, Inc. access to this program.  By using this program,
 the user acknowledges that Gaussian, Inc. is engaged in the
 business of creating and licensing software in the field of
 computational chemistry and represents and warrants to the
 licensee that it is not a competitor of Gaussian, Inc. and that
 it will not use this program in any manner prohibited above.
 ---------------------------------------------------------------
  

 Cite this work as:
 Gaussian 16, Revision A.03,
 M. J. Frisch, G. W. Trucks, H. B. Schlegel, G. E. Scuseria, 
 M. A. Robb, J. R. Cheeseman, G. Scalmani, V. Barone, 
 G. A. Petersson, H. Nakatsuji, X. Li, M. Caricato, A. V. Marenich, 
 J. Bloino, B. G. Janesko, R. Gomperts, B. Mennucci, H. P. Hratchian, 
 J. V. Ortiz, A. F. Izmaylov, J. L. Sonnenberg, D. Williams-Young, 
 F. Ding, F. Lipparini, F. Egidi, J. Goings, B. Peng, A. Petrone, 
 T. Henderson, D. Ranasinghe, V. G. Zakrzewski, J. Gao, N. Rega, 
 G. Zheng, W. Liang, M. Hada, M. Ehara, K. Toyota, R. Fukuda, 
 J. Hasegawa, M. Ishida, T. Nakajima, Y. Honda, O. Kitao, H. Nakai, 
 T. Vreven, K. Throssell, J. A. Montgomery, Jr., J. E. Peralta, 
 F. Ogliaro, M. J. Bearpark, J. J. Heyd, E. N. Brothers, K. N. Kudin, 
 V. N. Staroverov, T. A. Keith, R. Kobayashi, J. Normand, 
 K. Raghavachari, A. P. Rendell, J. C. Burant, S. S. Iyengar, 
 J. Tomasi, M. Cossi, J. M. Millam, M. Klene, C. Adamo, R. Cammi, 
 J. W. Ochterski, R. L. Martin, K. Morokuma, O. Farkas, 
 J. B. Foresman, and D. J. Fox, Gaussian, Inc., Wallingford CT, 2016.
 
 ******************************************
 Gaussian 16:  ES64L-G16RevA.03 25-Dec-2016
                10-Dec-2023 
 ******************************************
 %NProcShared=4
 Will use up to    4 processors via shared memory.
 %Mem=4GB
 %Chk=H2O_H2O_1716.chk
 ------------------
 #p CCSD(T)/CEP-31G
 ------------------
 1/38=1,172=1/1;
 2/12=2,17=6,18=5,40=1/2;
 3/5=9,6=1,11=9,25=1,30=1/1,2,3;
 4//1;
 5/5=2,38=5/2;
 8/6=4,9=120000,10=1/1,4;
 9/5=7,14=2/13;
 6/7=2,8=2,9=2,10=2/1;
 99/5=1,9=1/99;
 Leave Link    1 at Sun Dec 10 06:51:16 2023, MaxMem=   536870912 cpu:               0.2 elap:               0.1
 (Enter /usr/site/hpc/x86_64/glibc-2.17/broadwell/gaussian/g16_a.03/pgi-16.5/g16/l101.exe)
 ------------
 H2O_H2O_1716
 ------------
 Symbolic Z-matrix:
 Charge =  0 Multiplicity = 1
 O                     0.       -0.00983   0. 
 H                    -0.79957  -0.58097   0. 
 H                     0.79957  -0.58097   0. 
 O                    -2.77287  -1.97949   0. 
 H                    -3.66727  -1.5726    0. 
 H                    -2.8677   -2.9575    0. 
 
 ITRead=  0  0  0  0  0  0
 MicOpt= -1 -1 -1 -1 -1 -1
 NAtoms=      6 NQM=        6 NQMF=       0 NMMI=      0 NMMIF=      0
                NMic=       0 NMicF=      0.
                    Isotopes and Nuclear Properties:
 (Nuclear quadrupole moments (NQMom) in fm**2, nuclear magnetic moments (NMagM)
  in nuclear magnetons)

  Atom         1           2           3           4           5           6
 IAtWgt=          16           1           1          16           1           1
 AtmWgt=  15.9949146   1.0078250   1.0078250  15.9949146   1.0078250   1.0078250
 NucSpn=           0           1           1           0           1           1
 AtZEff=  -0.0000000  -0.0000000  -0.0000000  -0.0000000  -0.0000000  -0.0000000
 NQMom=    0.0000000   0.0000000   0.0000000   0.0000000   0.0000000   0.0000000
 NMagM=    0.0000000   2.7928460   2.7928460   0.0000000   2.7928460   2.7928460
 AtZNuc=   8.0000000   1.0000000   1.0000000   8.0000000   1.0000000   1.0000000
 Leave Link  101 at Sun Dec 10 06:51:16 2023, MaxMem=   536870912 cpu:               0.3 elap:               0.1
 (Enter /usr/site/hpc/x86_64/glibc-2.17/broadwell/gaussian/g16_a.03/pgi-16.5/g16/l202.exe)
                          Input orientation:                          
 ---------------------------------------------------------------------
 Center     Atomic      Atomic             Coordinates (Angstroms)
 Number     Number       Type             X           Y           Z
 ---------------------------------------------------------------------
      1          8           0        0.000000   -0.009833    0.000000
      2          1           0       -0.799571   -0.580965    0.000000
      3          1           0        0.799571   -0.580965    0.000000
      4          8           0       -2.772866   -1.979485    0.000000
      5          1           0       -3.667266   -1.572602    0.000000
      6          1           0       -2.867695   -2.957501    0.000000
 ---------------------------------------------------------------------
                    Distance matrix (angstroms):
                    1          2          3          4          5
     1  O    0.000000
     2  H    0.982601   0.000000
     3  H    0.982601   1.599142   0.000000
     4  O    3.401223   2.418626   3.836426   0.000000
     5  H    3.986363   3.034307   4.575585   0.982601   0.000000
     6  H    4.112471   3.150406   4.369984   0.982603   1.599143
                    6
     6  H    0.000000
 Stoichiometry    H4O2
 Framework group  CS[SG(H4O2)]
 Deg. of freedom     9
 Full point group                 CS      NOp   2
 Largest Abelian subgroup         CS      NOp   2
 Largest concise Abelian subgroup C1      NOp   1
                         Standard orientation:                         
 ---------------------------------------------------------------------
 Center     Atomic      Atomic             Coordinates (Angstroms)
 Number     Number       Type             X           Y           Z
 ---------------------------------------------------------------------
      1          8           0        0.041200    1.790547   -0.000000
      2          1           0        0.038614    0.807949   -0.000000
      3          1           0       -0.887451    2.111658    0.000000
      4          8           0        0.041200   -1.610676   -0.000000
      5          1           0        0.890861   -2.104214   -0.000000
      6          1           0       -0.701218   -2.254356    0.000000
 ---------------------------------------------------------------------
 Rotational constants (GHZ):         241.4877900           4.7013850           4.6116044
 Leave Link  202 at Sun Dec 10 06:51:16 2023, MaxMem=   536870912 cpu:               0.1 elap:               0.0
 (Enter /usr/site/hpc/x86_64/glibc-2.17/broadwell/gaussian/g16_a.03/pgi-16.5/g16/l301.exe)
 Standard basis: CEP-31G (6D, 10F)
 Ernie: Thresh=  0.10000D-02 Tol=  0.10000D-05 Strict=F.
 There are    20 symmetry adapted cartesian basis functions of A'  symmetry.
 There are     4 symmetry adapted cartesian basis functions of A"  symmetry.
 There are    20 symmetry adapted basis functions of A'  symmetry.
 There are     4 symmetry adapted basis functions of A"  symmetry.
    24 basis functions,    48 primitive gaussians,    24 cartesian basis functions
     8 alpha electrons        8 beta electrons
       nuclear repulsion energy        23.4760122130 Hartrees.
 IExCor=    0 DFT=F Ex=HF Corr=None ExCW=0 ScaHFX=  1.000000
 ScaDFX=  1.000000  1.000000  1.000000  1.000000 ScalE2=  1.000000  1.000000
 IRadAn=      5 IRanWt=     -1 IRanGd=            0 ICorTp=0 IEmpDi=  4
 NAtoms=    6 NActive=    6 NUniq=    6 SFac= 1.00D+00 NAtFMM=   60 NAOKFM=F Big=F
 Integral buffers will be    131072 words long.
 Raffenetti 1 integral format.
 Two-electron integral symmetry is turned on.
 Leave Link  301 at Sun Dec 10 06:51:16 2023, MaxMem=   536870912 cpu:               0.2 elap:               0.1
 (Enter /usr/site/hpc/x86_64/glibc-2.17/broadwell/gaussian/g16_a.03/pgi-16.5/g16/l302.exe)
 NPDir=0 NMtPBC=     1 NCelOv=     1 NCel=       1 NClECP=     1 NCelD=      1
         NCelK=      1 NCelE2=     1 NClLst=     1 CellRange=     0.0.
 One-electron integrals computed using PRISM.
 One-electron integral symmetry used in STVInt
   2 Symmetry operations used in ECPInt.
 ECPInt:  NShTT=      78 NPrTT=     318 LenC2=      79 LenP2D=     286.
 LDataN:  DoStor=T MaxTD1= 2 Len=   12
 NBasis=    24 RedAO= T EigKep=  3.00D-02  NBF=    20     4
 NBsUse=    24 1.00D-06 EigRej= -1.00D+00 NBFU=    20     4
 Leave Link  302 at Sun Dec 10 06:51:16 2023, MaxMem=   536870912 cpu:               0.3 elap:               0.1
 (Enter /usr/site/hpc/x86_64/glibc-2.17/broadwell/gaussian/g16_a.03/pgi-16.5/g16/l303.exe)
 DipDrv:  MaxL=1.
 Leave Link  303 at Sun Dec 10 06:51:17 2023, MaxMem=   536870912 cpu:               0.1 elap:               0.0
 (Enter /usr/site/hpc/x86_64/glibc-2.17/broadwell/gaussian/g16_a.03/pgi-16.5/g16/l401.exe)
 ExpMin= 1.78D-01 ExpMax= 1.92D+01 ExpMxC= 1.92D+01 IAcc=3 IRadAn=         5 AccDes= 0.00D+00
 Harris functional with IExCor=  205 and IRadAn=       5 diagonalized for initial guess.
 HarFok:  IExCor=  205 AccDes= 0.00D+00 IRadAn=         5 IDoV= 1 UseB2=F ITyADJ=14
 ICtDFT=  3500011 ScaDFX=  1.000000  1.000000  1.000000  1.000000
 FoFCou: FMM=F IPFlag=           0 FMFlag=      100000 FMFlg1=           0
         NFxFlg=           0 DoJE=T BraDBF=F KetDBF=T FulRan=T
         wScrn=  0.000000 ICntrl=       500 IOpCl=  0 I1Cent=   200000004 NGrid=           0
         NMat0=    1 NMatS0=      1 NMatT0=    0 NMatD0=    1 NMtDS0=    0 NMtDT0=    0
 Petite list used in FoFCou.
 Harris En= -34.4795688510364    
 JPrj=0 DoOrth=F DoCkMO=F.
 Initial guess orbital symmetries:
       Occupied  (A') (A') (A') (A') (A') (A') (A") (A")
       Virtual   (A') (A') (A') (A') (A") (A') (A") (A') (A') (A')
                 (A') (A') (A') (A') (A') (A')
 The electronic state of the initial guess is 1-A'.
 Leave Link  401 at Sun Dec 10 06:51:17 2023, MaxMem=   536870912 cpu:               0.4 elap:               0.1
 (Enter /usr/site/hpc/x86_64/glibc-2.17/broadwell/gaussian/g16_a.03/pgi-16.5/g16/l502.exe)
 Keep R1 ints in memory in symmetry-blocked form, NReq=852478.
 FoFCou: FMM=F IPFlag=           0 FMFlag=           0 FMFlg1=           0
         NFxFlg=           0 DoJE=F BraDBF=F KetDBF=F FulRan=T
         wScrn=  0.000000 ICntrl=       600 IOpCl=  0 I1Cent=           0 NGrid=           0
         NMat0=    1 NMatS0=    300 NMatT0=    0 NMatD0=    1 NMtDS0=    0 NMtDT0=    0
 Petite list used in FoFCou.
 Closed shell SCF:
 Using DIIS extrapolation, IDIIS=  1040.
 NGot=   536870912 LenX=   536840576 LenY=   536839559
 Requested convergence on RMS density matrix=1.00D-08 within 128 cycles.
 Requested convergence on MAX density matrix=1.00D-06.
 Requested convergence on             energy=1.00D-06.
 No special actions if energy rises.

 Cycle   1  Pass 1  IDiag  1:
 E= -33.5722373721810    
 DIIS: error= 6.25D-02 at cycle   1 NSaved=   1.
 NSaved= 1 IEnMin= 1 EnMin= -33.5722373721810     IErMin= 1 ErrMin= 6.25D-02
 ErrMax= 6.25D-02  0.00D+00 EMaxC= 1.00D-01 BMatC= 9.68D-02 BMatP= 9.68D-02
 IDIUse=3 WtCom= 3.75D-01 WtEn= 6.25D-01
 Coeff-Com:  0.100D+01
 Coeff-En:   0.100D+01
 Coeff:      0.100D+01
 Gap=     0.588 Goal=   None    Shift=    0.000
 GapD=    0.588 DampG=2.000 DampE=0.500 DampFc=1.0000 IDamp=-1.
 RMSDP=1.44D-02 MaxDP=1.19D-01              OVMax= 9.50D-02

 Cycle   2  Pass 1  IDiag  1:
 E= -33.6314761066092     Delta-E=       -0.059238734428 Rises=F Damp=F
 DIIS: error= 3.55D-02 at cycle   2 NSaved=   2.
 NSaved= 2 IEnMin= 2 EnMin= -33.6314761066092     IErMin= 2 ErrMin= 3.55D-02
 ErrMax= 3.55D-02  0.00D+00 EMaxC= 1.00D-01 BMatC= 3.50D-02 BMatP= 9.68D-02
 IDIUse=3 WtCom= 6.45D-01 WtEn= 3.55D-01
 Coeff-Com:  0.373D+00 0.627D+00
 Coeff-En:   0.998D-01 0.900D+00
 Coeff:      0.276D+00 0.724D+00
 Gap=     0.659 Goal=   None    Shift=    0.000
 RMSDP=6.10D-03 MaxDP=5.26D-02 DE=-5.92D-02 OVMax= 3.44D-02

 Cycle   3  Pass 1  IDiag  1:
 E= -33.6594375750764     Delta-E=       -0.027961468467 Rises=F Damp=F
 DIIS: error= 6.44D-03 at cycle   3 NSaved=   3.
 NSaved= 3 IEnMin= 3 EnMin= -33.6594375750764     IErMin= 3 ErrMin= 6.44D-03
 ErrMax= 6.44D-03  0.00D+00 EMaxC= 1.00D-01 BMatC= 8.12D-04 BMatP= 3.50D-02
 IDIUse=3 WtCom= 9.36D-01 WtEn= 6.44D-02
 Coeff-Com: -0.111D+00-0.165D-01 0.113D+01
 Coeff-En:   0.000D+00 0.000D+00 0.100D+01
 Coeff:     -0.104D+00-0.154D-01 0.112D+01
 Gap=     0.652 Goal=   None    Shift=    0.000
 RMSDP=1.01D-03 MaxDP=8.80D-03 DE=-2.80D-02 OVMax= 7.51D-03

 Cycle   4  Pass 1  IDiag  1:
 E= -33.6602329125214     Delta-E=       -0.000795337445 Rises=F Damp=F
 DIIS: error= 6.38D-04 at cycle   4 NSaved=   4.
 NSaved= 4 IEnMin= 4 EnMin= -33.6602329125214     IErMin= 4 ErrMin= 6.38D-04
 ErrMax= 6.38D-04  0.00D+00 EMaxC= 1.00D-01 BMatC= 4.76D-06 BMatP= 8.12D-04
 IDIUse=3 WtCom= 9.94D-01 WtEn= 6.38D-03
 Coeff-Com:  0.405D-01-0.163D-01-0.504D+00 0.148D+01
 Coeff-En:   0.000D+00 0.000D+00 0.000D+00 0.100D+01
 Coeff:      0.403D-01-0.162D-01-0.501D+00 0.148D+01
 Gap=     0.654 Goal=   None    Shift=    0.000
 RMSDP=2.21D-04 MaxDP=1.72D-03 DE=-7.95D-04 OVMax= 1.05D-03

 Cycle   5  Pass 1  IDiag  1:
 E= -33.6602439392275     Delta-E=       -0.000011026706 Rises=F Damp=F
 DIIS: error= 5.30D-05 at cycle   5 NSaved=   5.
 NSaved= 5 IEnMin= 5 EnMin= -33.6602439392275     IErMin= 5 ErrMin= 5.30D-05
 ErrMax= 5.30D-05  0.00D+00 EMaxC= 1.00D-01 BMatC= 4.03D-08 BMatP= 4.76D-06
 IDIUse=1 WtCom= 1.00D+00 WtEn= 0.00D+00
 Coeff-Com: -0.533D-02 0.232D-02 0.673D-01-0.249D+00 0.118D+01
 Coeff:     -0.533D-02 0.232D-02 0.673D-01-0.249D+00 0.118D+01
 Gap=     0.654 Goal=   None    Shift=    0.000
 RMSDP=1.71D-05 MaxDP=1.84D-04 DE=-1.10D-05 OVMax= 1.04D-04

 Cycle   6  Pass 1  IDiag  1:
 E= -33.6602440286578     Delta-E=       -0.000000089430 Rises=F Damp=F
 DIIS: error= 1.23D-05 at cycle   6 NSaved=   6.
 NSaved= 6 IEnMin= 6 EnMin= -33.6602440286578     IErMin= 6 ErrMin= 1.23D-05
 ErrMax= 1.23D-05  0.00D+00 EMaxC= 1.00D-01 BMatC= 4.95D-09 BMatP= 4.03D-08
 IDIUse=1 WtCom= 1.00D+00 WtEn= 0.00D+00
 Coeff-Com: -0.273D-02 0.120D-02 0.344D-01-0.113D+00 0.270D+00 0.810D+00
 Coeff:     -0.273D-02 0.120D-02 0.344D-01-0.113D+00 0.270D+00 0.810D+00
 Gap=     0.654 Goal=   None    Shift=    0.000
 RMSDP=3.31D-06 MaxDP=2.99D-05 DE=-8.94D-08 OVMax= 3.06D-05

 Cycle   7  Pass 1  IDiag  1:
 E= -33.6602440351647     Delta-E=       -0.000000006507 Rises=F Damp=F
 DIIS: error= 4.05D-06 at cycle   7 NSaved=   7.
 NSaved= 7 IEnMin= 7 EnMin= -33.6602440351647     IErMin= 7 ErrMin= 4.05D-06
 ErrMax= 4.05D-06  0.00D+00 EMaxC= 1.00D-01 BMatC= 4.94D-10 BMatP= 4.95D-09
 IDIUse=1 WtCom= 1.00D+00 WtEn= 0.00D+00
 Coeff-Com:  0.890D-03-0.360D-03-0.112D-01 0.404D-01-0.181D+00-0.346D-01
 Coeff-Com:  0.119D+01
 Coeff:      0.890D-03-0.360D-03-0.112D-01 0.404D-01-0.181D+00-0.346D-01
 Coeff:      0.119D+01
 Gap=     0.654 Goal=   None    Shift=    0.000
 RMSDP=1.77D-06 MaxDP=1.66D-05 DE=-6.51D-09 OVMax= 1.58D-05

 Cycle   8  Pass 1  IDiag  1:
 E= -33.6602440363014     Delta-E=       -0.000000001137 Rises=F Damp=F
 DIIS: error= 9.18D-07 at cycle   8 NSaved=   8.
 NSaved= 8 IEnMin= 8 EnMin= -33.6602440363014     IErMin= 8 ErrMin= 9.18D-07
 ErrMax= 9.18D-07  0.00D+00 EMaxC= 1.00D-01 BMatC= 1.82D-11 BMatP= 4.94D-10
 IDIUse=1 WtCom= 1.00D+00 WtEn= 0.00D+00
 Coeff-Com: -0.563D-05-0.201D-04 0.142D-04-0.640D-03 0.202D-01-0.369D-01
 Coeff-Com: -0.254D+00 0.127D+01
 Coeff:     -0.563D-05-0.201D-04 0.142D-04-0.640D-03 0.202D-01-0.369D-01
 Coeff:     -0.254D+00 0.127D+01
 Gap=     0.654 Goal=   None    Shift=    0.000
 RMSDP=4.21D-07 MaxDP=2.93D-06 DE=-1.14D-09 OVMax= 3.79D-06

 Cycle   9  Pass 1  IDiag  1:
 E= -33.6602440363512     Delta-E=       -0.000000000050 Rises=F Damp=F
 DIIS: error= 1.53D-07 at cycle   9 NSaved=   9.
 NSaved= 9 IEnMin= 9 EnMin= -33.6602440363512     IErMin= 9 ErrMin= 1.53D-07
 ErrMax= 1.53D-07  0.00D+00 EMaxC= 1.00D-01 BMatC= 5.52D-13 BMatP= 1.82D-11
 IDIUse=1 WtCom= 1.00D+00 WtEn= 0.00D+00
 Coeff-Com:  0.611D-05 0.521D-05-0.480D-04 0.272D-03-0.642D-02 0.139D-01
 Coeff-Com:  0.825D-01-0.499D+00 0.141D+01
 Coeff:      0.611D-05 0.521D-05-0.480D-04 0.272D-03-0.642D-02 0.139D-01
 Coeff:      0.825D-01-0.499D+00 0.141D+01
 Gap=     0.654 Goal=   None    Shift=    0.000
 RMSDP=1.04D-07 MaxDP=4.60D-07 DE=-4.99D-11 OVMax= 7.23D-07

 Cycle  10  Pass 1  IDiag  1:
 E= -33.6602440363529     Delta-E=       -0.000000000002 Rises=F Damp=F
 DIIS: error= 1.47D-08 at cycle  10 NSaved=  10.
 NSaved=10 IEnMin=10 EnMin= -33.6602440363529     IErMin=10 ErrMin= 1.47D-08
 ErrMax= 1.47D-08  0.00D+00 EMaxC= 1.00D-01 BMatC= 7.89D-15 BMatP= 5.52D-13
 IDIUse=1 WtCom= 1.00D+00 WtEn= 0.00D+00
 Coeff-Com:  0.447D-06-0.177D-05-0.116D-04 0.278D-04 0.966D-03-0.309D-02
 Coeff-Com: -0.149D-01 0.101D+00-0.386D+00 0.130D+01
 Coeff:      0.447D-06-0.177D-05-0.116D-04 0.278D-04 0.966D-03-0.309D-02
 Coeff:     -0.149D-01 0.101D+00-0.386D+00 0.130D+01
 Gap=     0.654 Goal=   None    Shift=    0.000
 RMSDP=1.57D-08 MaxDP=7.71D-08 DE=-1.61D-12 OVMax= 1.02D-07

 Cycle  11  Pass 1  IDiag  1:
 E= -33.6602440363528     Delta-E=        0.000000000000 Rises=F Damp=F
 DIIS: error= 1.17D-09 at cycle  11 NSaved=  11.
 NSaved=11 IEnMin=10 EnMin= -33.6602440363529     IErMin=11 ErrMin= 1.17D-09
 ErrMax= 1.17D-09  0.00D+00 EMaxC= 1.00D-01 BMatC= 4.41D-17 BMatP= 7.89D-15
 IDIUse=1 WtCom= 1.00D+00 WtEn= 0.00D+00
 Coeff-Com: -0.939D-07 0.355D-06 0.234D-05-0.604D-05-0.198D-03 0.635D-03
 Coeff-Com:  0.310D-02-0.213D-01 0.826D-01-0.318D+00 0.125D+01
 Coeff:     -0.939D-07 0.355D-06 0.234D-05-0.604D-05-0.198D-03 0.635D-03
 Coeff:      0.310D-02-0.213D-01 0.826D-01-0.318D+00 0.125D+01
 Gap=     0.654 Goal=   None    Shift=    0.000
 RMSDP=1.06D-09 MaxDP=6.41D-09 DE= 1.42D-14 OVMax= 7.02D-09

 SCF Done:  E(RHF) =  -33.6602440364     A.U. after   11 cycles
            NFock= 11  Conv=0.11D-08     -V/T= 2.2563
 KE= 2.679210202725D+01 PE=-1.286195076662D+02 EE= 4.469114938965D+01
 Leave Link  502 at Sun Dec 10 06:51:17 2023, MaxMem=   536870912 cpu:               0.3 elap:               0.1
 (Enter /usr/site/hpc/x86_64/glibc-2.17/broadwell/gaussian/g16_a.03/pgi-16.5/g16/l801.exe)
 Windowed orbitals will be sorted by symmetry type.
 Range of M.O.s used for correlation:     1    24
 NBasis=    24 NAE=     8 NBE=     8 NFC=     0 NFV=     0
 NROrb=     24 NOA=     8 NOB=     8 NVA=    16 NVB=    16
 Leave Link  801 at Sun Dec 10 06:51:17 2023, MaxMem=   536870912 cpu:               0.1 elap:               0.0
 (Enter /usr/site/hpc/x86_64/glibc-2.17/broadwell/gaussian/g16_a.03/pgi-16.5/g16/l804.exe)
 Closed-shell transformation, MDV=   536870912 ITran=4 ISComp=2.
 Unit  1 TFree=       1025975 TCopy=        210600.
 Semi-Direct transformation.
 ModeAB=           2 MOrb=             8 LenV=     536741775
 LASXX=        22470 LTotXX=       22470 LenRXX=       22470
 LTotAB=       26208 MaxLAS=       57600 LenRXY=       57600
 NonZer=       62208 LenScr=      524288 LnRSAI=           0
 LnScr1=           0 LExtra=           0 Total=       604358
 MaxDsk=          -1 SrtSym=           F ITran=            4
 DoSDTr:  NPSUse=  4
 JobTyp=0 Pass  1:  I=   1 to   8.
 (rs|ai) integrals will be sorted in core.
 Complete sort for first half transformation.
 First half transformation complete.
 Complete sort for second half transformation.
 Second half transformation complete.
 Spin components of T(2) and E(2):
     alpha-alpha T2 =       0.9083658794D-02 E2=     -0.2606837829D-01
     alpha-beta  T2 =       0.5957750489D-01 E2=     -0.1765801314D+00
     beta-beta   T2 =       0.9083658794D-02 E2=     -0.2606837829D-01
 ANorm=    0.1038144895D+01
 E2 =    -0.2287168879D+00 EUMP2 =    -0.33888960924297D+02
 Leave Link  804 at Sun Dec 10 06:51:17 2023, MaxMem=   536870912 cpu:               0.2 elap:               0.1
 (Enter /usr/site/hpc/x86_64/glibc-2.17/broadwell/gaussian/g16_a.03/pgi-16.5/g16/l913.exe)
 CIDS:  MDV=   536870912.
 IFCWin=0 IBDFC=1 NFBD=     0     0 NFCmp=     0     0 NFFFC=     0     0
 Using DD3R+UMP44R for 1st iteration.
 Using DD4RQ for 2nd and later iterations.
 Keep R2 and R3 ints in memory in symmetry-blocked form, NReq=865086.
 FoFCou: FMM=F IPFlag=           0 FMFlag=           0 FMFlg1=           0
         NFxFlg=           0 DoJE=F BraDBF=F KetDBF=F FulRan=T
         wScrn=  0.000000 ICntrl=       600 IOpCl=  0 I1Cent=           0 NGrid=           0
         NMat0=    1 NMatS0=    300 NMatT0=    0 NMatD0=    1 NMtDS0=    0 NMtDT0=    0
 Petite list used in FoFCou.
 CIDS: In Core Option IDoMem=           1.
 CCSD(T)
 =======
 Iterations=  50 Convergence= 0.100D-06
 Produce multiple copies of IABC intergrals
 Iteration Nr.   1
 **********************
 DD1Dir will call FoFMem   1 times, MxPair=        72
 NAB=    36 NAA=     0 NBB=     0.
 MP4(R+Q)= -0.73375402D-03
 Maximum subspace dimension=  5
 A-vector RMS=  5.8542274D-03 Max=  1.2775096D-02 conv= 1.00D-05.
 RLE energy=       -0.2345555216
 E3=       -0.52358878D-02        EUMP3=      -0.33894196812D+02
 E4(DQ)=   -0.58405013D-02        UMP4(DQ)=   -0.33900037313D+02
 E4(SDQ)=  -0.79218908D-02        UMP4(SDQ)=  -0.33902118703D+02
 VARIATIONAL ENERGIES WITH THE FIRST-ORDER WAVEFUNCTION:
 DE(Corr)= -0.23441053     E(Corr)=     -33.894654563    
 NORM(A)=   0.10415079D+01
 Iteration Nr.   2
 **********************
 DD1Dir will call FoFMem   1 times, MxPair=        72
 NAB=    36 NAA=     0 NBB=     0.
 A-vector RMS=  9.6971360D-04 Max=  2.7062889D-03 conv= 1.00D-05.
 RLE energy=       -0.2422966649
 DE(Corr)= -0.24038282     E(CORR)=     -33.900626856     Delta=-5.97D-03
 NORM(A)=   0.10452706D+01
 Iteration Nr.   3
 **********************
 DD1Dir will call FoFMem   1 times, MxPair=        72
 NAB=    36 NAA=     0 NBB=     0.
 A-vector RMS=  3.8216781D-04 Max=  7.7397092D-04 conv= 1.00D-05.
 RLE energy=       -0.2428423366
 DE(Corr)= -0.24239520     E(CORR)=     -33.902639236     Delta=-2.01D-03
 NORM(A)=   0.10458224D+01
 Iteration Nr.   4
 **********************
 DD1Dir will call FoFMem   1 times, MxPair=        72
 NAB=    36 NAA=     0 NBB=     0.
 A-vector RMS=  8.8578261D-05 Max=  2.3024511D-04 conv= 1.00D-05.
 RLE energy=       -0.2428896121
 DE(Corr)= -0.24285486     E(CORR)=     -33.903098895     Delta=-4.60D-04
 NORM(A)=   0.10458901D+01
 Iteration Nr.   5
 **********************
 DD1Dir will call FoFMem   1 times, MxPair=        72
 NAB=    36 NAA=     0 NBB=     0.
 A-vector RMS=  3.8490668D-05 Max=  1.0964260D-04 conv= 1.00D-05.
 RLE energy=       -0.2428889729
 DE(Corr)= -0.24288625     E(CORR)=     -33.903130286     Delta=-3.14D-05
 NORM(A)=   0.10458983D+01
 Iteration Nr.   6
 **********************
 DD1Dir will call FoFMem   1 times, MxPair=        72
 NAB=    36 NAA=     0 NBB=     0.
 A-vector RMS=  1.3853307D-05 Max=  4.8873532D-05 conv= 1.00D-05.
 RLE energy=       -0.2428862768
 DE(Corr)= -0.24288879     E(CORR)=     -33.903132823     Delta=-2.54D-06
 NORM(A)=   0.10459003D+01
 Iteration Nr.   7
 **********************
 DD1Dir will call FoFMem   1 times, MxPair=        72
 NAB=    36 NAA=     0 NBB=     0.
 A-vector RMS=  4.7976994D-06 Max=  1.5273498D-05 conv= 1.00D-05.
 RLE energy=       -0.2428880483
 DE(Corr)= -0.24288838     E(CORR)=     -33.903132417     Delta= 4.06D-07
 NORM(A)=   0.10459019D+01
 Iteration Nr.   8
 **********************
 DD1Dir will call FoFMem   1 times, MxPair=        72
 NAB=    36 NAA=     0 NBB=     0.
 A-vector RMS=  1.5668109D-06 Max=  7.1441361D-06 conv= 1.00D-05.
 RLE energy=       -0.2428879831
 DE(Corr)= -0.24288811     E(CORR)=     -33.903132151     Delta= 2.66D-07
 NORM(A)=   0.10459023D+01
 Iteration Nr.   9
 **********************
 DD1Dir will call FoFMem   1 times, MxPair=        72
 NAB=    36 NAA=     0 NBB=     0.
 A-vector RMS=  4.4563133D-07 Max=  2.5864524D-06 conv= 1.00D-05.
 RLE energy=       -0.2428881701
 DE(Corr)= -0.24288822     E(CORR)=     -33.903132254     Delta=-1.03D-07
 NORM(A)=   0.10459025D+01
 Iteration Nr.  10
 **********************
 DD1Dir will call FoFMem   1 times, MxPair=        72
 NAB=    36 NAA=     0 NBB=     0.
 A-vector RMS=  1.2654441D-07 Max=  6.9434704D-07 conv= 1.00D-05.
 RLE energy=       -0.2428883094
 DE(Corr)= -0.24288828     E(CORR)=     -33.903132321     Delta=-6.76D-08
 NORM(A)=   0.10459026D+01
 CI/CC converged in   10 iterations to DelEn=-6.76D-08 Conv= 1.00D-07 ErrA1= 1.27D-07 Conv= 1.00D-05
 Wavefunction amplitudes converged. E(Corr)=     -33.903132321    
 Largest amplitude= 5.23D-02
 IPart=  4 IA=    2   12.50% done.
 IPart=  2 IA=    3   24.17% done.
 IPart=  3 IA=    4   35.00% done.
 IPart=  3 IA=    5   45.00% done.
 IPart=  2 IA=    6   54.17% done.
 IPart=  4 IA=    7   62.50% done.
 IPart=  1 IA=    8   70.00% done.
 IPart=  2 IA=   10   82.50% done.
 IPart=  4 IA=   12   91.67% done.
 Time for triples=        0.27 seconds.
 T4(CCSD)= -0.31844414D-02
 T5(CCSD)=  0.53841950D-03
 CCSD(T)= -0.33905778343D+02
 Discarding MO integrals.
 Leave Link  913 at Sun Dec 10 06:51:17 2023, MaxMem=   536870912 cpu:               1.0 elap:               0.3
 (Enter /usr/site/hpc/x86_64/glibc-2.17/broadwell/gaussian/g16_a.03/pgi-16.5/g16/l601.exe)
 Copying SCF densities to generalized density rwf, IOpCl= 0 IROHF=0.

 **********************************************************************

            Population analysis using the SCF density.

 **********************************************************************

 Orbital symmetries:
       Occupied  (A') (A') (A') (A') (A') (A') (A") (A")
       Virtual   (A') (A') (A') (A') (A") (A') (A") (A') (A') (A')
                 (A') (A') (A') (A') (A') (A')
 The electronic state is 1-A'.
 Alpha  occ. eigenvalues --   -1.37665  -1.32656  -0.73309  -0.68400  -0.58060
 Alpha  occ. eigenvalues --   -0.52486  -0.52353  -0.47326
 Alpha virt. eigenvalues --    0.18049   0.24679   0.28811   0.37224   0.77703
 Alpha virt. eigenvalues --    0.81597   0.83675   0.86258   0.89784   0.94205
 Alpha virt. eigenvalues --    1.15463   1.19801   1.20936   1.33633   2.50283
 Alpha virt. eigenvalues --    2.93780
          Condensed to atoms (all electrons):
               1          2          3          4          5          6
     1  O    6.242829   0.273631   0.261555  -0.001408   0.000041   0.000030
     2  H    0.273631   0.334368  -0.022981  -0.000871   0.000139   0.000128
     3  H    0.261555  -0.022981   0.402212   0.000189  -0.000001  -0.000005
     4  O   -0.001408  -0.000871   0.000189   6.238134   0.269211   0.267575
     5  H    0.000041   0.000139  -0.000001   0.269211   0.364207  -0.023006
     6  H    0.000030   0.000128  -0.000005   0.267575  -0.023006   0.369797
 Mulliken charges:
               1
     1  O   -0.776679
     2  H    0.415586
     3  H    0.359031
     4  O   -0.772830
     5  H    0.389409
     6  H    0.385483
 Sum of Mulliken charges =   0.00000
 Mulliken charges with hydrogens summed into heavy atoms:
               1
     1  O   -0.002061
     4  O    0.002061
 Electronic spatial extent (au):  <R**2>=            207.9104
 Charge=              0.0000 electrons
 Dipole moment (field-independent basis, Debye):
    X=             -1.8465    Y=             -4.4855    Z=              0.0000  Tot=              4.8507
 Quadrupole moment (field-independent basis, Debye-Ang):
   XX=             -9.3914   YY=             -7.7954   ZZ=            -15.0060
   XY=             -5.1121   XZ=             -0.0000   YZ=              0.0000
 Traceless Quadrupole moment (field-independent basis, Debye-Ang):
   XX=              1.3396   YY=              2.9355   ZZ=             -4.2751
   XY=             -5.1121   XZ=             -0.0000   YZ=              0.0000
 Octapole moment (field-independent basis, Debye-Ang**2):
  XXX=             -1.3119  YYY=            -35.0518  ZZZ=              0.0000  XYY=            -10.1107
  XXY=             -3.9014  XXZ=              0.0000  XZZ=             -0.3452  YZZ=             -0.9076
  YYZ=              0.0000  XYZ=              0.0000
 Hexadecapole moment (field-independent basis, Debye-Ang**3):
 XXXX=            -11.8539 YYYY=           -195.2254 ZZZZ=            -12.2546 XXXY=             -2.3437
 XXXZ=             -0.0000 YYYX=            -19.7427 YYYZ=              0.0000 ZZZX=              0.0000
 ZZZY=             -0.0000 XXYY=            -26.2999 XXZZ=             -4.5600 YYZZ=            -48.5155
 XXYZ=              0.0000 YYXZ=             -0.0000 ZZXY=              0.5775
 N-N= 2.347601221298D+01 E-N=-1.286195076664D+02  KE= 2.679210202725D+01
 Symmetry A'   KE= 1.792831828325D+01
 Symmetry A"   KE= 8.863783744009D+00
 Leave Link  601 at Sun Dec 10 06:51:17 2023, MaxMem=   536870912 cpu:               0.1 elap:               0.0
 (Enter /usr/site/hpc/x86_64/glibc-2.17/broadwell/gaussian/g16_a.03/pgi-16.5/g16/l9999.exe)
 1\1\GINC-N044\SP\RCCSD(T)-FC\CEP-31G\H4O2\ROOT\10-Dec-2023\0\\#p CCSD(
 T)/CEP-31G\\H2O_H2O_1716\\0,1\O,0,0.,-0.009833,0.\H,0,-0.799571,-0.580
 965,0.\H,0,0.799571,-0.580965,0.\O,0,-2.772866,-1.979485,0.\H,0,-3.667
 266,-1.572602,0.\H,0,-2.867695,-2.957501,0.\\Version=ES64L-G16RevA.03\
 State=1-A'\HF=-33.660244\MP2=-33.8889609\MP3=-33.8941968\MP4D=-33.8993
 036\MP4DQ=-33.9000373\MP4SDQ=-33.9021187\CCSD=-33.9031323\CCSD(T)=-33.
 9057783\RMSD=1.064e-09\PG=CS [SG(H4O2)]\\@


 You can't act like a skunk without someone's getting wind of it.
 -- Lorene Workman
 Job cpu time:       0 days  0 hours  0 minutes  3.5 seconds.
 Elapsed time:       0 days  0 hours  0 minutes  1.1 seconds.
 File lengths (MBytes):  RWF=     72 Int=      0 D2E=      0 Chk=      8 Scr=      8
 Normal termination of Gaussian 16 at Sun Dec 10 06:51:17 2023.
