 Entering Gaussian System, Link 0=g16
 Input=H2O_H2O_1923.com
 Output=H2O_H2O_1923.log
 Initial command:
 /usr/site/hpc/x86_64/glibc-2.17/broadwell/gaussian/g16_a.03/pgi-16.5/g16/l1.exe "/gpfs/gpfs1/scratch/c7441090/OH Coord/Gau-1699701.inp" -scrdir="/gpfs/gpfs1/scratch/c7441090/OH Coord/"
 Entering Link 1 = /usr/site/hpc/x86_64/glibc-2.17/broadwell/gaussian/g16_a.03/pgi-16.5/g16/l1.exe PID=   1699702.
  
 Copyright (c) 1988,1990,1992,1993,1995,1998,2003,2009,2016,
            Gaussian, Inc.  All Rights Reserved.
  
 This is part of the Gaussian(R) 16 program.  It is based on
 the Gaussian(R) 09 system (copyright 2009, Gaussian, Inc.),
 the Gaussian(R) 03 system (copyright 2003, Gaussian, Inc.),
 the Gaussian(R) 98 system (copyright 1998, Gaussian, Inc.),
 the Gaussian(R) 94 system (copyright 1995, Gaussian, Inc.),
 the Gaussian 92(TM) system (copyright 1992, Gaussian, Inc.),
 the Gaussian 90(TM) system (copyright 1990, Gaussian, Inc.),
 the Gaussian 88(TM) system (copyright 1988, Gaussian, Inc.),
 the Gaussian 86(TM) system (copyright 1986, Carnegie Mellon
 University), and the Gaussian 82(TM) system (copyright 1983,
 Carnegie Mellon University). Gaussian is a federally registered
 trademark of Gaussian, Inc.
  
 This software contains proprietary and confidential information,
 including trade secrets, belonging to Gaussian, Inc.
  
 This software is provided under written license and may be
 used, copied, transmitted, or stored only in accord with that
 written license.
  
 The following legend is applicable only to US Government
 contracts under FAR:
  
                    RESTRICTED RIGHTS LEGEND
  
 Use, reproduction and disclosure by the US Government is
 subject to restrictions as set forth in subparagraphs (a)
 and (c) of the Commercial Computer Software - Restricted
 Rights clause in FAR 52.227-19.
  
 Gaussian, Inc.
 340 Quinnipiac St., Bldg. 40, Wallingford CT 06492
  
  
 ---------------------------------------------------------------
 Warning -- This program may not be used in any manner that
 competes with the business of Gaussian, Inc. or will provide
 assistance to any competitor of Gaussian, Inc.  The licensee
 of this program is prohibited from giving any competitor of
 Gaussian, Inc. access to this program.  By using this program,
 the user acknowledges that Gaussian, Inc. is engaged in the
 business of creating and licensing software in the field of
 computational chemistry and represents and warrants to the
 licensee that it is not a competitor of Gaussian, Inc. and that
 it will not use this program in any manner prohibited above.
 ---------------------------------------------------------------
  

 Cite this work as:
 Gaussian 16, Revision A.03,
 M. J. Frisch, G. W. Trucks, H. B. Schlegel, G. E. Scuseria, 
 M. A. Robb, J. R. Cheeseman, G. Scalmani, V. Barone, 
 G. A. Petersson, H. Nakatsuji, X. Li, M. Caricato, A. V. Marenich, 
 J. Bloino, B. G. Janesko, R. Gomperts, B. Mennucci, H. P. Hratchian, 
 J. V. Ortiz, A. F. Izmaylov, J. L. Sonnenberg, D. Williams-Young, 
 F. Ding, F. Lipparini, F. Egidi, J. Goings, B. Peng, A. Petrone, 
 T. Henderson, D. Ranasinghe, V. G. Zakrzewski, J. Gao, N. Rega, 
 G. Zheng, W. Liang, M. Hada, M. Ehara, K. Toyota, R. Fukuda, 
 J. Hasegawa, M. Ishida, T. Nakajima, Y. Honda, O. Kitao, H. Nakai, 
 T. Vreven, K. Throssell, J. A. Montgomery, Jr., J. E. Peralta, 
 F. Ogliaro, M. J. Bearpark, J. J. Heyd, E. N. Brothers, K. N. Kudin, 
 V. N. Staroverov, T. A. Keith, R. Kobayashi, J. Normand, 
 K. Raghavachari, A. P. Rendell, J. C. Burant, S. S. Iyengar, 
 J. Tomasi, M. Cossi, J. M. Millam, M. Klene, C. Adamo, R. Cammi, 
 J. W. Ochterski, R. L. Martin, K. Morokuma, O. Farkas, 
 J. B. Foresman, and D. J. Fox, Gaussian, Inc., Wallingford CT, 2016.
 
 ******************************************
 Gaussian 16:  ES64L-G16RevA.03 25-Dec-2016
                10-Dec-2023 
 ******************************************
 %NProcShared=4
 Will use up to    4 processors via shared memory.
 %Mem=4GB
 %Chk=H2O_H2O_1923.chk
 ------------------
 #p CCSD(T)/CEP-31G
 ------------------
 1/38=1,172=1/1;
 2/12=2,17=6,18=5,40=1/2;
 3/5=9,6=1,11=9,25=1,30=1/1,2,3;
 4//1;
 5/5=2,38=5/2;
 8/6=4,9=120000,10=1/1,4;
 9/5=7,14=2/13;
 6/7=2,8=2,9=2,10=2/1;
 99/5=1,9=1/99;
 Leave Link    1 at Sun Dec 10 06:55:10 2023, MaxMem=   536870912 cpu:               0.3 elap:               0.1
 (Enter /usr/site/hpc/x86_64/glibc-2.17/broadwell/gaussian/g16_a.03/pgi-16.5/g16/l101.exe)
 ------------
 H2O_H2O_1923
 ------------
 Symbolic Z-matrix:
 Charge =  0 Multiplicity = 1
 O                     0.       -0.00983   0. 
 H                    -0.79957  -0.58097   0. 
 H                     0.79957  -0.58097   0. 
 O                    -2.90399  -2.06795   0. 
 H                    -3.5262   -1.30744   0. 
 H                    -3.42161  -2.90316   0. 
 
 ITRead=  0  0  0  0  0  0
 MicOpt= -1 -1 -1 -1 -1 -1
 NAtoms=      6 NQM=        6 NQMF=       0 NMMI=      0 NMMIF=      0
                NMic=       0 NMicF=      0.
                    Isotopes and Nuclear Properties:
 (Nuclear quadrupole moments (NQMom) in fm**2, nuclear magnetic moments (NMagM)
  in nuclear magnetons)

  Atom         1           2           3           4           5           6
 IAtWgt=          16           1           1          16           1           1
 AtmWgt=  15.9949146   1.0078250   1.0078250  15.9949146   1.0078250   1.0078250
 NucSpn=           0           1           1           0           1           1
 AtZEff=  -0.0000000  -0.0000000  -0.0000000  -0.0000000  -0.0000000  -0.0000000
 NQMom=    0.0000000   0.0000000   0.0000000   0.0000000   0.0000000   0.0000000
 NMagM=    0.0000000   2.7928460   2.7928460   0.0000000   2.7928460   2.7928460
 AtZNuc=   8.0000000   1.0000000   1.0000000   8.0000000   1.0000000   1.0000000
 Leave Link  101 at Sun Dec 10 06:55:10 2023, MaxMem=   536870912 cpu:               0.3 elap:               0.1
 (Enter /usr/site/hpc/x86_64/glibc-2.17/broadwell/gaussian/g16_a.03/pgi-16.5/g16/l202.exe)
                          Input orientation:                          
 ---------------------------------------------------------------------
 Center     Atomic      Atomic             Coordinates (Angstroms)
 Number     Number       Type             X           Y           Z
 ---------------------------------------------------------------------
      1          8           0        0.000000   -0.009833    0.000000
      2          1           0       -0.799571   -0.580965    0.000000
      3          1           0        0.799571   -0.580965    0.000000
      4          8           0       -2.903993   -2.067950    0.000000
      5          1           0       -3.526197   -1.307444    0.000000
      6          1           0       -3.421608   -2.903163    0.000000
 ---------------------------------------------------------------------
                    Distance matrix (angstroms):
                    1          2          3          4          5
     1  O    0.000000
     2  H    0.982601   0.000000
     3  H    0.982601   1.599142   0.000000
     4  O    3.559357   2.576765   3.990929   0.000000
     5  H    3.757374   2.821748   4.386347   0.982602   0.000000
     6  H    4.480933   3.502525   4.817775   0.982602   1.599143
                    6
     6  H    0.000000
 Stoichiometry    H4O2
 Framework group  CS[SG(H4O2)]
 Deg. of freedom     9
 Full point group                 CS      NOp   2
 Largest Abelian subgroup         CS      NOp   2
 Largest concise Abelian subgroup C1      NOp   1
                         Standard orientation:                         
 ---------------------------------------------------------------------
 Center     Atomic      Atomic             Coordinates (Angstroms)
 Number     Number       Type             X           Y           Z
 ---------------------------------------------------------------------
      1          8           0       -0.016691    1.861360    0.000000
      2          1           0       -0.013052    0.878766    0.000000
      3          1           0        0.911615    2.183467    0.000000
      4          8           0       -0.016691   -1.697997    0.000000
      5          1           0       -0.996945   -1.765892    0.000000
      6          1           0        0.365440   -2.603249    0.000000
 ---------------------------------------------------------------------
 Rotational constants (GHZ):         264.0406968           4.3154392           4.2460426
 Leave Link  202 at Sun Dec 10 06:55:10 2023, MaxMem=   536870912 cpu:               0.1 elap:               0.0
 (Enter /usr/site/hpc/x86_64/glibc-2.17/broadwell/gaussian/g16_a.03/pgi-16.5/g16/l301.exe)
 Standard basis: CEP-31G (6D, 10F)
 Ernie: Thresh=  0.10000D-02 Tol=  0.10000D-05 Strict=F.
 There are    20 symmetry adapted cartesian basis functions of A'  symmetry.
 There are     4 symmetry adapted cartesian basis functions of A"  symmetry.
 There are    20 symmetry adapted basis functions of A'  symmetry.
 There are     4 symmetry adapted basis functions of A"  symmetry.
    24 basis functions,    48 primitive gaussians,    24 cartesian basis functions
     8 alpha electrons        8 beta electrons
       nuclear repulsion energy        23.0896057303 Hartrees.
 IExCor=    0 DFT=F Ex=HF Corr=None ExCW=0 ScaHFX=  1.000000
 ScaDFX=  1.000000  1.000000  1.000000  1.000000 ScalE2=  1.000000  1.000000
 IRadAn=      5 IRanWt=     -1 IRanGd=            0 ICorTp=0 IEmpDi=  4
 NAtoms=    6 NActive=    6 NUniq=    6 SFac= 1.00D+00 NAtFMM=   60 NAOKFM=F Big=F
 Integral buffers will be    131072 words long.
 Raffenetti 1 integral format.
 Two-electron integral symmetry is turned on.
 Leave Link  301 at Sun Dec 10 06:55:10 2023, MaxMem=   536870912 cpu:               0.2 elap:               0.1
 (Enter /usr/site/hpc/x86_64/glibc-2.17/broadwell/gaussian/g16_a.03/pgi-16.5/g16/l302.exe)
 NPDir=0 NMtPBC=     1 NCelOv=     1 NCel=       1 NClECP=     1 NCelD=      1
         NCelK=      1 NCelE2=     1 NClLst=     1 CellRange=     0.0.
 One-electron integrals computed using PRISM.
 One-electron integral symmetry used in STVInt
   2 Symmetry operations used in ECPInt.
 ECPInt:  NShTT=      78 NPrTT=     318 LenC2=      79 LenP2D=     283.
 LDataN:  DoStor=T MaxTD1= 2 Len=   12
 NBasis=    24 RedAO= T EigKep=  3.05D-02  NBF=    20     4
 NBsUse=    24 1.00D-06 EigRej= -1.00D+00 NBFU=    20     4
 Leave Link  302 at Sun Dec 10 06:55:10 2023, MaxMem=   536870912 cpu:               0.3 elap:               0.1
 (Enter /usr/site/hpc/x86_64/glibc-2.17/broadwell/gaussian/g16_a.03/pgi-16.5/g16/l303.exe)
 DipDrv:  MaxL=1.
 Leave Link  303 at Sun Dec 10 06:55:10 2023, MaxMem=   536870912 cpu:               0.1 elap:               0.0
 (Enter /usr/site/hpc/x86_64/glibc-2.17/broadwell/gaussian/g16_a.03/pgi-16.5/g16/l401.exe)
 ExpMin= 1.78D-01 ExpMax= 1.92D+01 ExpMxC= 1.92D+01 IAcc=3 IRadAn=         5 AccDes= 0.00D+00
 Harris functional with IExCor=  205 and IRadAn=       5 diagonalized for initial guess.
 HarFok:  IExCor=  205 AccDes= 0.00D+00 IRadAn=         5 IDoV= 1 UseB2=F ITyADJ=14
 ICtDFT=  3500011 ScaDFX=  1.000000  1.000000  1.000000  1.000000
 FoFCou: FMM=F IPFlag=           0 FMFlag=      100000 FMFlg1=           0
         NFxFlg=           0 DoJE=T BraDBF=F KetDBF=T FulRan=T
         wScrn=  0.000000 ICntrl=       500 IOpCl=  0 I1Cent=   200000004 NGrid=           0
         NMat0=    1 NMatS0=      1 NMatT0=    0 NMatD0=    1 NMtDS0=    0 NMtDT0=    0
 Petite list used in FoFCou.
 Harris En= -34.4779820050863    
 JPrj=0 DoOrth=F DoCkMO=F.
 Initial guess orbital symmetries:
       Occupied  (A') (A') (A') (A') (A') (A') (A") (A")
       Virtual   (A') (A') (A') (A') (A") (A') (A") (A') (A') (A')
                 (A') (A') (A') (A') (A') (A')
 The electronic state of the initial guess is 1-A'.
 Leave Link  401 at Sun Dec 10 06:55:10 2023, MaxMem=   536870912 cpu:               0.4 elap:               0.1
 (Enter /usr/site/hpc/x86_64/glibc-2.17/broadwell/gaussian/g16_a.03/pgi-16.5/g16/l502.exe)
 Keep R1 ints in memory in symmetry-blocked form, NReq=852448.
 FoFCou: FMM=F IPFlag=           0 FMFlag=           0 FMFlg1=           0
         NFxFlg=           0 DoJE=F BraDBF=F KetDBF=F FulRan=T
         wScrn=  0.000000 ICntrl=       600 IOpCl=  0 I1Cent=           0 NGrid=           0
         NMat0=    1 NMatS0=    300 NMatT0=    0 NMatD0=    1 NMtDS0=    0 NMtDT0=    0
 Petite list used in FoFCou.
 Closed shell SCF:
 Using DIIS extrapolation, IDIIS=  1040.
 NGot=   536870912 LenX=   536840576 LenY=   536839559
 Requested convergence on RMS density matrix=1.00D-08 within 128 cycles.
 Requested convergence on MAX density matrix=1.00D-06.
 Requested convergence on             energy=1.00D-06.
 No special actions if energy rises.

 Cycle   1  Pass 1  IDiag  1:
 E= -33.5699091635607    
 DIIS: error= 6.62D-02 at cycle   1 NSaved=   1.
 NSaved= 1 IEnMin= 1 EnMin= -33.5699091635607     IErMin= 1 ErrMin= 6.62D-02
 ErrMax= 6.62D-02  0.00D+00 EMaxC= 1.00D-01 BMatC= 9.78D-02 BMatP= 9.78D-02
 IDIUse=3 WtCom= 3.38D-01 WtEn= 6.62D-01
 Coeff-Com:  0.100D+01
 Coeff-En:   0.100D+01
 Coeff:      0.100D+01
 Gap=     0.587 Goal=   None    Shift=    0.000
 GapD=    0.587 DampG=2.000 DampE=0.500 DampFc=1.0000 IDamp=-1.
 RMSDP=1.43D-02 MaxDP=1.17D-01              OVMax= 9.67D-02

 Cycle   2  Pass 1  IDiag  1:
 E= -33.6294169939716     Delta-E=       -0.059507830411 Rises=F Damp=F
 DIIS: error= 3.59D-02 at cycle   2 NSaved=   2.
 NSaved= 2 IEnMin= 2 EnMin= -33.6294169939716     IErMin= 2 ErrMin= 3.59D-02
 ErrMax= 3.59D-02  0.00D+00 EMaxC= 1.00D-01 BMatC= 3.56D-02 BMatP= 9.78D-02
 IDIUse=3 WtCom= 6.41D-01 WtEn= 3.59D-01
 Coeff-Com:  0.374D+00 0.626D+00
 Coeff-En:   0.105D+00 0.895D+00
 Coeff:      0.277D+00 0.723D+00
 Gap=     0.664 Goal=   None    Shift=    0.000
 RMSDP=6.15D-03 MaxDP=5.26D-02 DE=-5.95D-02 OVMax= 3.46D-02

 Cycle   3  Pass 1  IDiag  1:
 E= -33.6578915980228     Delta-E=       -0.028474604051 Rises=F Damp=F
 DIIS: error= 6.73D-03 at cycle   3 NSaved=   3.
 NSaved= 3 IEnMin= 3 EnMin= -33.6578915980228     IErMin= 3 ErrMin= 6.73D-03
 ErrMax= 6.73D-03  0.00D+00 EMaxC= 1.00D-01 BMatC= 8.11D-04 BMatP= 3.56D-02
 IDIUse=3 WtCom= 9.33D-01 WtEn= 6.73D-02
 Coeff-Com: -0.113D+00-0.193D-01 0.113D+01
 Coeff-En:   0.000D+00 0.000D+00 0.100D+01
 Coeff:     -0.105D+00-0.180D-01 0.112D+01
 Gap=     0.657 Goal=   None    Shift=    0.000
 RMSDP=9.93D-04 MaxDP=8.52D-03 DE=-2.85D-02 OVMax= 7.68D-03

 Cycle   4  Pass 1  IDiag  1:
 E= -33.6586877056844     Delta-E=       -0.000796107662 Rises=F Damp=F
 DIIS: error= 6.60D-04 at cycle   4 NSaved=   4.
 NSaved= 4 IEnMin= 4 EnMin= -33.6586877056844     IErMin= 4 ErrMin= 6.60D-04
 ErrMax= 6.60D-04  0.00D+00 EMaxC= 1.00D-01 BMatC= 4.89D-06 BMatP= 8.11D-04
 IDIUse=3 WtCom= 9.93D-01 WtEn= 6.60D-03
 Coeff-Com:  0.422D-01-0.157D-01-0.519D+00 0.149D+01
 Coeff-En:   0.000D+00 0.000D+00 0.000D+00 0.100D+01
 Coeff:      0.419D-01-0.156D-01-0.516D+00 0.149D+01
 Gap=     0.658 Goal=   None    Shift=    0.000
 RMSDP=2.24D-04 MaxDP=1.80D-03 DE=-7.96D-04 OVMax= 1.07D-03

 Cycle   5  Pass 1  IDiag  1:
 E= -33.6586989998731     Delta-E=       -0.000011294189 Rises=F Damp=F
 DIIS: error= 5.03D-05 at cycle   5 NSaved=   5.
 NSaved= 5 IEnMin= 5 EnMin= -33.6586989998731     IErMin= 5 ErrMin= 5.03D-05
 ErrMax= 5.03D-05  0.00D+00 EMaxC= 1.00D-01 BMatC= 4.52D-08 BMatP= 4.89D-06
 IDIUse=1 WtCom= 1.00D+00 WtEn= 0.00D+00
 Coeff-Com: -0.176D-02 0.998D-03 0.236D-01-0.118D+00 0.109D+01
 Coeff:     -0.176D-02 0.998D-03 0.236D-01-0.118D+00 0.109D+01
 Gap=     0.658 Goal=   None    Shift=    0.000
 RMSDP=1.58D-05 MaxDP=1.78D-04 DE=-1.13D-05 OVMax= 1.13D-04

 Cycle   6  Pass 1  IDiag  1:
 E= -33.6586990841260     Delta-E=       -0.000000084253 Rises=F Damp=F
 DIIS: error= 1.49D-05 at cycle   6 NSaved=   6.
 NSaved= 6 IEnMin= 6 EnMin= -33.6586990841260     IErMin= 6 ErrMin= 1.49D-05
 ErrMax= 1.49D-05  0.00D+00 EMaxC= 1.00D-01 BMatC= 8.59D-09 BMatP= 4.52D-08
 IDIUse=1 WtCom= 1.00D+00 WtEn= 0.00D+00
 Coeff-Com: -0.326D-02 0.133D-02 0.408D-01-0.131D+00 0.298D+00 0.794D+00
 Coeff:     -0.326D-02 0.133D-02 0.408D-01-0.131D+00 0.298D+00 0.794D+00
 Gap=     0.658 Goal=   None    Shift=    0.000
 RMSDP=4.03D-06 MaxDP=4.01D-05 DE=-8.43D-08 OVMax= 3.59D-05

 Cycle   7  Pass 1  IDiag  1:
 E= -33.6586990946999     Delta-E=       -0.000000010574 Rises=F Damp=F
 DIIS: error= 5.01D-06 at cycle   7 NSaved=   7.
 NSaved= 7 IEnMin= 7 EnMin= -33.6586990946999     IErMin= 7 ErrMin= 5.01D-06
 ErrMax= 5.01D-06  0.00D+00 EMaxC= 1.00D-01 BMatC= 4.98D-10 BMatP= 8.59D-09
 IDIUse=1 WtCom= 1.00D+00 WtEn= 0.00D+00
 Coeff-Com:  0.898D-03-0.346D-03-0.112D-01 0.393D-01-0.167D+00-0.169D+00
 Coeff-Com:  0.131D+01
 Coeff:      0.898D-03-0.346D-03-0.112D-01 0.393D-01-0.167D+00-0.169D+00
 Coeff:      0.131D+01
 Gap=     0.658 Goal=   None    Shift=    0.000
 RMSDP=1.96D-06 MaxDP=1.20D-05 DE=-1.06D-08 OVMax= 1.81D-05

 Cycle   8  Pass 1  IDiag  1:
 E= -33.6586990960188     Delta-E=       -0.000000001319 Rises=F Damp=F
 DIIS: error= 9.52D-07 at cycle   8 NSaved=   8.
 NSaved= 8 IEnMin= 8 EnMin= -33.6586990960188     IErMin= 8 ErrMin= 9.52D-07
 ErrMax= 9.52D-07  0.00D+00 EMaxC= 1.00D-01 BMatC= 1.87D-11 BMatP= 4.98D-10
 IDIUse=1 WtCom= 1.00D+00 WtEn= 0.00D+00
 Coeff-Com: -0.225D-05-0.185D-04-0.208D-05-0.660D-03 0.211D-01-0.424D-02
 Coeff-Com: -0.303D+00 0.129D+01
 Coeff:     -0.225D-05-0.185D-04-0.208D-05-0.660D-03 0.211D-01-0.424D-02
 Coeff:     -0.303D+00 0.129D+01
 Gap=     0.658 Goal=   None    Shift=    0.000
 RMSDP=4.48D-07 MaxDP=2.67D-06 DE=-1.32D-09 OVMax= 3.55D-06

 Cycle   9  Pass 1  IDiag  1:
 E= -33.6586990960704     Delta-E=       -0.000000000052 Rises=F Damp=F
 DIIS: error= 1.20D-07 at cycle   9 NSaved=   9.
 NSaved= 9 IEnMin= 9 EnMin= -33.6586990960704     IErMin= 9 ErrMin= 1.20D-07
 ErrMax= 1.20D-07  0.00D+00 EMaxC= 1.00D-01 BMatC= 5.02D-13 BMatP= 1.87D-11
 IDIUse=1 WtCom= 1.00D+00 WtEn= 0.00D+00
 Coeff-Com:  0.605D-05 0.400D-05-0.574D-04 0.369D-03-0.761D-02 0.190D-02
 Coeff-Com:  0.110D+00-0.527D+00 0.142D+01
 Coeff:      0.605D-05 0.400D-05-0.574D-04 0.369D-03-0.761D-02 0.190D-02
 Coeff:      0.110D+00-0.527D+00 0.142D+01
 Gap=     0.658 Goal=   None    Shift=    0.000
 RMSDP=1.01D-07 MaxDP=4.65D-07 DE=-5.16D-11 OVMax= 6.93D-07

 Cycle  10  Pass 1  IDiag  1:
 E= -33.6586990960718     Delta-E=       -0.000000000001 Rises=F Damp=F
 DIIS: error= 1.17D-08 at cycle  10 NSaved=  10.
 NSaved=10 IEnMin=10 EnMin= -33.6586990960718     IErMin=10 ErrMin= 1.17D-08
 ErrMax= 1.17D-08  0.00D+00 EMaxC= 1.00D-01 BMatC= 5.18D-15 BMatP= 5.02D-13
 IDIUse=1 WtCom= 1.00D+00 WtEn= 0.00D+00
 Coeff-Com:  0.167D-06-0.132D-05-0.604D-05-0.108D-04 0.131D-02-0.713D-03
 Coeff-Com: -0.210D-01 0.106D+00-0.373D+00 0.129D+01
 Coeff:      0.167D-06-0.132D-05-0.604D-05-0.108D-04 0.131D-02-0.713D-03
 Coeff:     -0.210D-01 0.106D+00-0.373D+00 0.129D+01
 Gap=     0.658 Goal=   None    Shift=    0.000
 RMSDP=1.39D-08 MaxDP=6.31D-08 DE=-1.35D-12 OVMax= 8.71D-08

 Cycle  11  Pass 1  IDiag  1:
 E= -33.6586990960718     Delta-E=       -0.000000000000 Rises=F Damp=F
 DIIS: error= 7.98D-10 at cycle  11 NSaved=  11.
 NSaved=11 IEnMin=11 EnMin= -33.6586990960718     IErMin=11 ErrMin= 7.98D-10
 ErrMax= 7.98D-10  0.00D+00 EMaxC= 1.00D-01 BMatC= 2.49D-17 BMatP= 5.18D-15
 IDIUse=1 WtCom= 1.00D+00 WtEn= 0.00D+00
 Coeff-Com: -0.885D-07 0.250D-06 0.175D-05-0.657D-06-0.225D-03 0.137D-03
 Coeff-Com:  0.368D-02-0.191D-01 0.687D-01-0.278D+00 0.122D+01
 Coeff:     -0.885D-07 0.250D-06 0.175D-05-0.657D-06-0.225D-03 0.137D-03
 Coeff:      0.368D-02-0.191D-01 0.687D-01-0.278D+00 0.122D+01
 Gap=     0.658 Goal=   None    Shift=    0.000
 RMSDP=8.00D-10 MaxDP=4.46D-09 DE=-4.26D-14 OVMax= 4.51D-09

 SCF Done:  E(RHF) =  -33.6586990961     A.U. after   11 cycles
            NFock= 11  Conv=0.80D-09     -V/T= 2.2565
 KE= 2.678868862053D+01 PE=-1.278081745909D+02 EE= 4.427118114403D+01
 Leave Link  502 at Sun Dec 10 06:55:10 2023, MaxMem=   536870912 cpu:               0.3 elap:               0.1
 (Enter /usr/site/hpc/x86_64/glibc-2.17/broadwell/gaussian/g16_a.03/pgi-16.5/g16/l801.exe)
 Windowed orbitals will be sorted by symmetry type.
 Range of M.O.s used for correlation:     1    24
 NBasis=    24 NAE=     8 NBE=     8 NFC=     0 NFV=     0
 NROrb=     24 NOA=     8 NOB=     8 NVA=    16 NVB=    16
 Leave Link  801 at Sun Dec 10 06:55:10 2023, MaxMem=   536870912 cpu:               0.1 elap:               0.0
 (Enter /usr/site/hpc/x86_64/glibc-2.17/broadwell/gaussian/g16_a.03/pgi-16.5/g16/l804.exe)
 Closed-shell transformation, MDV=   536870912 ITran=4 ISComp=2.
 Unit  1 TFree=       1025975 TCopy=        210600.
 Semi-Direct transformation.
 ModeAB=           2 MOrb=             8 LenV=     536741818
 LASXX=        22470 LTotXX=       22470 LenRXX=       22470
 LTotAB=       26208 MaxLAS=       57600 LenRXY=       57600
 NonZer=       62208 LenScr=      524288 LnRSAI=           0
 LnScr1=           0 LExtra=           0 Total=       604358
 MaxDsk=          -1 SrtSym=           F ITran=            4
 DoSDTr:  NPSUse=  4
 JobTyp=0 Pass  1:  I=   1 to   8.
 (rs|ai) integrals will be sorted in core.
 Complete sort for first half transformation.
 First half transformation complete.
 Complete sort for second half transformation.
 Second half transformation complete.
 Spin components of T(2) and E(2):
     alpha-alpha T2 =       0.9074263461D-02 E2=     -0.2600420512D-01
     alpha-beta  T2 =       0.5963172233D-01 E2=     -0.1765528381D+00
     beta-beta   T2 =       0.9074263461D-02 E2=     -0.2600420512D-01
 ANorm=    0.1038161957D+01
 E2 =    -0.2285612483D+00 EUMP2 =    -0.33887260344418D+02
 Leave Link  804 at Sun Dec 10 06:55:10 2023, MaxMem=   536870912 cpu:               0.2 elap:               0.1
 (Enter /usr/site/hpc/x86_64/glibc-2.17/broadwell/gaussian/g16_a.03/pgi-16.5/g16/l913.exe)
 CIDS:  MDV=   536870912.
 IFCWin=0 IBDFC=1 NFBD=     0     0 NFCmp=     0     0 NFFFC=     0     0
 Using DD3R+UMP44R for 1st iteration.
 Using DD4RQ for 2nd and later iterations.
 Keep R2 and R3 ints in memory in symmetry-blocked form, NReq=865056.
 FoFCou: FMM=F IPFlag=           0 FMFlag=           0 FMFlg1=           0
         NFxFlg=           0 DoJE=F BraDBF=F KetDBF=F FulRan=T
         wScrn=  0.000000 ICntrl=       600 IOpCl=  0 I1Cent=           0 NGrid=           0
         NMat0=    1 NMatS0=    300 NMatT0=    0 NMatD0=    1 NMtDS0=    0 NMtDT0=    0
 Petite list used in FoFCou.
 CIDS: In Core Option IDoMem=           1.
 CCSD(T)
 =======
 Iterations=  50 Convergence= 0.100D-06
 Produce multiple copies of IABC intergrals
 Iteration Nr.   1
 **********************
 DD1Dir will call FoFMem   1 times, MxPair=        72
 NAB=    36 NAA=     0 NBB=     0.
 MP4(R+Q)= -0.74600003D-03
 Maximum subspace dimension=  5
 A-vector RMS=  5.8512698D-03 Max=  1.2786397D-02 conv= 1.00D-05.
 RLE energy=       -0.2344762764
 E3=       -0.52968211D-02        EUMP3=      -0.33892557165D+02
 E4(DQ)=   -0.58669092D-02        UMP4(DQ)=   -0.33898424075D+02
 E4(SDQ)=  -0.79541202D-02        UMP4(SDQ)=  -0.33900511286D+02
 VARIATIONAL ENERGIES WITH THE FIRST-ORDER WAVEFUNCTION:
 DE(Corr)= -0.23432741     E(Corr)=     -33.893026501    
 NORM(A)=   0.10415524D+01
 Iteration Nr.   2
 **********************
 DD1Dir will call FoFMem   1 times, MxPair=        72
 NAB=    36 NAA=     0 NBB=     0.
 A-vector RMS=  9.6973678D-04 Max=  2.6902817D-03 conv= 1.00D-05.
 RLE energy=       -0.2422390177
 DE(Corr)= -0.24031900     E(CORR)=     -33.899018098     Delta=-5.99D-03
 NORM(A)=   0.10453243D+01
 Iteration Nr.   3
 **********************
 DD1Dir will call FoFMem   1 times, MxPair=        72
 NAB=    36 NAA=     0 NBB=     0.
 A-vector RMS=  3.8285203D-04 Max=  7.8551992D-04 conv= 1.00D-05.
 RLE energy=       -0.2427868735
 DE(Corr)= -0.24233904     E(CORR)=     -33.901038140     Delta=-2.02D-03
 NORM(A)=   0.10458771D+01
 Iteration Nr.   4
 **********************
 DD1Dir will call FoFMem   1 times, MxPair=        72
 NAB=    36 NAA=     0 NBB=     0.
 A-vector RMS=  9.1546953D-05 Max=  2.3480208D-04 conv= 1.00D-05.
 RLE energy=       -0.2428345046
 DE(Corr)= -0.24279931     E(CORR)=     -33.901498404     Delta=-4.60D-04
 NORM(A)=   0.10459459D+01
 Iteration Nr.   5
 **********************
 DD1Dir will call FoFMem   1 times, MxPair=        72
 NAB=    36 NAA=     0 NBB=     0.
 A-vector RMS=  3.9431000D-05 Max=  1.1556526D-04 conv= 1.00D-05.
 RLE energy=       -0.2428338520
 DE(Corr)= -0.24283110     E(CORR)=     -33.901530199     Delta=-3.18D-05
 NORM(A)=   0.10459546D+01
 Iteration Nr.   6
 **********************
 DD1Dir will call FoFMem   1 times, MxPair=        72
 NAB=    36 NAA=     0 NBB=     0.
 A-vector RMS=  1.4211029D-05 Max=  4.9229189D-05 conv= 1.00D-05.
 RLE energy=       -0.2428311112
 DE(Corr)= -0.24283366     E(CORR)=     -33.901532758     Delta=-2.56D-06
 NORM(A)=   0.10459568D+01
 Iteration Nr.   7
 **********************
 DD1Dir will call FoFMem   1 times, MxPair=        72
 NAB=    36 NAA=     0 NBB=     0.
 A-vector RMS=  4.8258479D-06 Max=  1.5450533D-05 conv= 1.00D-05.
 RLE energy=       -0.2428329117
 DE(Corr)= -0.24283324     E(CORR)=     -33.901532332     Delta= 4.26D-07
 NORM(A)=   0.10459584D+01
 Iteration Nr.   8
 **********************
 DD1Dir will call FoFMem   1 times, MxPair=        72
 NAB=    36 NAA=     0 NBB=     0.
 A-vector RMS=  1.5768170D-06 Max=  5.8285542D-06 conv= 1.00D-05.
 RLE energy=       -0.2428328334
 DE(Corr)= -0.24283297     E(CORR)=     -33.901532063     Delta= 2.68D-07
 NORM(A)=   0.10459588D+01
 Iteration Nr.   9
 **********************
 DD1Dir will call FoFMem   1 times, MxPair=        72
 NAB=    36 NAA=     0 NBB=     0.
 A-vector RMS=  4.4199646D-07 Max=  2.1819432D-06 conv= 1.00D-05.
 RLE energy=       -0.2428330238
 DE(Corr)= -0.24283307     E(CORR)=     -33.901532169     Delta=-1.06D-07
 NORM(A)=   0.10459590D+01
 Iteration Nr.  10
 **********************
 DD1Dir will call FoFMem   1 times, MxPair=        72
 NAB=    36 NAA=     0 NBB=     0.
 A-vector RMS=  1.2626073D-07 Max=  5.9162079D-07 conv= 1.00D-05.
 RLE energy=       -0.2428331645
 DE(Corr)= -0.24283314     E(CORR)=     -33.901532236     Delta=-6.72D-08
 NORM(A)=   0.10459591D+01
 CI/CC converged in   10 iterations to DelEn=-6.72D-08 Conv= 1.00D-07 ErrA1= 1.26D-07 Conv= 1.00D-05
 Wavefunction amplitudes converged. E(Corr)=     -33.901532236    
 Largest amplitude= 5.30D-02
 IPart=  3 IA=    2   12.50% done.
 IPart=  4 IA=    3   24.17% done.
 IPart=  2 IA=    4   35.00% done.
 IPart=  2 IA=    5   45.00% done.
 IPart=  4 IA=    6   54.17% done.
 IPart=  3 IA=    7   62.50% done.
 IPart=  1 IA=    8   70.00% done.
 IPart=  4 IA=   10   82.50% done.
 IPart=  2 IA=   12   91.67% done.
 Time for triples=        0.26 seconds.
 T4(CCSD)= -0.31599370D-02
 T5(CCSD)=  0.53825254D-03
 CCSD(T)= -0.33904153921D+02
 Discarding MO integrals.
 Leave Link  913 at Sun Dec 10 06:55:11 2023, MaxMem=   536870912 cpu:               1.0 elap:               0.3
 (Enter /usr/site/hpc/x86_64/glibc-2.17/broadwell/gaussian/g16_a.03/pgi-16.5/g16/l601.exe)
 Copying SCF densities to generalized density rwf, IOpCl= 0 IROHF=0.

 **********************************************************************

            Population analysis using the SCF density.

 **********************************************************************

 Orbital symmetries:
       Occupied  (A') (A') (A') (A') (A') (A') (A") (A")
       Virtual   (A') (A') (A') (A') (A") (A') (A") (A') (A') (A')
                 (A') (A') (A') (A') (A') (A')
 The electronic state is 1-A'.
 Alpha  occ. eigenvalues --   -1.37422  -1.33342  -0.73118  -0.69028  -0.57644
 Alpha  occ. eigenvalues --   -0.53208  -0.52079  -0.48014
 Alpha virt. eigenvalues --    0.17814   0.24137   0.28995   0.35315   0.78123
 Alpha virt. eigenvalues --    0.82092   0.82839   0.85930   0.87993   0.94198
 Alpha virt. eigenvalues --    1.15706   1.19600   1.20772   1.35564   2.52615
 Alpha virt. eigenvalues --    2.85701
          Condensed to atoms (all electrons):
               1          2          3          4          5          6
     1  O    6.237061   0.270993   0.264012  -0.001038   0.000096   0.000016
     2  H    0.270993   0.347765  -0.022750   0.002178  -0.000170   0.000025
     3  H    0.264012  -0.022750   0.392107   0.000069  -0.000001  -0.000001
     4  O   -0.001038   0.002178   0.000069   6.232172   0.265128   0.268915
     5  H    0.000096  -0.000170  -0.000001   0.265128   0.374668  -0.022269
     6  H    0.000016   0.000025  -0.000001   0.268915  -0.022269   0.365819
 Mulliken charges:
               1
     1  O   -0.771140
     2  H    0.401959
     3  H    0.366563
     4  O   -0.767425
     5  H    0.382549
     6  H    0.387494
 Sum of Mulliken charges =   0.00000
 Mulliken charges with hydrogens summed into heavy atoms:
               1
     1  O   -0.002618
     4  O    0.002618
 Electronic spatial extent (au):  <R**2>=            222.5888
 Charge=              0.0000 electrons
 Dipole moment (field-independent basis, Debye):
    X=              0.7500    Y=             -4.0333    Z=              0.0000  Tot=              4.1025
 Quadrupole moment (field-independent basis, Debye-Ang):
   XX=             -9.7543   YY=             -8.1318   ZZ=            -15.0017
   XY=              6.4875   XZ=              0.0000   YZ=              0.0000
 Traceless Quadrupole moment (field-independent basis, Debye-Ang):
   XX=              1.2083   YY=              2.8308   ZZ=             -4.0391
   XY=              6.4875   XZ=              0.0000   YZ=              0.0000
 Octapole moment (field-independent basis, Debye-Ang**2):
  XXX=             -0.0800  YYY=            -37.7016  ZZZ=              0.0000  XYY=             10.2787
  XXY=             -1.8371  XXZ=              0.0000  XZZ=              0.1399  YZZ=             -0.8083
  YYZ=              0.0000  XYZ=              0.0000
 Hexadecapole moment (field-independent basis, Debye-Ang**3):
 XXXX=            -11.3327 YYYY=           -200.3953 ZZZZ=            -12.2466 XXXY=              3.4973
 XXXZ=              0.0000 YYYX=             17.9502 YYYZ=              0.0000 ZZZX=              0.0000
 ZZZY=              0.0000 XXYY=            -33.1131 XXZZ=             -4.5318 YYZZ=            -52.4345
 XXYZ=              0.0000 YYXZ=              0.0000 ZZXY=             -0.8443
 N-N= 2.308960573031D+01 E-N=-1.278081745895D+02  KE= 2.678868862053D+01
 Symmetry A'   KE= 1.792054583694D+01
 Symmetry A"   KE= 8.868142783583D+00
 Leave Link  601 at Sun Dec 10 06:55:11 2023, MaxMem=   536870912 cpu:               0.1 elap:               0.0
 (Enter /usr/site/hpc/x86_64/glibc-2.17/broadwell/gaussian/g16_a.03/pgi-16.5/g16/l9999.exe)
 1\1\GINC-N044\SP\RCCSD(T)-FC\CEP-31G\H4O2\ROOT\10-Dec-2023\0\\#p CCSD(
 T)/CEP-31G\\H2O_H2O_1923\\0,1\O,0,0.,-0.009833,0.\H,0,-0.799571,-0.580
 965,0.\H,0,0.799571,-0.580965,0.\O,0,-2.903993,-2.06795,0.\H,0,-3.5261
 97,-1.307444,0.\H,0,-3.421608,-2.903163,0.\\Version=ES64L-G16RevA.03\S
 tate=1-A'\HF=-33.6586991\MP2=-33.8872603\MP3=-33.8925572\MP4D=-33.8976
 781\MP4DQ=-33.8984241\MP4SDQ=-33.9005113\CCSD=-33.9015322\CCSD(T)=-33.
 9041539\RMSD=7.995e-10\PG=CS [SG(H4O2)]\\@


 OLD HORSE! OLD HORSE! WHAT BROUGHT YOU HERE?
 FROM SACARAP' TO PORTLAND PIER
 I'VE CARTED STONE THIS MANY A YEAR;
 TILL, KILLED BY BLOWS AND SORE ABUSE,
 THEY SALTED ME DOWN FOR SAILORS' USE.
 THE SAILORS THEY DO ME DESPISE;
 THEY TURN ME OVER AND DAMN MY EYES;
 CUT OFF MY MEAT, AND SCRAPE MY BONES,
 AND PITCH ME OVER TO DAVY JONES.

    SAILORS' COMPLAINT ABOUT THE BEEF
    SERVED ON SHIPBOARD, CIRCA 1835.
 Job cpu time:       0 days  0 hours  0 minutes  3.5 seconds.
 Elapsed time:       0 days  0 hours  0 minutes  1.1 seconds.
 File lengths (MBytes):  RWF=     72 Int=      0 D2E=      0 Chk=      8 Scr=      8
 Normal termination of Gaussian 16 at Sun Dec 10 06:55:11 2023.
