 Entering Gaussian System, Link 0=g16
 Input=H2O_H2O_718.com
 Output=H2O_H2O_718.log
 Initial command:
 /usr/site/hpc/x86_64/glibc-2.17/broadwell/gaussian/g16_a.03/pgi-16.5/g16/l1.exe "/gpfs/gpfs1/scratch/c7441090/OH Coord/Gau-1643339.inp" -scrdir="/gpfs/gpfs1/scratch/c7441090/OH Coord/"
 Entering Link 1 = /usr/site/hpc/x86_64/glibc-2.17/broadwell/gaussian/g16_a.03/pgi-16.5/g16/l1.exe PID=   1643340.
  
 Copyright (c) 1988,1990,1992,1993,1995,1998,2003,2009,2016,
            Gaussian, Inc.  All Rights Reserved.
  
 This is part of the Gaussian(R) 16 program.  It is based on
 the Gaussian(R) 09 system (copyright 2009, Gaussian, Inc.),
 the Gaussian(R) 03 system (copyright 2003, Gaussian, Inc.),
 the Gaussian(R) 98 system (copyright 1998, Gaussian, Inc.),
 the Gaussian(R) 94 system (copyright 1995, Gaussian, Inc.),
 the Gaussian 92(TM) system (copyright 1992, Gaussian, Inc.),
 the Gaussian 90(TM) system (copyright 1990, Gaussian, Inc.),
 the Gaussian 88(TM) system (copyright 1988, Gaussian, Inc.),
 the Gaussian 86(TM) system (copyright 1986, Carnegie Mellon
 University), and the Gaussian 82(TM) system (copyright 1983,
 Carnegie Mellon University). Gaussian is a federally registered
 trademark of Gaussian, Inc.
  
 This software contains proprietary and confidential information,
 including trade secrets, belonging to Gaussian, Inc.
  
 This software is provided under written license and may be
 used, copied, transmitted, or stored only in accord with that
 written license.
  
 The following legend is applicable only to US Government
 contracts under FAR:
  
                    RESTRICTED RIGHTS LEGEND
  
 Use, reproduction and disclosure by the US Government is
 subject to restrictions as set forth in subparagraphs (a)
 and (c) of the Commercial Computer Software - Restricted
 Rights clause in FAR 52.227-19.
  
 Gaussian, Inc.
 340 Quinnipiac St., Bldg. 40, Wallingford CT 06492
  
  
 ---------------------------------------------------------------
 Warning -- This program may not be used in any manner that
 competes with the business of Gaussian, Inc. or will provide
 assistance to any competitor of Gaussian, Inc.  The licensee
 of this program is prohibited from giving any competitor of
 Gaussian, Inc. access to this program.  By using this program,
 the user acknowledges that Gaussian, Inc. is engaged in the
 business of creating and licensing software in the field of
 computational chemistry and represents and warrants to the
 licensee that it is not a competitor of Gaussian, Inc. and that
 it will not use this program in any manner prohibited above.
 ---------------------------------------------------------------
  

 Cite this work as:
 Gaussian 16, Revision A.03,
 M. J. Frisch, G. W. Trucks, H. B. Schlegel, G. E. Scuseria, 
 M. A. Robb, J. R. Cheeseman, G. Scalmani, V. Barone, 
 G. A. Petersson, H. Nakatsuji, X. Li, M. Caricato, A. V. Marenich, 
 J. Bloino, B. G. Janesko, R. Gomperts, B. Mennucci, H. P. Hratchian, 
 J. V. Ortiz, A. F. Izmaylov, J. L. Sonnenberg, D. Williams-Young, 
 F. Ding, F. Lipparini, F. Egidi, J. Goings, B. Peng, A. Petrone, 
 T. Henderson, D. Ranasinghe, V. G. Zakrzewski, J. Gao, N. Rega, 
 G. Zheng, W. Liang, M. Hada, M. Ehara, K. Toyota, R. Fukuda, 
 J. Hasegawa, M. Ishida, T. Nakajima, Y. Honda, O. Kitao, H. Nakai, 
 T. Vreven, K. Throssell, J. A. Montgomery, Jr., J. E. Peralta, 
 F. Ogliaro, M. J. Bearpark, J. J. Heyd, E. N. Brothers, K. N. Kudin, 
 V. N. Staroverov, T. A. Keith, R. Kobayashi, J. Normand, 
 K. Raghavachari, A. P. Rendell, J. C. Burant, S. S. Iyengar, 
 J. Tomasi, M. Cossi, J. M. Millam, M. Klene, C. Adamo, R. Cammi, 
 J. W. Ochterski, R. L. Martin, K. Morokuma, O. Farkas, 
 J. B. Foresman, and D. J. Fox, Gaussian, Inc., Wallingford CT, 2016.
 
 ******************************************
 Gaussian 16:  ES64L-G16RevA.03 25-Dec-2016
                10-Dec-2023 
 ******************************************
 %NProcShared=4
 Will use up to    4 processors via shared memory.
 %Mem=4GB
 %Chk=H2O_H2O_718.chk
 ------------------
 #p CCSD(T)/CEP-31G
 ------------------
 1/38=1,172=1/1;
 2/12=2,17=6,18=5,40=1/2;
 3/5=9,6=1,11=9,25=1,30=1/1,2,3;
 4//1;
 5/5=2,38=5/2;
 8/6=4,9=120000,10=1/1,4;
 9/5=7,14=2/13;
 6/7=2,8=2,9=2,10=2/1;
 99/5=1,9=1/99;
 Leave Link    1 at Sun Dec 10 06:32:00 2023, MaxMem=   536870912 cpu:               0.2 elap:               0.1
 (Enter /usr/site/hpc/x86_64/glibc-2.17/broadwell/gaussian/g16_a.03/pgi-16.5/g16/l101.exe)
 -----------
 H2O_H2O_718
 -----------
 Symbolic Z-matrix:
 Charge =  0 Multiplicity = 1
 O                     0.       -0.00983   0. 
 H                    -0.79957  -0.58097   0. 
 H                     0.79957  -0.58097   0. 
 O                    -2.12428  -1.51464   0. 
 H                    -2.95792  -0.9945    0. 
 H                    -2.34595  -2.47191   0. 
 
 ITRead=  0  0  0  0  0  0
 MicOpt= -1 -1 -1 -1 -1 -1
 NAtoms=      6 NQM=        6 NQMF=       0 NMMI=      0 NMMIF=      0
                NMic=       0 NMicF=      0.
                    Isotopes and Nuclear Properties:
 (Nuclear quadrupole moments (NQMom) in fm**2, nuclear magnetic moments (NMagM)
  in nuclear magnetons)

  Atom         1           2           3           4           5           6
 IAtWgt=          16           1           1          16           1           1
 AtmWgt=  15.9949146   1.0078250   1.0078250  15.9949146   1.0078250   1.0078250
 NucSpn=           0           1           1           0           1           1
 AtZEff=  -0.0000000  -0.0000000  -0.0000000  -0.0000000  -0.0000000  -0.0000000
 NQMom=    0.0000000   0.0000000   0.0000000   0.0000000   0.0000000   0.0000000
 NMagM=    0.0000000   2.7928460   2.7928460   0.0000000   2.7928460   2.7928460
 AtZNuc=   8.0000000   1.0000000   1.0000000   8.0000000   1.0000000   1.0000000
 Leave Link  101 at Sun Dec 10 06:32:00 2023, MaxMem=   536870912 cpu:               0.3 elap:               0.1
 (Enter /usr/site/hpc/x86_64/glibc-2.17/broadwell/gaussian/g16_a.03/pgi-16.5/g16/l202.exe)
                          Input orientation:                          
 ---------------------------------------------------------------------
 Center     Atomic      Atomic             Coordinates (Angstroms)
 Number     Number       Type             X           Y           Z
 ---------------------------------------------------------------------
      1          8           0        0.000000   -0.009833    0.000000
      2          1           0       -0.799571   -0.580965    0.000000
      3          1           0        0.799571   -0.580965    0.000000
      4          8           0       -2.124279   -1.514641    0.000000
      5          1           0       -2.957919   -0.994496    0.000000
      6          1           0       -2.345953   -2.471912    0.000000
 ---------------------------------------------------------------------
                    Distance matrix (angstroms):
                    1          2          3          4          5
     1  O    0.000000
     2  H    0.982601   0.000000
     3  H    0.982601   1.599142   0.000000
     4  O    2.603269   1.620680   3.069308   0.000000
     5  H    3.117506   2.197606   3.780177   0.982602   0.000000
     6  H    3.400784   2.442740   3.670150   0.982602   1.599144
                    6
     6  H    0.000000
 Stoichiometry    H4O2
 Framework group  CS[SG(H4O2)]
 Deg. of freedom     9
 Full point group                 CS      NOp   2
 Largest Abelian subgroup         CS      NOp   2
 Largest concise Abelian subgroup C1      NOp   1
                         Standard orientation:                         
 ---------------------------------------------------------------------
 Center     Atomic      Atomic             Coordinates (Angstroms)
 Number     Number       Type             X           Y           Z
 ---------------------------------------------------------------------
      1          8           0        0.033938    1.390339   -0.000000
      2          1           0        0.030081    0.407746   -0.000000
      3          1           0       -0.894296    1.712653   -0.000000
      4          8           0        0.033938   -1.212929    0.000000
      5          1           0        0.940261   -1.592516    0.000000
      6          1           0       -0.619061   -1.947163    0.000000
 ---------------------------------------------------------------------
 Rotational constants (GHZ):         244.9208924           7.9032323           7.6561788
 Leave Link  202 at Sun Dec 10 06:32:00 2023, MaxMem=   536870912 cpu:               0.1 elap:               0.0
 (Enter /usr/site/hpc/x86_64/glibc-2.17/broadwell/gaussian/g16_a.03/pgi-16.5/g16/l301.exe)
 Standard basis: CEP-31G (6D, 10F)
 Ernie: Thresh=  0.10000D-02 Tol=  0.10000D-05 Strict=F.
 There are    20 symmetry adapted cartesian basis functions of A'  symmetry.
 There are     4 symmetry adapted cartesian basis functions of A"  symmetry.
 There are    20 symmetry adapted basis functions of A'  symmetry.
 There are     4 symmetry adapted basis functions of A"  symmetry.
    24 basis functions,    48 primitive gaussians,    24 cartesian basis functions
     8 alpha electrons        8 beta electrons
       nuclear repulsion energy        26.5920631232 Hartrees.
 IExCor=    0 DFT=F Ex=HF Corr=None ExCW=0 ScaHFX=  1.000000
 ScaDFX=  1.000000  1.000000  1.000000  1.000000 ScalE2=  1.000000  1.000000
 IRadAn=      5 IRanWt=     -1 IRanGd=            0 ICorTp=0 IEmpDi=  4
 NAtoms=    6 NActive=    6 NUniq=    6 SFac= 1.00D+00 NAtFMM=   60 NAOKFM=F Big=F
 Integral buffers will be    131072 words long.
 Raffenetti 1 integral format.
 Two-electron integral symmetry is turned on.
 Leave Link  301 at Sun Dec 10 06:32:00 2023, MaxMem=   536870912 cpu:               0.2 elap:               0.1
 (Enter /usr/site/hpc/x86_64/glibc-2.17/broadwell/gaussian/g16_a.03/pgi-16.5/g16/l302.exe)
 NPDir=0 NMtPBC=     1 NCelOv=     1 NCel=       1 NClECP=     1 NCelD=      1
         NCelK=      1 NCelE2=     1 NClLst=     1 CellRange=     0.0.
 One-electron integrals computed using PRISM.
 One-electron integral symmetry used in STVInt
   2 Symmetry operations used in ECPInt.
 ECPInt:  NShTT=      78 NPrTT=     318 LenC2=      79 LenP2D=     293.
 LDataN:  DoStor=T MaxTD1= 2 Len=   12
 NBasis=    24 RedAO= T EigKep=  1.12D-02  NBF=    20     4
 NBsUse=    24 1.00D-06 EigRej= -1.00D+00 NBFU=    20     4
 Leave Link  302 at Sun Dec 10 06:32:01 2023, MaxMem=   536870912 cpu:               0.3 elap:               0.1
 (Enter /usr/site/hpc/x86_64/glibc-2.17/broadwell/gaussian/g16_a.03/pgi-16.5/g16/l303.exe)
 DipDrv:  MaxL=1.
 Leave Link  303 at Sun Dec 10 06:32:01 2023, MaxMem=   536870912 cpu:               0.1 elap:               0.0
 (Enter /usr/site/hpc/x86_64/glibc-2.17/broadwell/gaussian/g16_a.03/pgi-16.5/g16/l401.exe)
 ExpMin= 1.78D-01 ExpMax= 1.92D+01 ExpMxC= 1.92D+01 IAcc=3 IRadAn=         5 AccDes= 0.00D+00
 Harris functional with IExCor=  205 and IRadAn=       5 diagonalized for initial guess.
 HarFok:  IExCor=  205 AccDes= 0.00D+00 IRadAn=         5 IDoV= 1 UseB2=F ITyADJ=14
 ICtDFT=  3500011 ScaDFX=  1.000000  1.000000  1.000000  1.000000
 FoFCou: FMM=F IPFlag=           0 FMFlag=      100000 FMFlg1=           0
         NFxFlg=           0 DoJE=T BraDBF=F KetDBF=T FulRan=T
         wScrn=  0.000000 ICntrl=       500 IOpCl=  0 I1Cent=   200000004 NGrid=           0
         NMat0=    1 NMatS0=      1 NMatT0=    0 NMatD0=    1 NMtDS0=    0 NMtDT0=    0
 Petite list used in FoFCou.
 Harris En= -34.4880906296563    
 JPrj=0 DoOrth=F DoCkMO=F.
 Initial guess orbital symmetries:
       Occupied  (A') (A') (A') (A') (A') (A') (A") (A")
       Virtual   (A') (A') (A') (A') (A") (A') (A') (A") (A') (A')
                 (A') (A') (A') (A') (A') (A')
 The electronic state of the initial guess is 1-A'.
 Leave Link  401 at Sun Dec 10 06:32:01 2023, MaxMem=   536870912 cpu:               0.4 elap:               0.1
 (Enter /usr/site/hpc/x86_64/glibc-2.17/broadwell/gaussian/g16_a.03/pgi-16.5/g16/l502.exe)
 Keep R1 ints in memory in symmetry-blocked form, NReq=852695.
 FoFCou: FMM=F IPFlag=           0 FMFlag=           0 FMFlg1=           0
         NFxFlg=           0 DoJE=F BraDBF=F KetDBF=F FulRan=T
         wScrn=  0.000000 ICntrl=       600 IOpCl=  0 I1Cent=           0 NGrid=           0
         NMat0=    1 NMatS0=    300 NMatT0=    0 NMatD0=    1 NMtDS0=    0 NMtDT0=    0
 Petite list used in FoFCou.
 Closed shell SCF:
 Using DIIS extrapolation, IDIIS=  1040.
 NGot=   536870912 LenX=   536840576 LenY=   536839559
 Requested convergence on RMS density matrix=1.00D-08 within 128 cycles.
 Requested convergence on MAX density matrix=1.00D-06.
 Requested convergence on             energy=1.00D-06.
 No special actions if energy rises.

 Cycle   1  Pass 1  IDiag  1:
 E= -33.5743334218871    
 DIIS: error= 5.16D-02 at cycle   1 NSaved=   1.
 NSaved= 1 IEnMin= 1 EnMin= -33.5743334218871     IErMin= 1 ErrMin= 5.16D-02
 ErrMax= 5.16D-02  0.00D+00 EMaxC= 1.00D-01 BMatC= 9.32D-02 BMatP= 9.32D-02
 IDIUse=3 WtCom= 4.84D-01 WtEn= 5.16D-01
 Coeff-Com:  0.100D+01
 Coeff-En:   0.100D+01
 Coeff:      0.100D+01
 Gap=     0.543 Goal=   None    Shift=    0.000
 GapD=    0.543 DampG=2.000 DampE=0.500 DampFc=1.0000 IDamp=-1.
 RMSDP=1.61D-02 MaxDP=1.29D-01              OVMax= 9.80D-02

 Cycle   2  Pass 1  IDiag  1:
 E= -33.6346458798817     Delta-E=       -0.060312457995 Rises=F Damp=F
 DIIS: error= 3.32D-02 at cycle   2 NSaved=   2.
 NSaved= 2 IEnMin= 2 EnMin= -33.6346458798817     IErMin= 2 ErrMin= 3.32D-02
 ErrMax= 3.32D-02  0.00D+00 EMaxC= 1.00D-01 BMatC= 3.15D-02 BMatP= 9.32D-02
 IDIUse=3 WtCom= 6.68D-01 WtEn= 3.32D-01
 Coeff-Com:  0.364D+00 0.636D+00
 Coeff-En:   0.491D-01 0.951D+00
 Coeff:      0.260D+00 0.740D+00
 Gap=     0.627 Goal=   None    Shift=    0.000
 RMSDP=6.12D-03 MaxDP=5.64D-02 DE=-6.03D-02 OVMax= 3.63D-02

 Cycle   3  Pass 1  IDiag  1:
 E= -33.6597120627022     Delta-E=       -0.025066182820 Rises=F Damp=F
 DIIS: error= 5.43D-03 at cycle   3 NSaved=   3.
 NSaved= 3 IEnMin= 3 EnMin= -33.6597120627022     IErMin= 3 ErrMin= 5.43D-03
 ErrMax= 5.43D-03  0.00D+00 EMaxC= 1.00D-01 BMatC= 8.79D-04 BMatP= 3.15D-02
 IDIUse=3 WtCom= 9.46D-01 WtEn= 5.43D-02
 Coeff-Com: -0.104D+00 0.150D-02 0.110D+01
 Coeff-En:   0.000D+00 0.000D+00 0.100D+01
 Coeff:     -0.985D-01 0.142D-02 0.110D+01
 Gap=     0.618 Goal=   None    Shift=    0.000
 RMSDP=1.26D-03 MaxDP=1.01D-02 DE=-2.51D-02 OVMax= 8.00D-03

 Cycle   4  Pass 1  IDiag  1:
 E= -33.6605681387744     Delta-E=       -0.000856076072 Rises=F Damp=F
 DIIS: error= 5.13D-04 at cycle   4 NSaved=   4.
 NSaved= 4 IEnMin= 4 EnMin= -33.6605681387744     IErMin= 4 ErrMin= 5.13D-04
 ErrMax= 5.13D-04  0.00D+00 EMaxC= 1.00D-01 BMatC= 5.43D-06 BMatP= 8.79D-04
 IDIUse=3 WtCom= 9.95D-01 WtEn= 5.13D-03
 Coeff-Com:  0.688D-02-0.209D-01-0.164D+00 0.118D+01
 Coeff-En:   0.000D+00 0.000D+00 0.000D+00 0.100D+01
 Coeff:      0.685D-02-0.207D-01-0.164D+00 0.118D+01
 Gap=     0.621 Goal=   None    Shift=    0.000
 RMSDP=2.15D-04 MaxDP=1.71D-03 DE=-8.56D-04 OVMax= 1.08D-03

 Cycle   5  Pass 1  IDiag  1:
 E= -33.6605788596175     Delta-E=       -0.000010720843 Rises=F Damp=F
 DIIS: error= 1.31D-04 at cycle   5 NSaved=   5.
 NSaved= 5 IEnMin= 5 EnMin= -33.6605788596175     IErMin= 5 ErrMin= 1.31D-04
 ErrMax= 1.31D-04  0.00D+00 EMaxC= 1.00D-01 BMatC= 8.58D-07 BMatP= 5.43D-06
 IDIUse=3 WtCom= 9.99D-01 WtEn= 1.31D-03
 Coeff-Com:  0.131D-01-0.572D-02-0.161D+00 0.340D+00 0.814D+00
 Coeff-En:   0.000D+00 0.000D+00 0.000D+00 0.000D+00 0.100D+01
 Coeff:      0.130D-01-0.571D-02-0.161D+00 0.339D+00 0.814D+00
 Gap=     0.621 Goal=   None    Shift=    0.000
 RMSDP=5.46D-05 MaxDP=4.38D-04 DE=-1.07D-05 OVMax= 3.19D-04

 Cycle   6  Pass 1  IDiag  1:
 E= -33.6605799217200     Delta-E=       -0.000001062102 Rises=F Damp=F
 DIIS: error= 3.41D-05 at cycle   6 NSaved=   6.
 NSaved= 6 IEnMin= 6 EnMin= -33.6605799217200     IErMin= 6 ErrMin= 3.41D-05
 ErrMax= 3.41D-05  0.00D+00 EMaxC= 1.00D-01 BMatC= 2.02D-08 BMatP= 8.58D-07
 IDIUse=1 WtCom= 1.00D+00 WtEn= 0.00D+00
 Coeff-Com: -0.342D-02 0.196D-02 0.446D-01-0.142D+00-0.157D+00 0.125D+01
 Coeff:     -0.342D-02 0.196D-02 0.446D-01-0.142D+00-0.157D+00 0.125D+01
 Gap=     0.621 Goal=   None    Shift=    0.000
 RMSDP=1.46D-05 MaxDP=1.32D-04 DE=-1.06D-06 OVMax= 8.02D-05

 Cycle   7  Pass 1  IDiag  1:
 E= -33.6605799679190     Delta-E=       -0.000000046199 Rises=F Damp=F
 DIIS: error= 4.87D-06 at cycle   7 NSaved=   7.
 NSaved= 7 IEnMin= 7 EnMin= -33.6605799679190     IErMin= 7 ErrMin= 4.87D-06
 ErrMax= 4.87D-06  0.00D+00 EMaxC= 1.00D-01 BMatC= 5.08D-10 BMatP= 2.02D-08
 IDIUse=1 WtCom= 1.00D+00 WtEn= 0.00D+00
 Coeff-Com:  0.945D-03-0.531D-03-0.124D-01 0.434D-01 0.360D-01-0.442D+00
 Coeff-Com:  0.137D+01
 Coeff:      0.945D-03-0.531D-03-0.124D-01 0.434D-01 0.360D-01-0.442D+00
 Coeff:      0.137D+01
 Gap=     0.621 Goal=   None    Shift=    0.000
 RMSDP=2.39D-06 MaxDP=1.38D-05 DE=-4.62D-08 OVMax= 2.00D-05

 Cycle   8  Pass 1  IDiag  1:
 E= -33.6605799692983     Delta-E=       -0.000000001379 Rises=F Damp=F
 DIIS: error= 8.63D-07 at cycle   8 NSaved=   8.
 NSaved= 8 IEnMin= 8 EnMin= -33.6605799692983     IErMin= 8 ErrMin= 8.63D-07
 ErrMax= 8.63D-07  0.00D+00 EMaxC= 1.00D-01 BMatC= 1.86D-11 BMatP= 5.08D-10
 IDIUse=1 WtCom= 1.00D+00 WtEn= 0.00D+00
 Coeff-Com: -0.646D-04 0.176D-04 0.788D-03-0.330D-02 0.312D-03 0.376D-01
 Coeff-Com: -0.273D+00 0.124D+01
 Coeff:     -0.646D-04 0.176D-04 0.788D-03-0.330D-02 0.312D-03 0.376D-01
 Coeff:     -0.273D+00 0.124D+01
 Gap=     0.621 Goal=   None    Shift=    0.000
 RMSDP=4.16D-07 MaxDP=2.64D-06 DE=-1.38D-09 OVMax= 3.77D-06

 Cycle   9  Pass 1  IDiag  1:
 E= -33.6605799693455     Delta-E=       -0.000000000047 Rises=F Damp=F
 DIIS: error= 1.84D-07 at cycle   9 NSaved=   9.
 NSaved= 9 IEnMin= 9 EnMin= -33.6605799693455     IErMin= 9 ErrMin= 1.84D-07
 ErrMax= 1.84D-07  0.00D+00 EMaxC= 1.00D-01 BMatC= 7.92D-13 BMatP= 1.86D-11
 IDIUse=1 WtCom= 1.00D+00 WtEn= 0.00D+00
 Coeff-Com:  0.120D-04 0.165D-05-0.121D-03 0.464D-03-0.535D-03-0.477D-02
 Coeff-Com:  0.618D-01-0.452D+00 0.140D+01
 Coeff:      0.120D-04 0.165D-05-0.121D-03 0.464D-03-0.535D-03-0.477D-02
 Coeff:      0.618D-01-0.452D+00 0.140D+01
 Gap=     0.621 Goal=   None    Shift=    0.000
 RMSDP=1.20D-07 MaxDP=5.95D-07 DE=-4.72D-11 OVMax= 1.01D-06

 Cycle  10  Pass 1  IDiag  1:
 E= -33.6605799693479     Delta-E=       -0.000000000002 Rises=F Damp=F
 DIIS: error= 1.94D-08 at cycle  10 NSaved=  10.
 NSaved=10 IEnMin=10 EnMin= -33.6605799693479     IErMin=10 ErrMin= 1.94D-08
 ErrMax= 1.94D-08  0.00D+00 EMaxC= 1.00D-01 BMatC= 1.69D-14 BMatP= 7.92D-13
 IDIUse=1 WtCom= 1.00D+00 WtEn= 0.00D+00
 Coeff-Com: -0.504D-08-0.202D-05-0.826D-05 0.326D-04 0.216D-03-0.382D-03
 Coeff-Com: -0.785D-02 0.895D-01-0.399D+00 0.132D+01
 Coeff:     -0.504D-08-0.202D-05-0.826D-05 0.326D-04 0.216D-03-0.382D-03
 Coeff:     -0.785D-02 0.895D-01-0.399D+00 0.132D+01
 Gap=     0.621 Goal=   None    Shift=    0.000
 RMSDP=1.96D-08 MaxDP=1.07D-07 DE=-2.36D-12 OVMax= 1.52D-07

 Cycle  11  Pass 1  IDiag  1:
 E= -33.6605799693479     Delta-E=       -0.000000000000 Rises=F Damp=F
 DIIS: error= 2.59D-09 at cycle  11 NSaved=  11.
 NSaved=11 IEnMin=11 EnMin= -33.6605799693479     IErMin=11 ErrMin= 2.59D-09
 ErrMax= 2.59D-09  0.00D+00 EMaxC= 1.00D-01 BMatC= 2.33D-16 BMatP= 1.69D-14
 IDIUse=1 WtCom= 1.00D+00 WtEn= 0.00D+00
 Coeff-Com: -0.111D-06 0.499D-06 0.327D-05-0.130D-04-0.552D-04 0.152D-03
 Coeff-Com:  0.146D-02-0.199D-01 0.963D-01-0.394D+00 0.132D+01
 Coeff:     -0.111D-06 0.499D-06 0.327D-05-0.130D-04-0.552D-04 0.152D-03
 Coeff:      0.146D-02-0.199D-01 0.963D-01-0.394D+00 0.132D+01
 Gap=     0.621 Goal=   None    Shift=    0.000
 RMSDP=2.56D-09 MaxDP=1.77D-08 DE=-7.11D-14 OVMax= 1.99D-08

 SCF Done:  E(RHF) =  -33.6605799693     A.U. after   11 cycles
            NFock= 11  Conv=0.26D-08     -V/T= 2.2508
 KE= 2.691184964308D+01 PE=-1.349591933818D+02 EE= 4.779470064620D+01
 Leave Link  502 at Sun Dec 10 06:32:01 2023, MaxMem=   536870912 cpu:               0.3 elap:               0.1
 (Enter /usr/site/hpc/x86_64/glibc-2.17/broadwell/gaussian/g16_a.03/pgi-16.5/g16/l801.exe)
 Windowed orbitals will be sorted by symmetry type.
 Range of M.O.s used for correlation:     1    24
 NBasis=    24 NAE=     8 NBE=     8 NFC=     0 NFV=     0
 NROrb=     24 NOA=     8 NOB=     8 NVA=    16 NVB=    16
 Leave Link  801 at Sun Dec 10 06:32:01 2023, MaxMem=   536870912 cpu:               0.1 elap:               0.0
 (Enter /usr/site/hpc/x86_64/glibc-2.17/broadwell/gaussian/g16_a.03/pgi-16.5/g16/l804.exe)
 Closed-shell transformation, MDV=   536870912 ITran=4 ISComp=2.
 Unit  1 TFree=       1025975 TCopy=        210600.
 Semi-Direct transformation.
 ModeAB=           2 MOrb=             8 LenV=     536741538
 LASXX=        22470 LTotXX=       22470 LenRXX=       22470
 LTotAB=       26208 MaxLAS=       57600 LenRXY=       57600
 NonZer=       62208 LenScr=      524288 LnRSAI=           0
 LnScr1=           0 LExtra=           0 Total=       604358
 MaxDsk=          -1 SrtSym=           F ITran=            4
 DoSDTr:  NPSUse=  4
 JobTyp=0 Pass  1:  I=   1 to   8.
 (rs|ai) integrals will be sorted in core.
 Complete sort for first half transformation.
 First half transformation complete.
 Complete sort for second half transformation.
 Second half transformation complete.
 Spin components of T(2) and E(2):
     alpha-alpha T2 =       0.9177689757D-02 E2=     -0.2650428060D-01
     alpha-beta  T2 =       0.5881941216D-01 E2=     -0.1758679837D+00
     beta-beta   T2 =       0.9177689757D-02 E2=     -0.2650428060D-01
 ANorm=    0.1037870315D+01
 E2 =    -0.2288765449D+00 EUMP2 =    -0.33889456514287D+02
 Leave Link  804 at Sun Dec 10 06:32:01 2023, MaxMem=   536870912 cpu:               0.2 elap:               0.1
 (Enter /usr/site/hpc/x86_64/glibc-2.17/broadwell/gaussian/g16_a.03/pgi-16.5/g16/l913.exe)
 CIDS:  MDV=   536870912.
 IFCWin=0 IBDFC=1 NFBD=     0     0 NFCmp=     0     0 NFFFC=     0     0
 Using DD3R+UMP44R for 1st iteration.
 Using DD4RQ for 2nd and later iterations.
 Keep R2 and R3 ints in memory in symmetry-blocked form, NReq=865303.
 FoFCou: FMM=F IPFlag=           0 FMFlag=           0 FMFlg1=           0
         NFxFlg=           0 DoJE=F BraDBF=F KetDBF=F FulRan=T
         wScrn=  0.000000 ICntrl=       600 IOpCl=  0 I1Cent=           0 NGrid=           0
         NMat0=    1 NMatS0=    300 NMatT0=    0 NMatD0=    1 NMtDS0=    0 NMtDT0=    0
 Petite list used in FoFCou.
 CIDS: In Core Option IDoMem=           1.
 CCSD(T)
 =======
 Iterations=  50 Convergence= 0.100D-06
 Produce multiple copies of IABC intergrals
 Iteration Nr.   1
 **********************
 DD1Dir will call FoFMem   1 times, MxPair=        72
 NAB=    36 NAA=     0 NBB=     0.
 MP4(R+Q)= -0.65574270D-03
 Maximum subspace dimension=  5
 A-vector RMS=  5.8904898D-03 Max=  1.3082008D-02 conv= 1.00D-05.
 RLE energy=       -0.2338739108
 E3=       -0.45101022D-02        EUMP3=      -0.33893966616D+02
 E4(DQ)=   -0.56074467D-02        UMP4(DQ)=   -0.33899574063D+02
 E4(SDQ)=  -0.77531840D-02        UMP4(SDQ)=  -0.33901719801D+02
 VARIATIONAL ENERGIES WITH THE FIRST-ORDER WAVEFUNCTION:
 DE(Corr)= -0.23376747     E(Corr)=     -33.894347436    
 NORM(A)=   0.10408851D+01
 Iteration Nr.   2
 **********************
 DD1Dir will call FoFMem   1 times, MxPair=        72
 NAB=    36 NAA=     0 NBB=     0.
 A-vector RMS=  9.4608552D-04 Max=  2.4760481D-03 conv= 1.00D-05.
 RLE energy=       -0.2414293300
 DE(Corr)= -0.23963425     E(CORR)=     -33.900214219     Delta=-5.87D-03
 NORM(A)=   0.10444833D+01
 Iteration Nr.   3
 **********************
 DD1Dir will call FoFMem   1 times, MxPair=        72
 NAB=    36 NAA=     0 NBB=     0.
 A-vector RMS=  3.9244072D-04 Max=  1.1359842D-03 conv= 1.00D-05.
 RLE energy=       -0.2419580202
 DE(Corr)= -0.24151851     E(CORR)=     -33.902098474     Delta=-1.88D-03
 NORM(A)=   0.10450119D+01
 Iteration Nr.   4
 **********************
 DD1Dir will call FoFMem   1 times, MxPair=        72
 NAB=    36 NAA=     0 NBB=     0.
 A-vector RMS=  8.4699785D-05 Max=  1.9409915D-04 conv= 1.00D-05.
 RLE energy=       -0.2420055801
 DE(Corr)= -0.24197247     E(CORR)=     -33.902552436     Delta=-4.54D-04
 NORM(A)=   0.10450751D+01
 Iteration Nr.   5
 **********************
 DD1Dir will call FoFMem   1 times, MxPair=        72
 NAB=    36 NAA=     0 NBB=     0.
 A-vector RMS=  4.3902218D-05 Max=  1.8633133D-04 conv= 1.00D-05.
 RLE energy=       -0.2420057861
 DE(Corr)= -0.24200253     E(CORR)=     -33.902582500     Delta=-3.01D-05
 NORM(A)=   0.10450831D+01
 Iteration Nr.   6
 **********************
 DD1Dir will call FoFMem   1 times, MxPair=        72
 NAB=    36 NAA=     0 NBB=     0.
 A-vector RMS=  1.4782358D-05 Max=  6.3118452D-05 conv= 1.00D-05.
 RLE energy=       -0.2420021397
 DE(Corr)= -0.24200524     E(CORR)=     -33.902585213     Delta=-2.71D-06
 NORM(A)=   0.10450845D+01
 Iteration Nr.   7
 **********************
 DD1Dir will call FoFMem   1 times, MxPair=        72
 NAB=    36 NAA=     0 NBB=     0.
 A-vector RMS=  6.5489135D-06 Max=  2.4113242D-05 conv= 1.00D-05.
 RLE energy=       -0.2420039252
 DE(Corr)= -0.24200506     E(CORR)=     -33.902585025     Delta= 1.88D-07
 NORM(A)=   0.10450862D+01
 Iteration Nr.   8
 **********************
 DD1Dir will call FoFMem   1 times, MxPair=        72
 NAB=    36 NAA=     0 NBB=     0.
 A-vector RMS=  2.3714340D-06 Max=  9.5579655D-06 conv= 1.00D-05.
 RLE energy=       -0.2420044341
 DE(Corr)= -0.24200459     E(CORR)=     -33.902584557     Delta= 4.68D-07
 NORM(A)=   0.10450870D+01
 Iteration Nr.   9
 **********************
 DD1Dir will call FoFMem   1 times, MxPair=        72
 NAB=    36 NAA=     0 NBB=     0.
 A-vector RMS=  5.2939586D-07 Max=  1.8823091D-06 conv= 1.00D-05.
 RLE energy=       -0.2420047228
 DE(Corr)= -0.24200475     E(CORR)=     -33.902584722     Delta=-1.65D-07
 NORM(A)=   0.10450873D+01
 Iteration Nr.  10
 **********************
 DD1Dir will call FoFMem   1 times, MxPair=        72
 NAB=    36 NAA=     0 NBB=     0.
 A-vector RMS=  1.7794023D-07 Max=  6.9563036D-07 conv= 1.00D-05.
 RLE energy=       -0.2420049039
 DE(Corr)= -0.24200487     E(CORR)=     -33.902584838     Delta=-1.16D-07
 NORM(A)=   0.10450874D+01
 Iteration Nr.  11
 **********************
 DD1Dir will call FoFMem   1 times, MxPair=        72
 NAB=    36 NAA=     0 NBB=     0.
 A-vector RMS=  4.8350579D-08 Max=  1.6211498D-07 conv= 1.00D-05.
 RLE energy=       -0.2420049508
 DE(Corr)= -0.24200493     E(CORR)=     -33.902584904     Delta=-6.63D-08
 NORM(A)=   0.10450875D+01
 CI/CC converged in   11 iterations to DelEn=-6.63D-08 Conv= 1.00D-07 ErrA1= 4.84D-08 Conv= 1.00D-05
 Wavefunction amplitudes converged. E(Corr)=     -33.902584904    
 Largest amplitude= 4.83D-02
 IPart=  3 IA=    2   12.50% done.
 IPart=  2 IA=    3   24.17% done.
 IPart=  4 IA=    4   35.00% done.
 IPart=  4 IA=    5   45.00% done.
 IPart=  3 IA=    6   54.17% done.
 IPart=  2 IA=    7   62.50% done.
 IPart=  1 IA=    8   70.00% done.
 IPart=  1 IA=   10   82.50% done.
 IPart=  3 IA=   12   91.67% done.
 Time for triples=        0.26 seconds.
 T4(CCSD)= -0.34401302D-02
 T5(CCSD)=  0.54222064D-03
 CCSD(T)= -0.33905482814D+02
 Discarding MO integrals.
 Leave Link  913 at Sun Dec 10 06:32:01 2023, MaxMem=   536870912 cpu:               1.0 elap:               0.3
 (Enter /usr/site/hpc/x86_64/glibc-2.17/broadwell/gaussian/g16_a.03/pgi-16.5/g16/l601.exe)
 Copying SCF densities to generalized density rwf, IOpCl= 0 IROHF=0.

 **********************************************************************

            Population analysis using the SCF density.

 **********************************************************************

 Orbital symmetries:
       Occupied  (A') (A') (A') (A') (A') (A") (A') (A")
       Virtual   (A') (A') (A') (A') (A") (A') (A') (A") (A') (A')
                 (A') (A') (A') (A') (A') (A')
 The electronic state is 1-A'.
 Alpha  occ. eigenvalues --   -1.39998  -1.30108  -0.75528  -0.69424  -0.59158
 Alpha  occ. eigenvalues --   -0.54688  -0.49301  -0.44692
 Alpha virt. eigenvalues --    0.17395   0.27323   0.27610   0.50660   0.74535
 Alpha virt. eigenvalues --    0.75499   0.85929   0.88110   0.95625   1.00652
 Alpha virt. eigenvalues --    1.15769   1.18430   1.24143   1.37244   2.60764
 Alpha virt. eigenvalues --    3.72963
          Condensed to atoms (all electrons):
               1          2          3          4          5          6
     1  O    6.243259   0.310901   0.265043  -0.037666   0.000603   0.000329
     2  H    0.310901   0.357531  -0.031897  -0.072426   0.004549   0.003771
     3  H    0.265043  -0.031897   0.419337   0.004097  -0.000013  -0.000109
     4  O   -0.037666  -0.072426   0.004097   6.394668   0.266722   0.274045
     5  H    0.000603   0.004549  -0.000013   0.266722   0.335429  -0.021697
     6  H    0.000329   0.003771  -0.000109   0.274045  -0.021697   0.317271
 Mulliken charges:
               1
     1  O   -0.782469
     2  H    0.427571
     3  H    0.343541
     4  O   -0.829440
     5  H    0.414406
     6  H    0.426391
 Sum of Mulliken charges =  -0.00000
 Mulliken charges with hydrogens summed into heavy atoms:
               1
     1  O   -0.011357
     4  O    0.011357
 Electronic spatial extent (au):  <R**2>=            139.0726
 Charge=             -0.0000 electrons
 Dipole moment (field-independent basis, Debye):
    X=             -1.4853    Y=             -4.8573    Z=              0.0000  Tot=              5.0793
 Quadrupole moment (field-independent basis, Debye-Ang):
   XX=             -9.3619   YY=             -9.2903   ZZ=            -15.0184
   XY=             -4.1909   XZ=              0.0000   YZ=             -0.0000
 Traceless Quadrupole moment (field-independent basis, Debye-Ang):
   XX=              1.8617   YY=              1.9332   ZZ=             -3.7949
   XY=             -4.1909   XZ=              0.0000   YZ=             -0.0000
 Octapole moment (field-independent basis, Debye-Ang**2):
  XXX=             -0.6236  YYY=            -22.9723  ZZZ=              0.0000  XYY=             -7.2344
  XXY=             -3.4823  XXZ=              0.0000  XZZ=             -0.2791  YZZ=             -1.0817
  YYZ=              0.0000  XYZ=              0.0000
 Hexadecapole moment (field-independent basis, Debye-Ang**3):
 XXXX=            -11.5713 YYYY=           -125.4262 ZZZZ=            -12.2983 XXXY=             -2.2957
 XXXZ=              0.0000 YYYX=             -7.2480 YYYZ=              0.0000 ZZZX=             -0.0000
 ZZZY=              0.0000 XXYY=            -16.6785 XXZZ=             -4.5555 YYZZ=            -30.6392
 XXYZ=              0.0000 YYXZ=              0.0000 ZZXY=              0.5242
 N-N= 2.659206312315D+01 E-N=-1.349591933851D+02  KE= 2.691184964308D+01
 Symmetry A'   KE= 1.808801994510D+01
 Symmetry A"   KE= 8.823829697981D+00
 Leave Link  601 at Sun Dec 10 06:32:01 2023, MaxMem=   536870912 cpu:               0.1 elap:               0.0
 (Enter /usr/site/hpc/x86_64/glibc-2.17/broadwell/gaussian/g16_a.03/pgi-16.5/g16/l9999.exe)
 1\1\GINC-N044\SP\RCCSD(T)-FC\CEP-31G\H4O2\ROOT\10-Dec-2023\0\\#p CCSD(
 T)/CEP-31G\\H2O_H2O_718\\0,1\O,0,0.,-0.009833,0.\H,0,-0.799571,-0.5809
 65,0.\H,0,0.799571,-0.580965,0.\O,0,-2.124279,-1.514641,0.\H,0,-2.9579
 19,-0.994496,0.\H,0,-2.345953,-2.471912,0.\\Version=ES64L-G16RevA.03\S
 tate=1-A'\HF=-33.66058\MP2=-33.8894565\MP3=-33.8939666\MP4D=-33.898918
 3\MP4DQ=-33.8995741\MP4SDQ=-33.9017198\CCSD=-33.9025849\CCSD(T)=-33.90
 54828\RMSD=2.556e-09\PG=CS [SG(H4O2)]\\@


 NO MATTER HOW THIN YOU SLICE IT, IT'S STILL BALONEY

                                   -- ALFRED E. SMITH
 Job cpu time:       0 days  0 hours  0 minutes  3.4 seconds.
 Elapsed time:       0 days  0 hours  0 minutes  1.0 seconds.
 File lengths (MBytes):  RWF=     72 Int=      0 D2E=      0 Chk=      8 Scr=      8
 Normal termination of Gaussian 16 at Sun Dec 10 06:32:01 2023.
