 Entering Gaussian System, Link 0=g16
 Input=H2O_H2O_1393.com
 Output=H2O_H2O_1393.log
 Initial command:
 /usr/site/hpc/x86_64/glibc-2.17/broadwell/gaussian/g16_a.03/pgi-16.5/g16/l1.exe "/gpfs/gpfs1/scratch/c7441090/OH Coord/Gau-1674966.inp" -scrdir="/gpfs/gpfs1/scratch/c7441090/OH Coord/"
 Entering Link 1 = /usr/site/hpc/x86_64/glibc-2.17/broadwell/gaussian/g16_a.03/pgi-16.5/g16/l1.exe PID=   1674967.
  
 Copyright (c) 1988,1990,1992,1993,1995,1998,2003,2009,2016,
            Gaussian, Inc.  All Rights Reserved.
  
 This is part of the Gaussian(R) 16 program.  It is based on
 the Gaussian(R) 09 system (copyright 2009, Gaussian, Inc.),
 the Gaussian(R) 03 system (copyright 2003, Gaussian, Inc.),
 the Gaussian(R) 98 system (copyright 1998, Gaussian, Inc.),
 the Gaussian(R) 94 system (copyright 1995, Gaussian, Inc.),
 the Gaussian 92(TM) system (copyright 1992, Gaussian, Inc.),
 the Gaussian 90(TM) system (copyright 1990, Gaussian, Inc.),
 the Gaussian 88(TM) system (copyright 1988, Gaussian, Inc.),
 the Gaussian 86(TM) system (copyright 1986, Carnegie Mellon
 University), and the Gaussian 82(TM) system (copyright 1983,
 Carnegie Mellon University). Gaussian is a federally registered
 trademark of Gaussian, Inc.
  
 This software contains proprietary and confidential information,
 including trade secrets, belonging to Gaussian, Inc.
  
 This software is provided under written license and may be
 used, copied, transmitted, or stored only in accord with that
 written license.
  
 The following legend is applicable only to US Government
 contracts under FAR:
  
                    RESTRICTED RIGHTS LEGEND
  
 Use, reproduction and disclosure by the US Government is
 subject to restrictions as set forth in subparagraphs (a)
 and (c) of the Commercial Computer Software - Restricted
 Rights clause in FAR 52.227-19.
  
 Gaussian, Inc.
 340 Quinnipiac St., Bldg. 40, Wallingford CT 06492
  
  
 ---------------------------------------------------------------
 Warning -- This program may not be used in any manner that
 competes with the business of Gaussian, Inc. or will provide
 assistance to any competitor of Gaussian, Inc.  The licensee
 of this program is prohibited from giving any competitor of
 Gaussian, Inc. access to this program.  By using this program,
 the user acknowledges that Gaussian, Inc. is engaged in the
 business of creating and licensing software in the field of
 computational chemistry and represents and warrants to the
 licensee that it is not a competitor of Gaussian, Inc. and that
 it will not use this program in any manner prohibited above.
 ---------------------------------------------------------------
  

 Cite this work as:
 Gaussian 16, Revision A.03,
 M. J. Frisch, G. W. Trucks, H. B. Schlegel, G. E. Scuseria, 
 M. A. Robb, J. R. Cheeseman, G. Scalmani, V. Barone, 
 G. A. Petersson, H. Nakatsuji, X. Li, M. Caricato, A. V. Marenich, 
 J. Bloino, B. G. Janesko, R. Gomperts, B. Mennucci, H. P. Hratchian, 
 J. V. Ortiz, A. F. Izmaylov, J. L. Sonnenberg, D. Williams-Young, 
 F. Ding, F. Lipparini, F. Egidi, J. Goings, B. Peng, A. Petrone, 
 T. Henderson, D. Ranasinghe, V. G. Zakrzewski, J. Gao, N. Rega, 
 G. Zheng, W. Liang, M. Hada, M. Ehara, K. Toyota, R. Fukuda, 
 J. Hasegawa, M. Ishida, T. Nakajima, Y. Honda, O. Kitao, H. Nakai, 
 T. Vreven, K. Throssell, J. A. Montgomery, Jr., J. E. Peralta, 
 F. Ogliaro, M. J. Bearpark, J. J. Heyd, E. N. Brothers, K. N. Kudin, 
 V. N. Staroverov, T. A. Keith, R. Kobayashi, J. Normand, 
 K. Raghavachari, A. P. Rendell, J. C. Burant, S. S. Iyengar, 
 J. Tomasi, M. Cossi, J. M. Millam, M. Klene, C. Adamo, R. Cammi, 
 J. W. Ochterski, R. L. Martin, K. Morokuma, O. Farkas, 
 J. B. Foresman, and D. J. Fox, Gaussian, Inc., Wallingford CT, 2016.
 
 ******************************************
 Gaussian 16:  ES64L-G16RevA.03 25-Dec-2016
                10-Dec-2023 
 ******************************************
 %NProcShared=4
 Will use up to    4 processors via shared memory.
 %Mem=4GB
 %Chk=H2O_H2O_1393.chk
 ------------------
 #p CCSD(T)/CEP-31G
 ------------------
 1/38=1,172=1/1;
 2/12=2,17=6,18=5,40=1/2;
 3/5=9,6=1,11=9,25=1,30=1/1,2,3;
 4//1;
 5/5=2,38=5/2;
 8/6=4,9=120000,10=1/1,4;
 9/5=7,14=2/13;
 6/7=2,8=2,9=2,10=2/1;
 99/5=1,9=1/99;
 Leave Link    1 at Sun Dec 10 06:44:56 2023, MaxMem=   536870912 cpu:               0.2 elap:               0.1
 (Enter /usr/site/hpc/x86_64/glibc-2.17/broadwell/gaussian/g16_a.03/pgi-16.5/g16/l101.exe)
 ------------
 H2O_H2O_1393
 ------------
 Symbolic Z-matrix:
 Charge =  0 Multiplicity = 1
 O                     0.       -0.00983   0. 
 H                    -0.79957  -0.58097   0. 
 H                     0.79957  -0.58097   0. 
 O                    -2.56246  -1.82763   0. 
 H                    -3.3961   -1.30749   0. 
 H                    -2.78413  -2.7849    0. 
 
 ITRead=  0  0  0  0  0  0
 MicOpt= -1 -1 -1 -1 -1 -1
 NAtoms=      6 NQM=        6 NQMF=       0 NMMI=      0 NMMIF=      0
                NMic=       0 NMicF=      0.
                    Isotopes and Nuclear Properties:
 (Nuclear quadrupole moments (NQMom) in fm**2, nuclear magnetic moments (NMagM)
  in nuclear magnetons)

  Atom         1           2           3           4           5           6
 IAtWgt=          16           1           1          16           1           1
 AtmWgt=  15.9949146   1.0078250   1.0078250  15.9949146   1.0078250   1.0078250
 NucSpn=           0           1           1           0           1           1
 AtZEff=  -0.0000000  -0.0000000  -0.0000000  -0.0000000  -0.0000000  -0.0000000
 NQMom=    0.0000000   0.0000000   0.0000000   0.0000000   0.0000000   0.0000000
 NMagM=    0.0000000   2.7928460   2.7928460   0.0000000   2.7928460   2.7928460
 AtZNuc=   8.0000000   1.0000000   1.0000000   8.0000000   1.0000000   1.0000000
 Leave Link  101 at Sun Dec 10 06:44:56 2023, MaxMem=   536870912 cpu:               0.7 elap:               0.2
 (Enter /usr/site/hpc/x86_64/glibc-2.17/broadwell/gaussian/g16_a.03/pgi-16.5/g16/l202.exe)
                          Input orientation:                          
 ---------------------------------------------------------------------
 Center     Atomic      Atomic             Coordinates (Angstroms)
 Number     Number       Type             X           Y           Z
 ---------------------------------------------------------------------
      1          8           0        0.000000   -0.009833    0.000000
      2          1           0       -0.799571   -0.580965    0.000000
      3          1           0        0.799571   -0.580965    0.000000
      4          8           0       -2.562459   -1.827632    0.000000
      5          1           0       -3.396099   -1.307487    0.000000
      6          1           0       -2.784133   -2.784903    0.000000
 ---------------------------------------------------------------------
                    Distance matrix (angstroms):
                    1          2          3          4          5
     1  O    0.000000
     2  H    0.982601   0.000000
     3  H    0.982601   1.599142   0.000000
     4  O    3.141749   2.159156   3.585725   0.000000
     5  H    3.635573   2.696255   4.258108   0.982602   0.000000
     6  H    3.930955   2.965776   4.207170   0.982602   1.599144
                    6
     6  H    0.000000
 Stoichiometry    H4O2
 Framework group  CS[SG(H4O2)]
 Deg. of freedom     9
 Full point group                 CS      NOp   2
 Largest Abelian subgroup         CS      NOp   2
 Largest concise Abelian subgroup C1      NOp   1
                         Standard orientation:                         
 ---------------------------------------------------------------------
 Center     Atomic      Atomic             Coordinates (Angstroms)
 Number     Number       Type             X           Y           Z
 ---------------------------------------------------------------------
      1          8           0        0.033879    1.659603   -0.000000
      2          1           0        0.030682    0.677006   -0.000000
      3          1           0       -0.894573    1.981291   -0.000000
      4          8           0        0.033879   -1.482147    0.000000
      5          1           0        0.940457   -1.861123    0.000000
      6          1           0       -0.618627   -2.216819    0.000000
 ---------------------------------------------------------------------
 Rotational constants (GHZ):         244.6762991           5.4905062           5.3700040
 Leave Link  202 at Sun Dec 10 06:44:56 2023, MaxMem=   536870912 cpu:               0.1 elap:               0.0
 (Enter /usr/site/hpc/x86_64/glibc-2.17/broadwell/gaussian/g16_a.03/pgi-16.5/g16/l301.exe)
 Standard basis: CEP-31G (6D, 10F)
 Ernie: Thresh=  0.10000D-02 Tol=  0.10000D-05 Strict=F.
 There are    20 symmetry adapted cartesian basis functions of A'  symmetry.
 There are     4 symmetry adapted cartesian basis functions of A"  symmetry.
 There are    20 symmetry adapted basis functions of A'  symmetry.
 There are     4 symmetry adapted basis functions of A"  symmetry.
    24 basis functions,    48 primitive gaussians,    24 cartesian basis functions
     8 alpha electrons        8 beta electrons
       nuclear repulsion energy        24.3123469543 Hartrees.
 IExCor=    0 DFT=F Ex=HF Corr=None ExCW=0 ScaHFX=  1.000000
 ScaDFX=  1.000000  1.000000  1.000000  1.000000 ScalE2=  1.000000  1.000000
 IRadAn=      5 IRanWt=     -1 IRanGd=            0 ICorTp=0 IEmpDi=  4
 NAtoms=    6 NActive=    6 NUniq=    6 SFac= 1.00D+00 NAtFMM=   60 NAOKFM=F Big=F
 Integral buffers will be    131072 words long.
 Raffenetti 1 integral format.
 Two-electron integral symmetry is turned on.
 Leave Link  301 at Sun Dec 10 06:44:56 2023, MaxMem=   536870912 cpu:               0.2 elap:               0.0
 (Enter /usr/site/hpc/x86_64/glibc-2.17/broadwell/gaussian/g16_a.03/pgi-16.5/g16/l302.exe)
 NPDir=0 NMtPBC=     1 NCelOv=     1 NCel=       1 NClECP=     1 NCelD=      1
         NCelK=      1 NCelE2=     1 NClLst=     1 CellRange=     0.0.
 One-electron integrals computed using PRISM.
 One-electron integral symmetry used in STVInt
   2 Symmetry operations used in ECPInt.
 ECPInt:  NShTT=      78 NPrTT=     318 LenC2=      79 LenP2D=     286.
 LDataN:  DoStor=T MaxTD1= 2 Len=   12
 NBasis=    24 RedAO= T EigKep=  2.40D-02  NBF=    20     4
 NBsUse=    24 1.00D-06 EigRej= -1.00D+00 NBFU=    20     4
 Leave Link  302 at Sun Dec 10 06:44:56 2023, MaxMem=   536870912 cpu:               0.3 elap:               0.1
 (Enter /usr/site/hpc/x86_64/glibc-2.17/broadwell/gaussian/g16_a.03/pgi-16.5/g16/l303.exe)
 DipDrv:  MaxL=1.
 Leave Link  303 at Sun Dec 10 06:44:56 2023, MaxMem=   536870912 cpu:               0.2 elap:               0.0
 (Enter /usr/site/hpc/x86_64/glibc-2.17/broadwell/gaussian/g16_a.03/pgi-16.5/g16/l401.exe)
 ExpMin= 1.78D-01 ExpMax= 1.92D+01 ExpMxC= 1.92D+01 IAcc=3 IRadAn=         5 AccDes= 0.00D+00
 Harris functional with IExCor=  205 and IRadAn=       5 diagonalized for initial guess.
 HarFok:  IExCor=  205 AccDes= 0.00D+00 IRadAn=         5 IDoV= 1 UseB2=F ITyADJ=14
 ICtDFT=  3500011 ScaDFX=  1.000000  1.000000  1.000000  1.000000
 FoFCou: FMM=F IPFlag=           0 FMFlag=      100000 FMFlg1=           0
         NFxFlg=           0 DoJE=T BraDBF=F KetDBF=T FulRan=T
         wScrn=  0.000000 ICntrl=       500 IOpCl=  0 I1Cent=   200000004 NGrid=           0
         NMat0=    1 NMatS0=      1 NMatT0=    0 NMatD0=    1 NMtDS0=    0 NMtDT0=    0
 Petite list used in FoFCou.
 Harris En= -34.4816259295221    
 JPrj=0 DoOrth=F DoCkMO=F.
 Initial guess orbital symmetries:
       Occupied  (A') (A') (A') (A') (A') (A') (A") (A")
       Virtual   (A') (A') (A') (A') (A") (A') (A") (A') (A') (A')
                 (A') (A') (A') (A') (A') (A')
 The electronic state of the initial guess is 1-A'.
 Leave Link  401 at Sun Dec 10 06:44:56 2023, MaxMem=   536870912 cpu:               0.4 elap:               0.1
 (Enter /usr/site/hpc/x86_64/glibc-2.17/broadwell/gaussian/g16_a.03/pgi-16.5/g16/l502.exe)
 Keep R1 ints in memory in symmetry-blocked form, NReq=852596.
 FoFCou: FMM=F IPFlag=           0 FMFlag=           0 FMFlg1=           0
         NFxFlg=           0 DoJE=F BraDBF=F KetDBF=F FulRan=T
         wScrn=  0.000000 ICntrl=       600 IOpCl=  0 I1Cent=           0 NGrid=           0
         NMat0=    1 NMatS0=    300 NMatT0=    0 NMatD0=    1 NMtDS0=    0 NMtDT0=    0
 Petite list used in FoFCou.
 Closed shell SCF:
 Using DIIS extrapolation, IDIIS=  1040.
 NGot=   536870912 LenX=   536840576 LenY=   536839559
 Requested convergence on RMS density matrix=1.00D-08 within 128 cycles.
 Requested convergence on MAX density matrix=1.00D-06.
 Requested convergence on             energy=1.00D-06.
 No special actions if energy rises.

 Cycle   1  Pass 1  IDiag  1:
 E= -33.5759321693679    
 DIIS: error= 6.12D-02 at cycle   1 NSaved=   1.
 NSaved= 1 IEnMin= 1 EnMin= -33.5759321693679     IErMin= 1 ErrMin= 6.12D-02
 ErrMax= 6.12D-02  0.00D+00 EMaxC= 1.00D-01 BMatC= 9.49D-02 BMatP= 9.49D-02
 IDIUse=3 WtCom= 3.88D-01 WtEn= 6.12D-01
 Coeff-Com:  0.100D+01
 Coeff-En:   0.100D+01
 Coeff:      0.100D+01
 Gap=     0.582 Goal=   None    Shift=    0.000
 GapD=    0.582 DampG=2.000 DampE=0.500 DampFc=1.0000 IDamp=-1.
 RMSDP=1.44D-02 MaxDP=1.20D-01              OVMax= 9.28D-02

 Cycle   2  Pass 1  IDiag  1:
 E= -33.6344788307667     Delta-E=       -0.058546661399 Rises=F Damp=F
 DIIS: error= 3.47D-02 at cycle   2 NSaved=   2.
 NSaved= 2 IEnMin= 2 EnMin= -33.6344788307667     IErMin= 2 ErrMin= 3.47D-02
 ErrMax= 3.47D-02  0.00D+00 EMaxC= 1.00D-01 BMatC= 3.37D-02 BMatP= 9.49D-02
 IDIUse=3 WtCom= 6.53D-01 WtEn= 3.47D-01
 Coeff-Com:  0.370D+00 0.630D+00
 Coeff-En:   0.893D-01 0.911D+00
 Coeff:      0.273D+00 0.727D+00
 Gap=     0.652 Goal=   None    Shift=    0.000
 RMSDP=6.01D-03 MaxDP=5.26D-02 DE=-5.85D-02 OVMax= 3.40D-02

 Cycle   3  Pass 1  IDiag  1:
 E= -33.6613434476622     Delta-E=       -0.026864616896 Rises=F Damp=F
 DIIS: error= 6.31D-03 at cycle   3 NSaved=   3.
 NSaved= 3 IEnMin= 3 EnMin= -33.6613434476622     IErMin= 3 ErrMin= 6.31D-03
 ErrMax= 6.31D-03  0.00D+00 EMaxC= 1.00D-01 BMatC= 8.06D-04 BMatP= 3.37D-02
 IDIUse=3 WtCom= 9.37D-01 WtEn= 6.31D-02
 Coeff-Com: -0.111D+00-0.155D-01 0.113D+01
 Coeff-En:   0.000D+00 0.000D+00 0.100D+01
 Coeff:     -0.104D+00-0.146D-01 0.112D+01
 Gap=     0.645 Goal=   None    Shift=    0.000
 RMSDP=1.04D-03 MaxDP=8.80D-03 DE=-2.69D-02 OVMax= 7.34D-03

 Cycle   4  Pass 1  IDiag  1:
 E= -33.6621314382375     Delta-E=       -0.000787990575 Rises=F Damp=F
 DIIS: error= 6.05D-04 at cycle   4 NSaved=   4.
 NSaved= 4 IEnMin= 4 EnMin= -33.6621314382375     IErMin= 4 ErrMin= 6.05D-04
 ErrMax= 6.05D-04  0.00D+00 EMaxC= 1.00D-01 BMatC= 4.59D-06 BMatP= 8.06D-04
 IDIUse=3 WtCom= 9.94D-01 WtEn= 6.05D-03
 Coeff-Com:  0.385D-01-0.165D-01-0.482D+00 0.146D+01
 Coeff-En:   0.000D+00 0.000D+00 0.000D+00 0.100D+01
 Coeff:      0.383D-01-0.164D-01-0.479D+00 0.146D+01
 Gap=     0.647 Goal=   None    Shift=    0.000
 RMSDP=2.20D-04 MaxDP=1.69D-03 DE=-7.88D-04 OVMax= 1.12D-03

 Cycle   5  Pass 1  IDiag  1:
 E= -33.6621421440777     Delta-E=       -0.000010705840 Rises=F Damp=F
 DIIS: error= 5.80D-05 at cycle   5 NSaved=   5.
 NSaved= 5 IEnMin= 5 EnMin= -33.6621421440777     IErMin= 5 ErrMin= 5.80D-05
 ErrMax= 5.80D-05  0.00D+00 EMaxC= 1.00D-01 BMatC= 4.39D-08 BMatP= 4.59D-06
 IDIUse=1 WtCom= 1.00D+00 WtEn= 0.00D+00
 Coeff-Com: -0.673D-02 0.311D-02 0.856D-01-0.317D+00 0.124D+01
 Coeff:     -0.673D-02 0.311D-02 0.856D-01-0.317D+00 0.124D+01
 Gap=     0.647 Goal=   None    Shift=    0.000
 RMSDP=1.97D-05 MaxDP=1.63D-04 DE=-1.07D-05 OVMax= 1.15D-04

 Cycle   6  Pass 1  IDiag  1:
 E= -33.6621422481308     Delta-E=       -0.000000104053 Rises=F Damp=F
 DIIS: error= 8.37D-06 at cycle   6 NSaved=   6.
 NSaved= 6 IEnMin= 6 EnMin= -33.6621422481308     IErMin= 6 ErrMin= 8.37D-06
 ErrMax= 8.37D-06  0.00D+00 EMaxC= 1.00D-01 BMatC= 2.98D-09 BMatP= 4.39D-08
 IDIUse=1 WtCom= 1.00D+00 WtEn= 0.00D+00
 Coeff-Com: -0.194D-02 0.869D-03 0.243D-01-0.810D-01 0.165D+00 0.893D+00
 Coeff:     -0.194D-02 0.869D-03 0.243D-01-0.810D-01 0.165D+00 0.893D+00
 Gap=     0.647 Goal=   None    Shift=    0.000
 RMSDP=3.00D-06 MaxDP=2.96D-05 DE=-1.04D-07 OVMax= 2.68D-05

 Cycle   7  Pass 1  IDiag  1:
 E= -33.6621422527148     Delta-E=       -0.000000004584 Rises=F Damp=F
 DIIS: error= 3.94D-06 at cycle   7 NSaved=   7.
 NSaved= 7 IEnMin= 7 EnMin= -33.6621422527148     IErMin= 7 ErrMin= 3.94D-06
 ErrMax= 3.94D-06  0.00D+00 EMaxC= 1.00D-01 BMatC= 4.71D-10 BMatP= 2.98D-09
 IDIUse=1 WtCom= 1.00D+00 WtEn= 0.00D+00
 Coeff-Com:  0.896D-03-0.382D-03-0.113D-01 0.426D-01-0.182D+00 0.810D-01
 Coeff-Com:  0.107D+01
 Coeff:      0.896D-03-0.382D-03-0.113D-01 0.426D-01-0.182D+00 0.810D-01
 Coeff:      0.107D+01
 Gap=     0.647 Goal=   None    Shift=    0.000
 RMSDP=1.58D-06 MaxDP=9.59D-06 DE=-4.58D-09 OVMax= 1.52D-05

 Cycle   8  Pass 1  IDiag  1:
 E= -33.6621422536450     Delta-E=       -0.000000000930 Rises=F Damp=F
 DIIS: error= 8.10D-07 at cycle   8 NSaved=   8.
 NSaved= 8 IEnMin= 8 EnMin= -33.6621422536450     IErMin= 8 ErrMin= 8.10D-07
 ErrMax= 8.10D-07  0.00D+00 EMaxC= 1.00D-01 BMatC= 1.86D-11 BMatP= 4.71D-10
 IDIUse=1 WtCom= 1.00D+00 WtEn= 0.00D+00
 Coeff-Com: -0.124D-04-0.168D-04 0.935D-04-0.923D-03 0.192D-01-0.825D-01
 Coeff-Com: -0.155D+00 0.122D+01
 Coeff:     -0.124D-04-0.168D-04 0.935D-04-0.923D-03 0.192D-01-0.825D-01
 Coeff:     -0.155D+00 0.122D+01
 Gap=     0.647 Goal=   None    Shift=    0.000
 RMSDP=3.85D-07 MaxDP=2.84D-06 DE=-9.30D-10 OVMax= 3.30D-06

 Cycle   9  Pass 1  IDiag  1:
 E= -33.6621422536903     Delta-E=       -0.000000000045 Rises=F Damp=F
 DIIS: error= 1.60D-07 at cycle   9 NSaved=   9.
 NSaved= 9 IEnMin= 9 EnMin= -33.6621422536903     IErMin= 9 ErrMin= 1.60D-07
 ErrMax= 1.60D-07  0.00D+00 EMaxC= 1.00D-01 BMatC= 5.82D-13 BMatP= 1.86D-11
 IDIUse=1 WtCom= 1.00D+00 WtEn= 0.00D+00
 Coeff-Com:  0.720D-05 0.494D-05-0.582D-04 0.282D-03-0.551D-02 0.285D-01
 Coeff-Com:  0.431D-01-0.471D+00 0.141D+01
 Coeff:      0.720D-05 0.494D-05-0.582D-04 0.282D-03-0.551D-02 0.285D-01
 Coeff:      0.431D-01-0.471D+00 0.141D+01
 Gap=     0.647 Goal=   None    Shift=    0.000
 RMSDP=1.05D-07 MaxDP=4.41D-07 DE=-4.52D-11 OVMax= 7.62D-07

 Cycle  10  Pass 1  IDiag  1:
 E= -33.6621422536920     Delta-E=       -0.000000000002 Rises=F Damp=F
 DIIS: error= 1.76D-08 at cycle  10 NSaved=  10.
 NSaved=10 IEnMin=10 EnMin= -33.6621422536920     IErMin=10 ErrMin= 1.76D-08
 ErrMax= 1.76D-08  0.00D+00 EMaxC= 1.00D-01 BMatC= 1.02D-14 BMatP= 5.82D-13
 IDIUse=1 WtCom= 1.00D+00 WtEn= 0.00D+00
 Coeff-Com:  0.419D-06-0.192D-05-0.122D-04 0.426D-04 0.710D-03-0.570D-02
 Coeff-Com: -0.700D-02 0.970D-01-0.399D+00 0.131D+01
 Coeff:      0.419D-06-0.192D-05-0.122D-04 0.426D-04 0.710D-03-0.570D-02
 Coeff:     -0.700D-02 0.970D-01-0.399D+00 0.131D+01
 Gap=     0.647 Goal=   None    Shift=    0.000
 RMSDP=1.69D-08 MaxDP=7.96D-08 DE=-1.73D-12 OVMax= 1.14D-07

 Cycle  11  Pass 1  IDiag  1:
 E= -33.6621422536920     Delta-E=        0.000000000000 Rises=F Damp=F
 DIIS: error= 1.41D-09 at cycle  11 NSaved=  11.
 NSaved=11 IEnMin=10 EnMin= -33.6621422536920     IErMin=11 ErrMin= 1.41D-09
 ErrMax= 1.41D-09  0.00D+00 EMaxC= 1.00D-01 BMatC= 7.17D-17 BMatP= 1.02D-14
 IDIUse=1 WtCom= 1.00D+00 WtEn= 0.00D+00
 Coeff-Com: -0.105D-06 0.412D-06 0.275D-05-0.102D-04-0.154D-03 0.128D-02
 Coeff-Com:  0.148D-02-0.217D-01 0.912D-01-0.345D+00 0.127D+01
 Coeff:     -0.105D-06 0.412D-06 0.275D-05-0.102D-04-0.154D-03 0.128D-02
 Coeff:      0.148D-02-0.217D-01 0.912D-01-0.345D+00 0.127D+01
 Gap=     0.647 Goal=   None    Shift=    0.000
 RMSDP=1.35D-09 MaxDP=8.48D-09 DE= 1.42D-14 OVMax= 9.50D-09

 SCF Done:  E(RHF) =  -33.6621422537     A.U. after   11 cycles
            NFock= 11  Conv=0.14D-08     -V/T= 2.2558
 KE= 2.680629587914D+01 PE=-1.303101252237D+02 EE= 4.552934013663D+01
 Leave Link  502 at Sun Dec 10 06:44:57 2023, MaxMem=   536870912 cpu:               0.3 elap:               0.1
 (Enter /usr/site/hpc/x86_64/glibc-2.17/broadwell/gaussian/g16_a.03/pgi-16.5/g16/l801.exe)
 Windowed orbitals will be sorted by symmetry type.
 Range of M.O.s used for correlation:     1    24
 NBasis=    24 NAE=     8 NBE=     8 NFC=     0 NFV=     0
 NROrb=     24 NOA=     8 NOB=     8 NVA=    16 NVB=    16
 Leave Link  801 at Sun Dec 10 06:44:57 2023, MaxMem=   536870912 cpu:               0.1 elap:               0.0
 (Enter /usr/site/hpc/x86_64/glibc-2.17/broadwell/gaussian/g16_a.03/pgi-16.5/g16/l804.exe)
 Closed-shell transformation, MDV=   536870912 ITran=4 ISComp=2.
 Unit  1 TFree=       1025975 TCopy=        210600.
 Semi-Direct transformation.
 ModeAB=           2 MOrb=             8 LenV=     536741730
 LASXX=        22470 LTotXX=       22470 LenRXX=       22470
 LTotAB=       26208 MaxLAS=       57600 LenRXY=       57600
 NonZer=       62208 LenScr=      524288 LnRSAI=           0
 LnScr1=           0 LExtra=           0 Total=       604358
 MaxDsk=          -1 SrtSym=           F ITran=            4
 DoSDTr:  NPSUse=  4
 JobTyp=0 Pass  1:  I=   1 to   8.
 (rs|ai) integrals will be sorted in core.
 Complete sort for first half transformation.
 First half transformation complete.
 Complete sort for second half transformation.
 Second half transformation complete.
 Spin components of T(2) and E(2):
     alpha-alpha T2 =       0.9098402072D-02 E2=     -0.2615998890D-01
     alpha-beta  T2 =       0.5942341866D-01 E2=     -0.1765250959D+00
     beta-beta   T2 =       0.9098402072D-02 E2=     -0.2615998890D-01
 ANorm=    0.1038084882D+01
 E2 =    -0.2288450737D+00 EUMP2 =    -0.33890987327408D+02
 Leave Link  804 at Sun Dec 10 06:44:57 2023, MaxMem=   536870912 cpu:               0.2 elap:               0.1
 (Enter /usr/site/hpc/x86_64/glibc-2.17/broadwell/gaussian/g16_a.03/pgi-16.5/g16/l913.exe)
 CIDS:  MDV=   536870912.
 IFCWin=0 IBDFC=1 NFBD=     0     0 NFCmp=     0     0 NFFFC=     0     0
 Using DD3R+UMP44R for 1st iteration.
 Using DD4RQ for 2nd and later iterations.
 Keep R2 and R3 ints in memory in symmetry-blocked form, NReq=865204.
 FoFCou: FMM=F IPFlag=           0 FMFlag=           0 FMFlg1=           0
         NFxFlg=           0 DoJE=F BraDBF=F KetDBF=F FulRan=T
         wScrn=  0.000000 ICntrl=       600 IOpCl=  0 I1Cent=           0 NGrid=           0
         NMat0=    1 NMatS0=    300 NMatT0=    0 NMatD0=    1 NMtDS0=    0 NMtDT0=    0
 Petite list used in FoFCou.
 CIDS: In Core Option IDoMem=           1.
 CCSD(T)
 =======
 Iterations=  50 Convergence= 0.100D-06
 Produce multiple copies of IABC intergrals
 Iteration Nr.   1
 **********************
 DD1Dir will call FoFMem   1 times, MxPair=        72
 NAB=    36 NAA=     0 NBB=     0.
 MP4(R+Q)= -0.71532177D-03
 Maximum subspace dimension=  5
 A-vector RMS=  5.8622726D-03 Max=  1.2705503D-02 conv= 1.00D-05.
 RLE energy=       -0.2345668080
 E3=       -0.51415262D-02        EUMP3=      -0.33896128854D+02
 E4(DQ)=   -0.57934498D-02        UMP4(DQ)=   -0.33901922303D+02
 E4(SDQ)=  -0.78877587D-02        UMP4(SDQ)=  -0.33904016612D+02
 VARIATIONAL ENERGIES WITH THE FIRST-ORDER WAVEFUNCTION:
 DE(Corr)= -0.23442758     E(Corr)=     -33.896569831    
 NORM(A)=   0.10413974D+01
 Iteration Nr.   2
 **********************
 DD1Dir will call FoFMem   1 times, MxPair=        72
 NAB=    36 NAA=     0 NBB=     0.
 A-vector RMS=  9.6448028D-04 Max=  2.6872396D-03 conv= 1.00D-05.
 RLE energy=       -0.2422801757
 DE(Corr)= -0.24038367     E(CORR)=     -33.902525923     Delta=-5.96D-03
 NORM(A)=   0.10451338D+01
 Iteration Nr.   3
 **********************
 DD1Dir will call FoFMem   1 times, MxPair=        72
 NAB=    36 NAA=     0 NBB=     0.
 A-vector RMS=  3.7959626D-04 Max=  8.0610086D-04 conv= 1.00D-05.
 RLE energy=       -0.2428212767
 DE(Corr)= -0.24237625     E(CORR)=     -33.904518499     Delta=-1.99D-03
 NORM(A)=   0.10456785D+01
 Iteration Nr.   4
 **********************
 DD1Dir will call FoFMem   1 times, MxPair=        72
 NAB=    36 NAA=     0 NBB=     0.
 A-vector RMS=  8.6764700D-05 Max=  2.2082680D-04 conv= 1.00D-05.
 RLE energy=       -0.2428686877
 DE(Corr)= -0.24283438     E(CORR)=     -33.904976630     Delta=-4.58D-04
 NORM(A)=   0.10457444D+01
 Iteration Nr.   5
 **********************
 DD1Dir will call FoFMem   1 times, MxPair=        72
 NAB=    36 NAA=     0 NBB=     0.
 A-vector RMS=  3.8129071D-05 Max=  1.2335904D-04 conv= 1.00D-05.
 RLE energy=       -0.2428681995
 DE(Corr)= -0.24286542     E(CORR)=     -33.905007674     Delta=-3.10D-05
 NORM(A)=   0.10457521D+01
 Iteration Nr.   6
 **********************
 DD1Dir will call FoFMem   1 times, MxPair=        72
 NAB=    36 NAA=     0 NBB=     0.
 A-vector RMS=  1.3761149D-05 Max=  4.8039428D-05 conv= 1.00D-05.
 RLE energy=       -0.2428654001
 DE(Corr)= -0.24286798     E(CORR)=     -33.905010233     Delta=-2.56D-06
 NORM(A)=   0.10457538D+01
 Iteration Nr.   7
 **********************
 DD1Dir will call FoFMem   1 times, MxPair=        72
 NAB=    36 NAA=     0 NBB=     0.
 A-vector RMS=  5.1132720D-06 Max=  1.9973002D-05 conv= 1.00D-05.
 RLE energy=       -0.2428670917
 DE(Corr)= -0.24286762     E(CORR)=     -33.905009874     Delta= 3.60D-07
 NORM(A)=   0.10457553D+01
 Iteration Nr.   8
 **********************
 DD1Dir will call FoFMem   1 times, MxPair=        72
 NAB=    36 NAA=     0 NBB=     0.
 A-vector RMS=  1.7156908D-06 Max=  7.7655137D-06 conv= 1.00D-05.
 RLE energy=       -0.2428671842
 DE(Corr)= -0.24286732     E(CORR)=     -33.905009570     Delta= 3.04D-07
 NORM(A)=   0.10457558D+01
 Iteration Nr.   9
 **********************
 DD1Dir will call FoFMem   1 times, MxPair=        72
 NAB=    36 NAA=     0 NBB=     0.
 A-vector RMS=  4.9360416D-07 Max=  2.2976580D-06 conv= 1.00D-05.
 RLE energy=       -0.2428673878
 DE(Corr)= -0.24286743     E(CORR)=     -33.905009683     Delta=-1.13D-07
 NORM(A)=   0.10457560D+01
 Iteration Nr.  10
 **********************
 DD1Dir will call FoFMem   1 times, MxPair=        72
 NAB=    36 NAA=     0 NBB=     0.
 A-vector RMS=  1.3846252D-07 Max=  5.8810857D-07 conv= 1.00D-05.
 RLE energy=       -0.2428675383
 DE(Corr)= -0.24286751     E(CORR)=     -33.905009765     Delta=-8.17D-08
 NORM(A)=   0.10457561D+01
 CI/CC converged in   10 iterations to DelEn=-8.17D-08 Conv= 1.00D-07 ErrA1= 1.38D-07 Conv= 1.00D-05
 Wavefunction amplitudes converged. E(Corr)=     -33.905009765    
 Largest amplitude= 5.00D-02
 IPart=  3 IA=    2   12.50% done.
 IPart=  4 IA=    3   24.17% done.
 IPart=  2 IA=    4   35.00% done.
 IPart=  2 IA=    5   45.00% done.
 IPart=  4 IA=    6   54.17% done.
 IPart=  1 IA=    7   62.50% done.
 IPart=  3 IA=    8   70.00% done.
 IPart=  1 IA=   10   82.50% done.
 IPart=  4 IA=   12   91.67% done.
 Time for triples=        0.25 seconds.
 T4(CCSD)= -0.32346260D-02
 T5(CCSD)=  0.53810525D-03
 CCSD(T)= -0.33907706285D+02
 Discarding MO integrals.
 Leave Link  913 at Sun Dec 10 06:44:57 2023, MaxMem=   536870912 cpu:               0.9 elap:               0.3
 (Enter /usr/site/hpc/x86_64/glibc-2.17/broadwell/gaussian/g16_a.03/pgi-16.5/g16/l601.exe)
 Copying SCF densities to generalized density rwf, IOpCl= 0 IROHF=0.

 **********************************************************************

            Population analysis using the SCF density.

 **********************************************************************

 Orbital symmetries:
       Occupied  (A') (A') (A') (A') (A') (A") (A') (A")
       Virtual   (A') (A') (A') (A') (A") (A') (A") (A') (A') (A')
                 (A') (A') (A') (A') (A') (A')
 The electronic state is 1-A'.
 Alpha  occ. eigenvalues --   -1.38109  -1.32108  -0.73757  -0.68114  -0.58679
 Alpha  occ. eigenvalues --   -0.52823  -0.51878  -0.46790
 Alpha virt. eigenvalues --    0.17886   0.25516   0.28504   0.40240   0.76805
 Alpha virt. eigenvalues --    0.79771   0.84733   0.86333   0.91095   1.00005
 Alpha virt. eigenvalues --    1.15228   1.18947   1.21780   1.34622   2.49931
 Alpha virt. eigenvalues --    3.14914
          Condensed to atoms (all electrons):
               1          2          3          4          5          6
     1  O    6.246762   0.278076   0.262595  -0.003785   0.000117   0.000050
     2  H    0.278076   0.328216  -0.023903  -0.008025   0.000513   0.000503
     3  H    0.262595  -0.023903   0.403478   0.000533  -0.000003  -0.000012
     4  O   -0.003785  -0.008025   0.000533   6.259429   0.268875   0.270878
     5  H    0.000117   0.000513  -0.000003   0.268875   0.359721  -0.022800
     6  H    0.000050   0.000503  -0.000012   0.270878  -0.022800   0.355167
 Mulliken charges:
               1
     1  O   -0.783815
     2  H    0.424619
     3  H    0.357312
     4  O   -0.787906
     5  H    0.393576
     6  H    0.396214
 Sum of Mulliken charges =  -0.00000
 Mulliken charges with hydrogens summed into heavy atoms:
               1
     1  O   -0.001884
     4  O    0.001884
 Electronic spatial extent (au):  <R**2>=            183.3706
 Charge=             -0.0000 electrons
 Dipole moment (field-independent basis, Debye):
    X=             -1.5116    Y=             -4.5133    Z=              0.0000  Tot=              4.7597
 Quadrupole moment (field-independent basis, Debye-Ang):
   XX=             -9.4016   YY=             -8.2425   ZZ=            -15.0114
   XY=             -5.0173   XZ=              0.0000   YZ=             -0.0000
 Traceless Quadrupole moment (field-independent basis, Debye-Ang):
   XX=              1.4836   YY=              2.6427   ZZ=             -4.1262
   XY=             -5.0173   XZ=              0.0000   YZ=             -0.0000
 Octapole moment (field-independent basis, Debye-Ang**2):
  XXX=             -0.7432  YYY=            -30.6103  ZZZ=              0.0000  XYY=             -9.2238
  XXY=             -3.4732  XXZ=              0.0000  XZZ=             -0.2830  YZZ=             -0.9314
  YYZ=              0.0000  XYZ=              0.0000
 Hexadecapole moment (field-independent basis, Debye-Ang**3):
 XXXX=            -11.6444 YYYY=           -169.3757 ZZZZ=            -12.2661 XXXY=             -2.7321
 XXXZ=              0.0000 YYYX=            -13.6705 YYYZ=              0.0000 ZZZX=             -0.0000
 ZZZY=              0.0000 XXYY=            -23.2558 XXZZ=             -4.5540 YYZZ=            -42.1333
 XXYZ=              0.0000 YYXZ=              0.0000 ZZXY=              0.6041
 N-N= 2.431234695427D+01 E-N=-1.303101252246D+02  KE= 2.680629587914D+01
 Symmetry A'   KE= 1.795059100847D+01
 Symmetry A"   KE= 8.855704870672D+00
 Leave Link  601 at Sun Dec 10 06:44:57 2023, MaxMem=   536870912 cpu:               0.1 elap:               0.0
 (Enter /usr/site/hpc/x86_64/glibc-2.17/broadwell/gaussian/g16_a.03/pgi-16.5/g16/l9999.exe)
 1\1\GINC-N044\SP\RCCSD(T)-FC\CEP-31G\H4O2\ROOT\10-Dec-2023\0\\#p CCSD(
 T)/CEP-31G\\H2O_H2O_1393\\0,1\O,0,0.,-0.009833,0.\H,0,-0.799571,-0.580
 965,0.\H,0,0.799571,-0.580965,0.\O,0,-2.562459,-1.827632,0.\H,0,-3.396
 099,-1.307487,0.\H,0,-2.784133,-2.784903,0.\\Version=ES64L-G16RevA.03\
 State=1-A'\HF=-33.6621423\MP2=-33.8909873\MP3=-33.8961289\MP4D=-33.901
 207\MP4DQ=-33.9019223\MP4SDQ=-33.9040166\CCSD=-33.9050098\CCSD(T)=-33.
 9077063\RMSD=1.353e-09\PG=CS [SG(H4O2)]\\@


 "PERFECTION IS NOT AN ACCIDENT"
         --  EAGLE ELECTRIC MANUFACTURING CO.,INC. NY
 Job cpu time:       0 days  0 hours  0 minutes  4.0 seconds.
 Elapsed time:       0 days  0 hours  0 minutes  1.1 seconds.
 File lengths (MBytes):  RWF=     72 Int=      0 D2E=      0 Chk=      8 Scr=      8
 Normal termination of Gaussian 16 at Sun Dec 10 06:44:57 2023.
