 Entering Gaussian System, Link 0=g16
 Input=H2O_H2O_98.com
 Output=H2O_H2O_98.log
 Initial command:
 /usr/site/hpc/x86_64/glibc-2.17/broadwell/gaussian/g16_a.03/pgi-16.5/g16/l1.exe "/gpfs/gpfs1/scratch/c7441090/OH Coord/Gau-1614110.inp" -scrdir="/gpfs/gpfs1/scratch/c7441090/OH Coord/"
 Entering Link 1 = /usr/site/hpc/x86_64/glibc-2.17/broadwell/gaussian/g16_a.03/pgi-16.5/g16/l1.exe PID=   1614111.
  
 Copyright (c) 1988,1990,1992,1993,1995,1998,2003,2009,2016,
            Gaussian, Inc.  All Rights Reserved.
  
 This is part of the Gaussian(R) 16 program.  It is based on
 the Gaussian(R) 09 system (copyright 2009, Gaussian, Inc.),
 the Gaussian(R) 03 system (copyright 2003, Gaussian, Inc.),
 the Gaussian(R) 98 system (copyright 1998, Gaussian, Inc.),
 the Gaussian(R) 94 system (copyright 1995, Gaussian, Inc.),
 the Gaussian 92(TM) system (copyright 1992, Gaussian, Inc.),
 the Gaussian 90(TM) system (copyright 1990, Gaussian, Inc.),
 the Gaussian 88(TM) system (copyright 1988, Gaussian, Inc.),
 the Gaussian 86(TM) system (copyright 1986, Carnegie Mellon
 University), and the Gaussian 82(TM) system (copyright 1983,
 Carnegie Mellon University). Gaussian is a federally registered
 trademark of Gaussian, Inc.
  
 This software contains proprietary and confidential information,
 including trade secrets, belonging to Gaussian, Inc.
  
 This software is provided under written license and may be
 used, copied, transmitted, or stored only in accord with that
 written license.
  
 The following legend is applicable only to US Government
 contracts under FAR:
  
                    RESTRICTED RIGHTS LEGEND
  
 Use, reproduction and disclosure by the US Government is
 subject to restrictions as set forth in subparagraphs (a)
 and (c) of the Commercial Computer Software - Restricted
 Rights clause in FAR 52.227-19.
  
 Gaussian, Inc.
 340 Quinnipiac St., Bldg. 40, Wallingford CT 06492
  
  
 ---------------------------------------------------------------
 Warning -- This program may not be used in any manner that
 competes with the business of Gaussian, Inc. or will provide
 assistance to any competitor of Gaussian, Inc.  The licensee
 of this program is prohibited from giving any competitor of
 Gaussian, Inc. access to this program.  By using this program,
 the user acknowledges that Gaussian, Inc. is engaged in the
 business of creating and licensing software in the field of
 computational chemistry and represents and warrants to the
 licensee that it is not a competitor of Gaussian, Inc. and that
 it will not use this program in any manner prohibited above.
 ---------------------------------------------------------------
  

 Cite this work as:
 Gaussian 16, Revision A.03,
 M. J. Frisch, G. W. Trucks, H. B. Schlegel, G. E. Scuseria, 
 M. A. Robb, J. R. Cheeseman, G. Scalmani, V. Barone, 
 G. A. Petersson, H. Nakatsuji, X. Li, M. Caricato, A. V. Marenich, 
 J. Bloino, B. G. Janesko, R. Gomperts, B. Mennucci, H. P. Hratchian, 
 J. V. Ortiz, A. F. Izmaylov, J. L. Sonnenberg, D. Williams-Young, 
 F. Ding, F. Lipparini, F. Egidi, J. Goings, B. Peng, A. Petrone, 
 T. Henderson, D. Ranasinghe, V. G. Zakrzewski, J. Gao, N. Rega, 
 G. Zheng, W. Liang, M. Hada, M. Ehara, K. Toyota, R. Fukuda, 
 J. Hasegawa, M. Ishida, T. Nakajima, Y. Honda, O. Kitao, H. Nakai, 
 T. Vreven, K. Throssell, J. A. Montgomery, Jr., J. E. Peralta, 
 F. Ogliaro, M. J. Bearpark, J. J. Heyd, E. N. Brothers, K. N. Kudin, 
 V. N. Staroverov, T. A. Keith, R. Kobayashi, J. Normand, 
 K. Raghavachari, A. P. Rendell, J. C. Burant, S. S. Iyengar, 
 J. Tomasi, M. Cossi, J. M. Millam, M. Klene, C. Adamo, R. Cammi, 
 J. W. Ochterski, R. L. Martin, K. Morokuma, O. Farkas, 
 J. B. Foresman, and D. J. Fox, Gaussian, Inc., Wallingford CT, 2016.
 
 ******************************************
 Gaussian 16:  ES64L-G16RevA.03 25-Dec-2016
                10-Dec-2023 
 ******************************************
 %NProcShared=4
 Will use up to    4 processors via shared memory.
 %Mem=4GB
 %Chk=H2O_H2O_98.chk
 ------------------
 #p CCSD(T)/CEP-31G
 ------------------
 1/38=1,172=1/1;
 2/12=2,17=6,18=5,40=1/2;
 3/5=9,6=1,11=9,25=1,30=1/1,2,3;
 4//1;
 5/5=2,38=5/2;
 8/6=4,9=120000,10=1/1,4;
 9/5=7,14=2/13;
 6/7=2,8=2,9=2,10=2/1;
 99/5=1,9=1/99;
 Leave Link    1 at Sun Dec 10 06:19:57 2023, MaxMem=   536870912 cpu:               0.3 elap:               0.1
 (Enter /usr/site/hpc/x86_64/glibc-2.17/broadwell/gaussian/g16_a.03/pgi-16.5/g16/l101.exe)
 ----------
 H2O_H2O_98
 ----------
 Symbolic Z-matrix:
 Charge =  0 Multiplicity = 1
 O                     0.       -0.00983   0. 
 H                    -0.79957  -0.58097   0. 
 H                     0.79957  -0.58097   0. 
 O                    -1.71928  -1.22172   0. 
 H                    -2.34149  -0.46121   0. 
 H                    -2.2369   -2.05693   0. 
 
 ITRead=  0  0  0  0  0  0
 MicOpt= -1 -1 -1 -1 -1 -1
 NAtoms=      6 NQM=        6 NQMF=       0 NMMI=      0 NMMIF=      0
                NMic=       0 NMicF=      0.
                    Isotopes and Nuclear Properties:
 (Nuclear quadrupole moments (NQMom) in fm**2, nuclear magnetic moments (NMagM)
  in nuclear magnetons)

  Atom         1           2           3           4           5           6
 IAtWgt=          16           1           1          16           1           1
 AtmWgt=  15.9949146   1.0078250   1.0078250  15.9949146   1.0078250   1.0078250
 NucSpn=           0           1           1           0           1           1
 AtZEff=  -0.0000000  -0.0000000  -0.0000000  -0.0000000  -0.0000000  -0.0000000
 NQMom=    0.0000000   0.0000000   0.0000000   0.0000000   0.0000000   0.0000000
 NMagM=    0.0000000   2.7928460   2.7928460   0.0000000   2.7928460   2.7928460
 AtZNuc=   8.0000000   1.0000000   1.0000000   8.0000000   1.0000000   1.0000000
 Leave Link  101 at Sun Dec 10 06:19:57 2023, MaxMem=   536870912 cpu:               0.7 elap:               0.2
 (Enter /usr/site/hpc/x86_64/glibc-2.17/broadwell/gaussian/g16_a.03/pgi-16.5/g16/l202.exe)
                          Input orientation:                          
 ---------------------------------------------------------------------
 Center     Atomic      Atomic             Coordinates (Angstroms)
 Number     Number       Type             X           Y           Z
 ---------------------------------------------------------------------
      1          8           0        0.000000   -0.009833    0.000000
      2          1           0       -0.799571   -0.580965    0.000000
      3          1           0        0.799571   -0.580965    0.000000
      4          8           0       -1.719284   -1.221715    0.000000
      5          1           0       -2.341487   -0.461209    0.000000
      6          1           0       -2.236898   -2.056928    0.000000
 ---------------------------------------------------------------------
                    Distance matrix (angstroms):
                    1          2          3          4          5
     1  O    0.000000
     2  H    0.982601   0.000000
     3  H    0.982601   1.599142   0.000000
     4  O    2.103472   1.120907   2.599075   0.000000
     5  H    2.384597   1.546560   3.143340   0.982602   0.000000
     6  H    3.032212   2.060188   3.376183   0.982601   1.599143
                    6
     6  H    0.000000
 Stoichiometry    H4O2
 Framework group  CS[SG(H4O2)]
 Deg. of freedom     9
 Full point group                 CS      NOp   2
 Largest Abelian subgroup         CS      NOp   2
 Largest concise Abelian subgroup C1      NOp   1
                         Standard orientation:                         
 ---------------------------------------------------------------------
 Center     Atomic      Atomic             Coordinates (Angstroms)
 Number     Number       Type             X           Y           Z
 ---------------------------------------------------------------------
      1          8           0        0.016901   -1.133375    0.000000
      2          1           0        0.010743   -0.150793    0.000000
      3          1           0       -0.910577   -1.457860    0.000000
      4          8           0        0.016901    0.970097    0.000000
      5          1           0        0.996976    1.040505    0.000000
      6          1           0       -0.367550    1.874367    0.000000
 ---------------------------------------------------------------------
 Rotational constants (GHZ):         264.1510575          11.9146836          11.4004594
 Leave Link  202 at Sun Dec 10 06:19:57 2023, MaxMem=   536870912 cpu:               0.0 elap:               0.0
 (Enter /usr/site/hpc/x86_64/glibc-2.17/broadwell/gaussian/g16_a.03/pgi-16.5/g16/l301.exe)
 Standard basis: CEP-31G (6D, 10F)
 Ernie: Thresh=  0.10000D-02 Tol=  0.10000D-05 Strict=F.
 There are    20 symmetry adapted cartesian basis functions of A'  symmetry.
 There are     4 symmetry adapted cartesian basis functions of A"  symmetry.
 There are    20 symmetry adapted basis functions of A'  symmetry.
 There are     4 symmetry adapted basis functions of A"  symmetry.
    24 basis functions,    48 primitive gaussians,    24 cartesian basis functions
     8 alpha electrons        8 beta electrons
       nuclear repulsion energy        30.0004994403 Hartrees.
 IExCor=    0 DFT=F Ex=HF Corr=None ExCW=0 ScaHFX=  1.000000
 ScaDFX=  1.000000  1.000000  1.000000  1.000000 ScalE2=  1.000000  1.000000
 IRadAn=      5 IRanWt=     -1 IRanGd=            0 ICorTp=0 IEmpDi=  4
 NAtoms=    6 NActive=    6 NUniq=    6 SFac= 1.00D+00 NAtFMM=   60 NAOKFM=F Big=F
 Integral buffers will be    131072 words long.
 Raffenetti 1 integral format.
 Two-electron integral symmetry is turned on.
 Leave Link  301 at Sun Dec 10 06:19:57 2023, MaxMem=   536870912 cpu:               0.2 elap:               0.0
 (Enter /usr/site/hpc/x86_64/glibc-2.17/broadwell/gaussian/g16_a.03/pgi-16.5/g16/l302.exe)
 NPDir=0 NMtPBC=     1 NCelOv=     1 NCel=       1 NClECP=     1 NCelD=      1
         NCelK=      1 NCelE2=     1 NClLst=     1 CellRange=     0.0.
 One-electron integrals computed using PRISM.
 One-electron integral symmetry used in STVInt
   2 Symmetry operations used in ECPInt.
 ECPInt:  NShTT=      78 NPrTT=     318 LenC2=      79 LenP2D=     301.
 LDataN:  DoStor=T MaxTD1= 2 Len=   12
 NBasis=    24 RedAO= T EigKep=  2.78D-03  NBF=    20     4
 NBsUse=    24 1.00D-06 EigRej= -1.00D+00 NBFU=    20     4
 Leave Link  302 at Sun Dec 10 06:19:57 2023, MaxMem=   536870912 cpu:               0.3 elap:               0.1
 (Enter /usr/site/hpc/x86_64/glibc-2.17/broadwell/gaussian/g16_a.03/pgi-16.5/g16/l303.exe)
 DipDrv:  MaxL=1.
 Leave Link  303 at Sun Dec 10 06:19:57 2023, MaxMem=   536870912 cpu:               0.1 elap:               0.0
 (Enter /usr/site/hpc/x86_64/glibc-2.17/broadwell/gaussian/g16_a.03/pgi-16.5/g16/l401.exe)
 ExpMin= 1.78D-01 ExpMax= 1.92D+01 ExpMxC= 1.92D+01 IAcc=3 IRadAn=         5 AccDes= 0.00D+00
 Harris functional with IExCor=  205 and IRadAn=       5 diagonalized for initial guess.
 HarFok:  IExCor=  205 AccDes= 0.00D+00 IRadAn=         5 IDoV= 1 UseB2=F ITyADJ=14
 ICtDFT=  3500011 ScaDFX=  1.000000  1.000000  1.000000  1.000000
 FoFCou: FMM=F IPFlag=           0 FMFlag=      100000 FMFlg1=           0
         NFxFlg=           0 DoJE=T BraDBF=F KetDBF=T FulRan=T
         wScrn=  0.000000 ICntrl=       500 IOpCl=  0 I1Cent=   200000004 NGrid=           0
         NMat0=    1 NMatS0=      1 NMatT0=    0 NMatD0=    1 NMtDS0=    0 NMtDT0=    0
 Petite list used in FoFCou.
 Harris En= -34.4552427605603    
 JPrj=0 DoOrth=F DoCkMO=F.
 Initial guess orbital symmetries:
       Occupied  (A') (A') (A') (A') (A') (A") (A') (A")
       Virtual   (A') (A') (A') (A') (A") (A') (A') (A") (A') (A')
                 (A') (A') (A') (A') (A') (A')
 The electronic state of the initial guess is 1-A'.
 Leave Link  401 at Sun Dec 10 06:19:57 2023, MaxMem=   536870912 cpu:               0.4 elap:               0.1
 (Enter /usr/site/hpc/x86_64/glibc-2.17/broadwell/gaussian/g16_a.03/pgi-16.5/g16/l502.exe)
 Keep R1 ints in memory in symmetry-blocked form, NReq=852814.
 FoFCou: FMM=F IPFlag=           0 FMFlag=           0 FMFlg1=           0
         NFxFlg=           0 DoJE=F BraDBF=F KetDBF=F FulRan=T
         wScrn=  0.000000 ICntrl=       600 IOpCl=  0 I1Cent=           0 NGrid=           0
         NMat0=    1 NMatS0=    300 NMatT0=    0 NMatD0=    1 NMtDS0=    0 NMtDT0=    0
 Petite list used in FoFCou.
 Closed shell SCF:
 Using DIIS extrapolation, IDIIS=  1040.
 NGot=   536870912 LenX=   536840564 LenY=   536839547
 Requested convergence on RMS density matrix=1.00D-08 within 128 cycles.
 Requested convergence on MAX density matrix=1.00D-06.
 Requested convergence on             energy=1.00D-06.
 No special actions if energy rises.

 Cycle   1  Pass 1  IDiag  1:
 E= -33.4916473721092    
 DIIS: error= 5.60D-02 at cycle   1 NSaved=   1.
 NSaved= 1 IEnMin= 1 EnMin= -33.4916473721092     IErMin= 1 ErrMin= 5.60D-02
 ErrMax= 5.60D-02  0.00D+00 EMaxC= 1.00D-01 BMatC= 1.11D-01 BMatP= 1.11D-01
 IDIUse=3 WtCom= 4.40D-01 WtEn= 5.60D-01
 Coeff-Com:  0.100D+01
 Coeff-En:   0.100D+01
 Coeff:      0.100D+01
 Gap=     0.473 Goal=   None    Shift=    0.000
 GapD=    0.473 DampG=2.000 DampE=0.500 DampFc=1.0000 IDamp=-1.
 RMSDP=2.57D-02 MaxDP=1.50D-01              OVMax= 1.27D-01

 Cycle   2  Pass 1  IDiag  1:
 E= -33.5644512987809     Delta-E=       -0.072803926672 Rises=F Damp=F
 DIIS: error= 3.55D-02 at cycle   2 NSaved=   2.
 NSaved= 2 IEnMin= 2 EnMin= -33.5644512987809     IErMin= 2 ErrMin= 3.55D-02
 ErrMax= 3.55D-02  0.00D+00 EMaxC= 1.00D-01 BMatC= 3.85D-02 BMatP= 1.11D-01
 IDIUse=3 WtCom= 6.45D-01 WtEn= 3.55D-01
 Coeff-Com:  0.367D+00 0.633D+00
 Coeff-En:   0.525D-01 0.947D+00
 Coeff:      0.255D+00 0.745D+00
 Gap=     0.593 Goal=   None    Shift=    0.000
 RMSDP=8.64D-03 MaxDP=6.81D-02 DE=-7.28D-02 OVMax= 4.82D-02

 Cycle   3  Pass 1  IDiag  1:
 E= -33.5950342337289     Delta-E=       -0.030582934948 Rises=F Damp=F
 DIIS: error= 6.28D-03 at cycle   3 NSaved=   3.
 NSaved= 3 IEnMin= 3 EnMin= -33.5950342337289     IErMin= 3 ErrMin= 6.28D-03
 ErrMax= 6.28D-03  0.00D+00 EMaxC= 1.00D-01 BMatC= 1.22D-03 BMatP= 3.85D-02
 IDIUse=3 WtCom= 9.37D-01 WtEn= 6.28D-02
 Coeff-Com: -0.817D-01 0.419D-01 0.104D+01
 Coeff-En:   0.000D+00 0.000D+00 0.100D+01
 Coeff:     -0.766D-01 0.393D-01 0.104D+01
 Gap=     0.577 Goal=   None    Shift=    0.000
 RMSDP=2.24D-03 MaxDP=1.39D-02 DE=-3.06D-02 OVMax= 1.06D-02

 Cycle   4  Pass 1  IDiag  1:
 E= -33.5961647189967     Delta-E=       -0.001130485268 Rises=F Damp=F
 DIIS: error= 7.91D-04 at cycle   4 NSaved=   4.
 NSaved= 4 IEnMin= 4 EnMin= -33.5961647189967     IErMin= 4 ErrMin= 7.91D-04
 ErrMax= 7.91D-04  0.00D+00 EMaxC= 1.00D-01 BMatC= 1.89D-05 BMatP= 1.22D-03
 IDIUse=3 WtCom= 9.92D-01 WtEn= 7.91D-03
 Coeff-Com: -0.328D-01-0.188D-01 0.240D+00 0.812D+00
 Coeff-En:   0.000D+00 0.000D+00 0.000D+00 0.100D+01
 Coeff:     -0.325D-01-0.186D-01 0.238D+00 0.813D+00
 Gap=     0.581 Goal=   None    Shift=    0.000
 RMSDP=2.92D-04 MaxDP=1.76D-03 DE=-1.13D-03 OVMax= 1.32D-03

 Cycle   5  Pass 1  IDiag  1:
 E= -33.5961869613298     Delta-E=       -0.000022242333 Rises=F Damp=F
 DIIS: error= 2.14D-04 at cycle   5 NSaved=   5.
 NSaved= 5 IEnMin= 5 EnMin= -33.5961869613298     IErMin= 5 ErrMin= 2.14D-04
 ErrMax= 2.14D-04  0.00D+00 EMaxC= 1.00D-01 BMatC= 1.50D-06 BMatP= 1.89D-05
 IDIUse=3 WtCom= 9.98D-01 WtEn= 2.14D-03
 Coeff-Com:  0.127D-01-0.419D-02-0.152D+00-0.139D-01 0.116D+01
 Coeff-En:   0.000D+00 0.000D+00 0.000D+00 0.000D+00 0.100D+01
 Coeff:      0.126D-01-0.418D-02-0.152D+00-0.139D-01 0.116D+01
 Gap=     0.581 Goal=   None    Shift=    0.000
 RMSDP=1.55D-04 MaxDP=9.13D-04 DE=-2.22D-05 OVMax= 6.19D-04

 Cycle   6  Pass 1  IDiag  1:
 E= -33.5961896383605     Delta-E=       -0.000002677031 Rises=F Damp=F
 DIIS: error= 3.98D-05 at cycle   6 NSaved=   6.
 NSaved= 6 IEnMin= 6 EnMin= -33.5961896383605     IErMin= 6 ErrMin= 3.98D-05
 ErrMax= 3.98D-05  0.00D+00 EMaxC= 1.00D-01 BMatC= 2.67D-08 BMatP= 1.50D-06
 IDIUse=1 WtCom= 1.00D+00 WtEn= 0.00D+00
 Coeff-Com: -0.312D-02 0.152D-02 0.413D-01-0.241D-01-0.344D+00 0.133D+01
 Coeff:     -0.312D-02 0.152D-02 0.413D-01-0.241D-01-0.344D+00 0.133D+01
 Gap=     0.581 Goal=   None    Shift=    0.000
 RMSDP=2.24D-05 MaxDP=1.32D-04 DE=-2.68D-06 OVMax= 1.10D-04

 Cycle   7  Pass 1  IDiag  1:
 E= -33.5961897041340     Delta-E=       -0.000000065774 Rises=F Damp=F
 DIIS: error= 5.37D-06 at cycle   7 NSaved=   7.
 NSaved= 7 IEnMin= 7 EnMin= -33.5961897041340     IErMin= 7 ErrMin= 5.37D-06
 ErrMax= 5.37D-06  0.00D+00 EMaxC= 1.00D-01 BMatC= 5.49D-10 BMatP= 2.67D-08
 IDIUse=1 WtCom= 1.00D+00 WtEn= 0.00D+00
 Coeff-Com:  0.752D-03-0.362D-03-0.101D-01 0.772D-02 0.851D-01-0.415D+00
 Coeff-Com:  0.133D+01
 Coeff:      0.752D-03-0.362D-03-0.101D-01 0.772D-02 0.851D-01-0.415D+00
 Coeff:      0.133D+01
 Gap=     0.581 Goal=   None    Shift=    0.000
 RMSDP=3.34D-06 MaxDP=1.81D-05 DE=-6.58D-08 OVMax= 2.49D-05

 Cycle   8  Pass 1  IDiag  1:
 E= -33.5961897057098     Delta-E=       -0.000000001576 Rises=F Damp=F
 DIIS: error= 1.17D-06 at cycle   8 NSaved=   8.
 NSaved= 8 IEnMin= 8 EnMin= -33.5961897057098     IErMin= 8 ErrMin= 1.17D-06
 ErrMax= 1.17D-06  0.00D+00 EMaxC= 1.00D-01 BMatC= 2.71D-11 BMatP= 5.49D-10
 IDIUse=1 WtCom= 1.00D+00 WtEn= 0.00D+00
 Coeff-Com: -0.124D-03 0.465D-04 0.165D-02-0.152D-02-0.127D-01 0.733D-01
 Coeff-Com: -0.376D+00 0.132D+01
 Coeff:     -0.124D-03 0.465D-04 0.165D-02-0.152D-02-0.127D-01 0.733D-01
 Coeff:     -0.376D+00 0.132D+01
 Gap=     0.581 Goal=   None    Shift=    0.000
 RMSDP=6.51D-07 MaxDP=4.18D-06 DE=-1.58D-09 OVMax= 5.87D-06

 Cycle   9  Pass 1  IDiag  1:
 E= -33.5961897057890     Delta-E=       -0.000000000079 Rises=F Damp=F
 DIIS: error= 2.79D-07 at cycle   9 NSaved=   9.
 NSaved= 9 IEnMin= 9 EnMin= -33.5961897057890     IErMin= 9 ErrMin= 2.79D-07
 ErrMax= 2.79D-07  0.00D+00 EMaxC= 1.00D-01 BMatC= 1.43D-12 BMatP= 2.71D-11
 IDIUse=1 WtCom= 1.00D+00 WtEn= 0.00D+00
 Coeff-Com:  0.138D-04-0.291D-06-0.166D-03 0.193D-03 0.705D-03-0.625D-02
 Coeff-Com:  0.629D-01-0.462D+00 0.140D+01
 Coeff:      0.138D-04-0.291D-06-0.166D-03 0.193D-03 0.705D-03-0.625D-02
 Coeff:      0.629D-01-0.462D+00 0.140D+01
 Gap=     0.581 Goal=   None    Shift=    0.000
 RMSDP=2.21D-07 MaxDP=1.19D-06 DE=-7.91D-11 OVMax= 1.72D-06

 Cycle  10  Pass 1  IDiag  1:
 E= -33.5961897057936     Delta-E=       -0.000000000005 Rises=F Damp=F
 DIIS: error= 3.26D-08 at cycle  10 NSaved=  10.
 NSaved=10 IEnMin=10 EnMin= -33.5961897057936     IErMin=10 ErrMin= 3.26D-08
 ErrMax= 3.26D-08  0.00D+00 EMaxC= 1.00D-01 BMatC= 2.11D-14 BMatP= 1.43D-12
 IDIUse=1 WtCom= 1.00D+00 WtEn= 0.00D+00
 Coeff-Com: -0.574D-06-0.112D-05 0.285D-05-0.108D-04 0.141D-03-0.317D-03
 Coeff-Com: -0.545D-02 0.784D-01-0.339D+00 0.127D+01
 Coeff:     -0.574D-06-0.112D-05 0.285D-05-0.108D-04 0.141D-03-0.317D-03
 Coeff:     -0.545D-02 0.784D-01-0.339D+00 0.127D+01
 Gap=     0.581 Goal=   None    Shift=    0.000
 RMSDP=3.32D-08 MaxDP=2.12D-07 DE=-4.63D-12 OVMax= 1.84D-07

 Cycle  11  Pass 1  IDiag  1:
 E= -33.5961897057937     Delta-E=       -0.000000000000 Rises=F Damp=F
 DIIS: error= 5.13D-09 at cycle  11 NSaved=  11.
 NSaved=11 IEnMin=11 EnMin= -33.5961897057937     IErMin=11 ErrMin= 5.13D-09
 ErrMax= 5.13D-09  0.00D+00 EMaxC= 1.00D-01 BMatC= 6.91D-16 BMatP= 2.11D-14
 IDIUse=1 WtCom= 1.00D+00 WtEn= 0.00D+00
 Coeff-Com: -0.236D-06 0.428D-06 0.434D-05-0.194D-05-0.774D-04 0.310D-03
 Coeff-Com:  0.184D-03-0.157D-01 0.826D-01-0.451D+00 0.138D+01
 Coeff:     -0.236D-06 0.428D-06 0.434D-05-0.194D-05-0.774D-04 0.310D-03
 Coeff:      0.184D-03-0.157D-01 0.826D-01-0.451D+00 0.138D+01
 Gap=     0.581 Goal=   None    Shift=    0.000
 RMSDP=5.78D-09 MaxDP=3.54D-08 DE=-8.53D-14 OVMax= 3.54D-08

 SCF Done:  E(RHF) =  -33.5961897058     A.U. after   11 cycles
            NFock= 11  Conv=0.58D-08     -V/T= 2.2275
 KE= 2.736894709949D+01 PE=-1.419531914712D+02 EE= 5.098755522561D+01
 Leave Link  502 at Sun Dec 10 06:19:57 2023, MaxMem=   536870912 cpu:               0.4 elap:               0.1
 (Enter /usr/site/hpc/x86_64/glibc-2.17/broadwell/gaussian/g16_a.03/pgi-16.5/g16/l801.exe)
 Windowed orbitals will be sorted by symmetry type.
 Range of M.O.s used for correlation:     1    24
 NBasis=    24 NAE=     8 NBE=     8 NFC=     0 NFV=     0
 NROrb=     24 NOA=     8 NOB=     8 NVA=    16 NVB=    16

 **** Warning!!: The largest alpha MO coefficient is  0.11452154D+02

 Leave Link  801 at Sun Dec 10 06:19:58 2023, MaxMem=   536870912 cpu:               0.1 elap:               0.0
 (Enter /usr/site/hpc/x86_64/glibc-2.17/broadwell/gaussian/g16_a.03/pgi-16.5/g16/l804.exe)
 Closed-shell transformation, MDV=   536870912 ITran=4 ISComp=2.
 Unit  1 TFree=       1025975 TCopy=        210612.
 Semi-Direct transformation.
 ModeAB=           2 MOrb=             8 LenV=     536741361
 LASXX=        22470 LTotXX=       22470 LenRXX=       22470
 LTotAB=       26208 MaxLAS=       57600 LenRXY=       57600
 NonZer=       62208 LenScr=      524288 LnRSAI=           0
 LnScr1=           0 LExtra=           0 Total=       604358
 MaxDsk=          -1 SrtSym=           F ITran=            4
 DoSDTr:  NPSUse=  4
 JobTyp=0 Pass  1:  I=   1 to   8.
 (rs|ai) integrals will be sorted in core.
 Complete sort for first half transformation.
 First half transformation complete.
 Complete sort for second half transformation.
 Second half transformation complete.
 Spin components of T(2) and E(2):
     alpha-alpha T2 =       0.9160883632D-02 E2=     -0.2684153190D-01
     alpha-beta  T2 =       0.5707366153D-01 E2=     -0.1731087002D+00
     beta-beta   T2 =       0.9160883632D-02 E2=     -0.2684153190D-01
 ANorm=    0.1037012743D+01
 E2 =    -0.2267917640D+00 EUMP2 =    -0.33822981469769D+02
 Leave Link  804 at Sun Dec 10 06:19:58 2023, MaxMem=   536870912 cpu:               0.2 elap:               0.1
 (Enter /usr/site/hpc/x86_64/glibc-2.17/broadwell/gaussian/g16_a.03/pgi-16.5/g16/l913.exe)
 CIDS:  MDV=   536870912.
 IFCWin=0 IBDFC=1 NFBD=     0     0 NFCmp=     0     0 NFFFC=     0     0
 Using DD3R+UMP44R for 1st iteration.
 Using DD4RQ for 2nd and later iterations.
 Keep R2 and R3 ints in memory in symmetry-blocked form, NReq=865422.
 FoFCou: FMM=F IPFlag=           0 FMFlag=           0 FMFlg1=           0
         NFxFlg=           0 DoJE=F BraDBF=F KetDBF=F FulRan=T
         wScrn=  0.000000 ICntrl=       600 IOpCl=  0 I1Cent=           0 NGrid=           0
         NMat0=    1 NMatS0=    300 NMatT0=    0 NMatD0=    1 NMtDS0=    0 NMtDT0=    0
 Petite list used in FoFCou.
 CIDS: In Core Option IDoMem=           1.
 CCSD(T)
 =======
 Iterations=  50 Convergence= 0.100D-06
 Produce multiple copies of IABC intergrals
 Iteration Nr.   1
 **********************
 DD1Dir will call FoFMem   1 times, MxPair=        72
 NAB=    36 NAA=     0 NBB=     0.
 MP4(R+Q)= -0.62372317D-03
 Maximum subspace dimension=  5
 A-vector RMS=  6.1884527D-03 Max=  1.3907693D-02 conv= 1.00D-05.
 RLE energy=       -0.2303774589
 E3=       -0.32076811D-02        EUMP3=      -0.33826189151D+02
 E4(DQ)=   -0.53646701D-02        UMP4(DQ)=   -0.33831553821D+02
 E4(SDQ)=  -0.77202714D-02        UMP4(SDQ)=  -0.33833909422D+02
 VARIATIONAL ENERGIES WITH THE FIRST-ORDER WAVEFUNCTION:
 DE(Corr)= -0.23032206     E(Corr)=     -33.826511763    
 NORM(A)=   0.10396088D+01
 Iteration Nr.   2
 **********************
 DD1Dir will call FoFMem   1 times, MxPair=        72
 NAB=    36 NAA=     0 NBB=     0.
 A-vector RMS=  9.5586153D-04 Max=  2.6694176D-03 conv= 1.00D-05.
 RLE energy=       -0.2377728256
 DE(Corr)= -0.23614697     E(CORR)=     -33.832336674     Delta=-5.82D-03
 NORM(A)=   0.10430718D+01
 Iteration Nr.   3
 **********************
 DD1Dir will call FoFMem   1 times, MxPair=        72
 NAB=    36 NAA=     0 NBB=     0.
 A-vector RMS=  5.8882758D-04 Max=  2.2169874D-03 conv= 1.00D-05.
 RLE energy=       -0.2383042921
 DE(Corr)= -0.23784997     E(CORR)=     -33.834039679     Delta=-1.70D-03
 NORM(A)=   0.10436472D+01
 Iteration Nr.   4
 **********************
 DD1Dir will call FoFMem   1 times, MxPair=        72
 NAB=    36 NAA=     0 NBB=     0.
 A-vector RMS=  1.0503350D-04 Max=  5.6779191D-04 conv= 1.00D-05.
 RLE energy=       -0.2383597350
 DE(Corr)= -0.23832270     E(CORR)=     -33.834512401     Delta=-4.73D-04
 NORM(A)=   0.10437306D+01
 Iteration Nr.   5
 **********************
 DD1Dir will call FoFMem   1 times, MxPair=        72
 NAB=    36 NAA=     0 NBB=     0.
 A-vector RMS=  8.4849198D-05 Max=  3.9543704D-04 conv= 1.00D-05.
 RLE energy=       -0.2383635572
 DE(Corr)= -0.23835659     E(CORR)=     -33.834546296     Delta=-3.39D-05
 NORM(A)=   0.10437521D+01
 Iteration Nr.   6
 **********************
 DD1Dir will call FoFMem   1 times, MxPair=        72
 NAB=    36 NAA=     0 NBB=     0.
 A-vector RMS=  3.0607000D-05 Max=  1.3902351D-04 conv= 1.00D-05.
 RLE energy=       -0.2383576931
 DE(Corr)= -0.23836180     E(CORR)=     -33.834551506     Delta=-5.21D-06
 NORM(A)=   0.10437587D+01
 Iteration Nr.   7
 **********************
 DD1Dir will call FoFMem   1 times, MxPair=        72
 NAB=    36 NAA=     0 NBB=     0.
 A-vector RMS=  1.0931879D-05 Max=  4.8755023D-05 conv= 1.00D-05.
 RLE energy=       -0.2383589135
 DE(Corr)= -0.23836214     E(CORR)=     -33.834551845     Delta=-3.39D-07
 NORM(A)=   0.10437619D+01
 Iteration Nr.   8
 **********************
 DD1Dir will call FoFMem   1 times, MxPair=        72
 NAB=    36 NAA=     0 NBB=     0.
 A-vector RMS=  4.4048059D-06 Max=  2.1805375D-05 conv= 1.00D-05.
 RLE energy=       -0.2383609055
 DE(Corr)= -0.23836113     E(CORR)=     -33.834550835     Delta= 1.01D-06
 NORM(A)=   0.10437639D+01
 Iteration Nr.   9
 **********************
 DD1Dir will call FoFMem   1 times, MxPair=        72
 NAB=    36 NAA=     0 NBB=     0.
 A-vector RMS=  9.3688938D-07 Max=  3.0182115D-06 conv= 1.00D-05.
 RLE energy=       -0.2383613859
 DE(Corr)= -0.23836142     E(CORR)=     -33.834551123     Delta=-2.88D-07
 NORM(A)=   0.10437643D+01
 Iteration Nr.  10
 **********************
 DD1Dir will call FoFMem   1 times, MxPair=        72
 NAB=    36 NAA=     0 NBB=     0.
 A-vector RMS=  3.6541936D-07 Max=  1.1894588D-06 conv= 1.00D-05.
 RLE energy=       -0.2383617140
 DE(Corr)= -0.23836165     E(CORR)=     -33.834551351     Delta=-2.28D-07
 NORM(A)=   0.10437646D+01
 Iteration Nr.  11
 **********************
 DD1Dir will call FoFMem   1 times, MxPair=        72
 NAB=    36 NAA=     0 NBB=     0.
 A-vector RMS=  1.4136648D-07 Max=  4.5534424D-07 conv= 1.00D-05.
 RLE energy=       -0.2383617825
 DE(Corr)= -0.23836175     E(CORR)=     -33.834551455     Delta=-1.04D-07
 NORM(A)=   0.10437646D+01
 Iteration Nr.  12
 **********************
 DD1Dir will call FoFMem   1 times, MxPair=        72
 NAB=    36 NAA=     0 NBB=     0.
 A-vector RMS=  5.4267706D-08 Max=  1.5140808D-07 conv= 1.00D-05.
 RLE energy=       -0.2383618075
 DE(Corr)= -0.23836179     E(CORR)=     -33.834551500     Delta=-4.49D-08
 NORM(A)=   0.10437647D+01
 CI/CC converged in   12 iterations to DelEn=-4.49D-08 Conv= 1.00D-07 ErrA1= 5.43D-08 Conv= 1.00D-05
 Wavefunction amplitudes converged. E(Corr)=     -33.834551500    
 Largest amplitude= 4.91D-02
 IPart=  1 IA=    2   12.50% done.
 IPart=  4 IA=    3   24.17% done.
 IPart=  2 IA=    4   35.00% done.
 IPart=  2 IA=    5   45.00% done.
 IPart=  4 IA=    6   54.17% done.
 IPart=  1 IA=    7   62.50% done.
 IPart=  3 IA=    8   70.00% done.
 IPart=  1 IA=   10   82.50% done.
 IPart=  4 IA=   12   91.67% done.
 Time for triples=        0.25 seconds.
 T4(CCSD)= -0.37785697D-02
 T5(CCSD)=  0.59761447D-03
 CCSD(T)= -0.33837732456D+02
 Discarding MO integrals.
 Leave Link  913 at Sun Dec 10 06:19:58 2023, MaxMem=   536870912 cpu:               1.1 elap:               0.3
 (Enter /usr/site/hpc/x86_64/glibc-2.17/broadwell/gaussian/g16_a.03/pgi-16.5/g16/l601.exe)
 Copying SCF densities to generalized density rwf, IOpCl= 0 IROHF=0.

 **********************************************************************

            Population analysis using the SCF density.

 **********************************************************************

 Orbital symmetries:
       Occupied  (A') (A') (A') (A') (A") (A') (A') (A")
       Virtual   (A') (A') (A') (A') (A") (A') (A') (A") (A') (A')
                 (A') (A') (A') (A') (A') (A')
 The electronic state is 1-A'.
 Alpha  occ. eigenvalues --   -1.45995  -1.27131  -0.83237  -0.73996  -0.58745
 Alpha  occ. eigenvalues --   -0.55932  -0.44166  -0.41254
 Alpha virt. eigenvalues --    0.16821   0.24477   0.30237   0.61954   0.73334
 Alpha virt. eigenvalues --    0.74439   0.90421   0.91558   0.92823   1.04194
 Alpha virt. eigenvalues --    1.12183   1.19775   1.30731   1.44690   2.99469
 Alpha virt. eigenvalues --    4.67656
          Condensed to atoms (all electrons):
               1          2          3          4          5          6
     1  O    6.252170   0.461237   0.270982  -0.252566   0.001604   0.002851
     2  H    0.461237   0.634209  -0.053712  -0.333583   0.017016   0.019042
     3  H    0.270982  -0.053712   0.433619   0.021907  -0.000042  -0.000561
     4  O   -0.252566  -0.333583   0.021907   6.854833   0.242463   0.249022
     5  H    0.001604   0.017016  -0.000042   0.242463   0.315082  -0.014715
     6  H    0.002851   0.019042  -0.000561   0.249022  -0.014715   0.248190
 Mulliken charges:
               1
     1  O   -0.736278
     2  H    0.255791
     3  H    0.327806
     4  O   -0.782078
     5  H    0.438591
     6  H    0.496169
 Sum of Mulliken charges =   0.00000
 Mulliken charges with hydrogens summed into heavy atoms:
               1
     1  O   -0.152682
     4  O    0.152682
 Electronic spatial extent (au):  <R**2>=            104.8038
 Charge=              0.0000 electrons
 Dipole moment (field-independent basis, Debye):
    X=             -0.7217    Y=              5.3456    Z=              0.0000  Tot=              5.3941
 Quadrupole moment (field-independent basis, Debye-Ang):
   XX=             -9.6037   YY=            -10.4814   ZZ=            -14.9233
   XY=              3.7014   XZ=              0.0000   YZ=              0.0000
 Traceless Quadrupole moment (field-independent basis, Debye-Ang):
   XX=              2.0658   YY=              1.1880   ZZ=             -3.2538
   XY=              3.7014   XZ=              0.0000   YZ=              0.0000
 Octapole moment (field-independent basis, Debye-Ang**2):
  XXX=              0.4631  YYY=             19.7848  ZZZ=              0.0000  XYY=             -5.8224
  XXY=              2.2092  XXZ=              0.0000  XZZ=             -0.1454  YZZ=              1.4075
  YYZ=              0.0000  XYZ=              0.0000
 Hexadecapole moment (field-independent basis, Debye-Ang**3):
 XXXX=            -11.1270 YYYY=            -85.0595 ZZZZ=            -12.2328 XXXY=              2.1536
 XXXZ=              0.0000 YYYX=              1.2682 YYYZ=              0.0000 ZZZX=              0.0000
 ZZZY=              0.0000 XXYY=            -14.3805 XXZZ=             -4.5147 YYZZ=            -21.8596
 XXYZ=              0.0000 YYXZ=              0.0000 ZZXY=             -0.5388
 N-N= 3.000049944032D+01 E-N=-1.419531914796D+02  KE= 2.736894709949D+01
 Symmetry A'   KE= 1.857213140139D+01
 Symmetry A"   KE= 8.796815698103D+00
 Leave Link  601 at Sun Dec 10 06:19:58 2023, MaxMem=   536870912 cpu:               0.1 elap:               0.0
 (Enter /usr/site/hpc/x86_64/glibc-2.17/broadwell/gaussian/g16_a.03/pgi-16.5/g16/l9999.exe)
 1\1\GINC-N044\SP\RCCSD(T)-FC\CEP-31G\H4O2\ROOT\10-Dec-2023\0\\#p CCSD(
 T)/CEP-31G\\H2O_H2O_98\\0,1\O,0,0.,-0.009833,0.\H,0,-0.799571,-0.58096
 5,0.\H,0,0.799571,-0.580965,0.\O,0,-1.719284,-1.221715,0.\H,0,-2.34148
 7,-0.461209,0.\H,0,-2.236898,-2.056928,0.\\Version=ES64L-G16RevA.03\St
 ate=1-A'\HF=-33.5961897\MP2=-33.8229815\MP3=-33.8261892\MP4D=-33.83093
 01\MP4DQ=-33.8315538\MP4SDQ=-33.8339094\CCSD=-33.8345515\CCSD(T)=-33.8
 377325\RMSD=5.784e-09\PG=CS [SG(H4O2)]\\@


 NEVER LOSE YOUR IGNORANCE, IT CAN'T BE REPLACED.
   -- ANDY CAPP
 Job cpu time:       0 days  0 hours  0 minutes  4.2 seconds.
 Elapsed time:       0 days  0 hours  0 minutes  1.2 seconds.
 File lengths (MBytes):  RWF=     72 Int=      0 D2E=      0 Chk=      8 Scr=      8
 Normal termination of Gaussian 16 at Sun Dec 10 06:19:58 2023.
