 Entering Gaussian System, Link 0=g16
 Input=H2O_H2O_73.com
 Output=H2O_H2O_73.log
 Initial command:
 /usr/site/hpc/x86_64/glibc-2.17/broadwell/gaussian/g16_a.03/pgi-16.5/g16/l1.exe "/gpfs/gpfs1/scratch/c7441090/OH Coord/Gau-1613028.inp" -scrdir="/gpfs/gpfs1/scratch/c7441090/OH Coord/"
 Entering Link 1 = /usr/site/hpc/x86_64/glibc-2.17/broadwell/gaussian/g16_a.03/pgi-16.5/g16/l1.exe PID=   1613029.
  
 Copyright (c) 1988,1990,1992,1993,1995,1998,2003,2009,2016,
            Gaussian, Inc.  All Rights Reserved.
  
 This is part of the Gaussian(R) 16 program.  It is based on
 the Gaussian(R) 09 system (copyright 2009, Gaussian, Inc.),
 the Gaussian(R) 03 system (copyright 2003, Gaussian, Inc.),
 the Gaussian(R) 98 system (copyright 1998, Gaussian, Inc.),
 the Gaussian(R) 94 system (copyright 1995, Gaussian, Inc.),
 the Gaussian 92(TM) system (copyright 1992, Gaussian, Inc.),
 the Gaussian 90(TM) system (copyright 1990, Gaussian, Inc.),
 the Gaussian 88(TM) system (copyright 1988, Gaussian, Inc.),
 the Gaussian 86(TM) system (copyright 1986, Carnegie Mellon
 University), and the Gaussian 82(TM) system (copyright 1983,
 Carnegie Mellon University). Gaussian is a federally registered
 trademark of Gaussian, Inc.
  
 This software contains proprietary and confidential information,
 including trade secrets, belonging to Gaussian, Inc.
  
 This software is provided under written license and may be
 used, copied, transmitted, or stored only in accord with that
 written license.
  
 The following legend is applicable only to US Government
 contracts under FAR:
  
                    RESTRICTED RIGHTS LEGEND
  
 Use, reproduction and disclosure by the US Government is
 subject to restrictions as set forth in subparagraphs (a)
 and (c) of the Commercial Computer Software - Restricted
 Rights clause in FAR 52.227-19.
  
 Gaussian, Inc.
 340 Quinnipiac St., Bldg. 40, Wallingford CT 06492
  
  
 ---------------------------------------------------------------
 Warning -- This program may not be used in any manner that
 competes with the business of Gaussian, Inc. or will provide
 assistance to any competitor of Gaussian, Inc.  The licensee
 of this program is prohibited from giving any competitor of
 Gaussian, Inc. access to this program.  By using this program,
 the user acknowledges that Gaussian, Inc. is engaged in the
 business of creating and licensing software in the field of
 computational chemistry and represents and warrants to the
 licensee that it is not a competitor of Gaussian, Inc. and that
 it will not use this program in any manner prohibited above.
 ---------------------------------------------------------------
  

 Cite this work as:
 Gaussian 16, Revision A.03,
 M. J. Frisch, G. W. Trucks, H. B. Schlegel, G. E. Scuseria, 
 M. A. Robb, J. R. Cheeseman, G. Scalmani, V. Barone, 
 G. A. Petersson, H. Nakatsuji, X. Li, M. Caricato, A. V. Marenich, 
 J. Bloino, B. G. Janesko, R. Gomperts, B. Mennucci, H. P. Hratchian, 
 J. V. Ortiz, A. F. Izmaylov, J. L. Sonnenberg, D. Williams-Young, 
 F. Ding, F. Lipparini, F. Egidi, J. Goings, B. Peng, A. Petrone, 
 T. Henderson, D. Ranasinghe, V. G. Zakrzewski, J. Gao, N. Rega, 
 G. Zheng, W. Liang, M. Hada, M. Ehara, K. Toyota, R. Fukuda, 
 J. Hasegawa, M. Ishida, T. Nakajima, Y. Honda, O. Kitao, H. Nakai, 
 T. Vreven, K. Throssell, J. A. Montgomery, Jr., J. E. Peralta, 
 F. Ogliaro, M. J. Bearpark, J. J. Heyd, E. N. Brothers, K. N. Kudin, 
 V. N. Staroverov, T. A. Keith, R. Kobayashi, J. Normand, 
 K. Raghavachari, A. P. Rendell, J. C. Burant, S. S. Iyengar, 
 J. Tomasi, M. Cossi, J. M. Millam, M. Klene, C. Adamo, R. Cammi, 
 J. W. Ochterski, R. L. Martin, K. Morokuma, O. Farkas, 
 J. B. Foresman, and D. J. Fox, Gaussian, Inc., Wallingford CT, 2016.
 
 ******************************************
 Gaussian 16:  ES64L-G16RevA.03 25-Dec-2016
                10-Dec-2023 
 ******************************************
 %NProcShared=4
 Will use up to    4 processors via shared memory.
 %Mem=4GB
 %Chk=H2O_H2O_73.chk
 ------------------
 #p CCSD(T)/CEP-31G
 ------------------
 1/38=1,172=1/1;
 2/12=2,17=6,18=5,40=1/2;
 3/5=9,6=1,11=9,25=1,30=1/1,2,3;
 4//1;
 5/5=2,38=5/2;
 8/6=4,9=120000,10=1/1,4;
 9/5=7,14=2/13;
 6/7=2,8=2,9=2,10=2/1;
 99/5=1,9=1/99;
 Leave Link    1 at Sun Dec 10 06:19:27 2023, MaxMem=   536870912 cpu:               0.2 elap:               0.1
 (Enter /usr/site/hpc/x86_64/glibc-2.17/broadwell/gaussian/g16_a.03/pgi-16.5/g16/l101.exe)
 ----------
 H2O_H2O_73
 ----------
 Symbolic Z-matrix:
 Charge =  0 Multiplicity = 1
 O                     0.       -0.00983   0. 
 H                    -0.79957  -0.58097   0. 
 H                     0.79957  -0.58097   0. 
 O                    -1.70306  -1.21012   0. 
 H                    -2.32526  -0.44962   0. 
 H                    -2.22067  -2.04534   0. 
 
 ITRead=  0  0  0  0  0  0
 MicOpt= -1 -1 -1 -1 -1 -1
 NAtoms=      6 NQM=        6 NQMF=       0 NMMI=      0 NMMIF=      0
                NMic=       0 NMicF=      0.
                    Isotopes and Nuclear Properties:
 (Nuclear quadrupole moments (NQMom) in fm**2, nuclear magnetic moments (NMagM)
  in nuclear magnetons)

  Atom         1           2           3           4           5           6
 IAtWgt=          16           1           1          16           1           1
 AtmWgt=  15.9949146   1.0078250   1.0078250  15.9949146   1.0078250   1.0078250
 NucSpn=           0           1           1           0           1           1
 AtZEff=  -0.0000000  -0.0000000  -0.0000000  -0.0000000  -0.0000000  -0.0000000
 NQMom=    0.0000000   0.0000000   0.0000000   0.0000000   0.0000000   0.0000000
 NMagM=    0.0000000   2.7928460   2.7928460   0.0000000   2.7928460   2.7928460
 AtZNuc=   8.0000000   1.0000000   1.0000000   8.0000000   1.0000000   1.0000000
 Leave Link  101 at Sun Dec 10 06:19:27 2023, MaxMem=   536870912 cpu:               0.7 elap:               0.2
 (Enter /usr/site/hpc/x86_64/glibc-2.17/broadwell/gaussian/g16_a.03/pgi-16.5/g16/l202.exe)
                          Input orientation:                          
 ---------------------------------------------------------------------
 Center     Atomic      Atomic             Coordinates (Angstroms)
 Number     Number       Type             X           Y           Z
 ---------------------------------------------------------------------
      1          8           0        0.000000   -0.009833    0.000000
      2          1           0       -0.799571   -0.580965    0.000000
      3          1           0        0.799571   -0.580965    0.000000
      4          8           0       -1.703055   -1.210122    0.000000
      5          1           0       -2.325258   -0.449617    0.000000
      6          1           0       -2.220670   -2.045336    0.000000
 ---------------------------------------------------------------------
                    Distance matrix (angstroms):
                    1          2          3          4          5
     1  O    0.000000
     2  H    0.982601   0.000000
     3  H    0.982601   1.599142   0.000000
     4  O    2.083528   1.100964   2.580499   0.000000
     5  H    2.366482   1.531331   3.127588   0.982601   0.000000
     6  H    3.012416   2.040565   3.356522   0.982603   1.599143
                    6
     6  H    0.000000
 Stoichiometry    H4O2
 Framework group  CS[SG(H4O2)]
 Deg. of freedom     9
 Full point group                 CS      NOp   2
 Largest Abelian subgroup         CS      NOp   2
 Largest concise Abelian subgroup C1      NOp   1
                         Standard orientation:                         
 ---------------------------------------------------------------------
 Center     Atomic      Atomic             Coordinates (Angstroms)
 Number     Number       Type             X           Y           Z
 ---------------------------------------------------------------------
      1          8           0        0.016905   -1.123402    0.000000
      2          1           0        0.010689   -0.140820    0.000000
      3          1           0       -0.910553   -1.447943    0.000000
      4          8           0        0.016905    0.960126    0.000000
      5          1           0        0.996976    1.030593    0.000000
      6          1           0       -0.367600    1.864374    0.000000
 ---------------------------------------------------------------------
 Rotational constants (GHZ):         264.1539203          12.1315171          11.5988300
 Leave Link  202 at Sun Dec 10 06:19:27 2023, MaxMem=   536870912 cpu:               0.0 elap:               0.0
 (Enter /usr/site/hpc/x86_64/glibc-2.17/broadwell/gaussian/g16_a.03/pgi-16.5/g16/l301.exe)
 Standard basis: CEP-31G (6D, 10F)
 Ernie: Thresh=  0.10000D-02 Tol=  0.10000D-05 Strict=F.
 There are    20 symmetry adapted cartesian basis functions of A'  symmetry.
 There are     4 symmetry adapted cartesian basis functions of A"  symmetry.
 There are    20 symmetry adapted basis functions of A'  symmetry.
 There are     4 symmetry adapted basis functions of A"  symmetry.
    24 basis functions,    48 primitive gaussians,    24 cartesian basis functions
     8 alpha electrons        8 beta electrons
       nuclear repulsion energy        30.1720057181 Hartrees.
 IExCor=    0 DFT=F Ex=HF Corr=None ExCW=0 ScaHFX=  1.000000
 ScaDFX=  1.000000  1.000000  1.000000  1.000000 ScalE2=  1.000000  1.000000
 IRadAn=      5 IRanWt=     -1 IRanGd=            0 ICorTp=0 IEmpDi=  4
 NAtoms=    6 NActive=    6 NUniq=    6 SFac= 1.00D+00 NAtFMM=   60 NAOKFM=F Big=F
 Integral buffers will be    131072 words long.
 Raffenetti 1 integral format.
 Two-electron integral symmetry is turned on.
 Leave Link  301 at Sun Dec 10 06:19:27 2023, MaxMem=   536870912 cpu:               0.2 elap:               0.0
 (Enter /usr/site/hpc/x86_64/glibc-2.17/broadwell/gaussian/g16_a.03/pgi-16.5/g16/l302.exe)
 NPDir=0 NMtPBC=     1 NCelOv=     1 NCel=       1 NClECP=     1 NCelD=      1
         NCelK=      1 NCelE2=     1 NClLst=     1 CellRange=     0.0.
 One-electron integrals computed using PRISM.
 One-electron integral symmetry used in STVInt
   2 Symmetry operations used in ECPInt.
 ECPInt:  NShTT=      78 NPrTT=     318 LenC2=      79 LenP2D=     301.
 LDataN:  DoStor=T MaxTD1= 2 Len=   12
 NBasis=    24 RedAO= T EigKep=  2.62D-03  NBF=    20     4
 NBsUse=    24 1.00D-06 EigRej= -1.00D+00 NBFU=    20     4
 Leave Link  302 at Sun Dec 10 06:19:27 2023, MaxMem=   536870912 cpu:               0.3 elap:               0.1
 (Enter /usr/site/hpc/x86_64/glibc-2.17/broadwell/gaussian/g16_a.03/pgi-16.5/g16/l303.exe)
 DipDrv:  MaxL=1.
 Leave Link  303 at Sun Dec 10 06:19:27 2023, MaxMem=   536870912 cpu:               0.1 elap:               0.0
 (Enter /usr/site/hpc/x86_64/glibc-2.17/broadwell/gaussian/g16_a.03/pgi-16.5/g16/l401.exe)
 ExpMin= 1.78D-01 ExpMax= 1.92D+01 ExpMxC= 1.92D+01 IAcc=3 IRadAn=         5 AccDes= 0.00D+00
 Harris functional with IExCor=  205 and IRadAn=       5 diagonalized for initial guess.
 HarFok:  IExCor=  205 AccDes= 0.00D+00 IRadAn=         5 IDoV= 1 UseB2=F ITyADJ=14
 ICtDFT=  3500011 ScaDFX=  1.000000  1.000000  1.000000  1.000000
 FoFCou: FMM=F IPFlag=           0 FMFlag=      100000 FMFlg1=           0
         NFxFlg=           0 DoJE=T BraDBF=F KetDBF=T FulRan=T
         wScrn=  0.000000 ICntrl=       500 IOpCl=  0 I1Cent=   200000004 NGrid=           0
         NMat0=    1 NMatS0=      1 NMatT0=    0 NMatD0=    1 NMtDS0=    0 NMtDT0=    0
 Petite list used in FoFCou.
 Harris En= -34.4510457351560    
 JPrj=0 DoOrth=F DoCkMO=F.
 Initial guess orbital symmetries:
       Occupied  (A') (A') (A') (A') (A') (A") (A') (A")
       Virtual   (A') (A') (A') (A') (A") (A') (A') (A") (A') (A')
                 (A') (A') (A') (A') (A') (A')
 The electronic state of the initial guess is 1-A'.
 Leave Link  401 at Sun Dec 10 06:19:27 2023, MaxMem=   536870912 cpu:               0.4 elap:               0.1
 (Enter /usr/site/hpc/x86_64/glibc-2.17/broadwell/gaussian/g16_a.03/pgi-16.5/g16/l502.exe)
 Keep R1 ints in memory in symmetry-blocked form, NReq=852814.
 FoFCou: FMM=F IPFlag=           0 FMFlag=           0 FMFlg1=           0
         NFxFlg=           0 DoJE=F BraDBF=F KetDBF=F FulRan=T
         wScrn=  0.000000 ICntrl=       600 IOpCl=  0 I1Cent=           0 NGrid=           0
         NMat0=    1 NMatS0=    300 NMatT0=    0 NMatD0=    1 NMtDS0=    0 NMtDT0=    0
 Petite list used in FoFCou.
 Closed shell SCF:
 Using DIIS extrapolation, IDIIS=  1040.
 NGot=   536870912 LenX=   536840564 LenY=   536839547
 Requested convergence on RMS density matrix=1.00D-08 within 128 cycles.
 Requested convergence on MAX density matrix=1.00D-06.
 Requested convergence on             energy=1.00D-06.
 No special actions if energy rises.

 Cycle   1  Pass 1  IDiag  1:
 E= -33.4834280849436    
 DIIS: error= 5.65D-02 at cycle   1 NSaved=   1.
 NSaved= 1 IEnMin= 1 EnMin= -33.4834280849436     IErMin= 1 ErrMin= 5.65D-02
 ErrMax= 5.65D-02  0.00D+00 EMaxC= 1.00D-01 BMatC= 1.12D-01 BMatP= 1.12D-01
 IDIUse=3 WtCom= 4.35D-01 WtEn= 5.65D-01
 Coeff-Com:  0.100D+01
 Coeff-En:   0.100D+01
 Coeff:      0.100D+01
 Gap=     0.469 Goal=   None    Shift=    0.000
 GapD=    0.469 DampG=2.000 DampE=0.500 DampFc=1.0000 IDamp=-1.
 RMSDP=2.66D-02 MaxDP=1.55D-01              OVMax= 1.29D-01

 Cycle   2  Pass 1  IDiag  1:
 E= -33.5572451758622     Delta-E=       -0.073817090919 Rises=F Damp=F
 DIIS: error= 3.58D-02 at cycle   2 NSaved=   2.
 NSaved= 2 IEnMin= 2 EnMin= -33.5572451758622     IErMin= 2 ErrMin= 3.58D-02
 ErrMax= 3.58D-02  0.00D+00 EMaxC= 1.00D-01 BMatC= 3.93D-02 BMatP= 1.12D-01
 IDIUse=3 WtCom= 6.42D-01 WtEn= 3.58D-01
 Coeff-Com:  0.368D+00 0.632D+00
 Coeff-En:   0.558D-01 0.944D+00
 Coeff:      0.256D+00 0.744D+00
 Gap=     0.591 Goal=   None    Shift=    0.000
 RMSDP=8.93D-03 MaxDP=6.89D-02 DE=-7.38D-02 OVMax= 4.91D-02

 Cycle   3  Pass 1  IDiag  1:
 E= -33.5885136219643     Delta-E=       -0.031268446102 Rises=F Damp=F
 DIIS: error= 6.32D-03 at cycle   3 NSaved=   3.
 NSaved= 3 IEnMin= 3 EnMin= -33.5885136219643     IErMin= 3 ErrMin= 6.32D-03
 ErrMax= 6.32D-03  0.00D+00 EMaxC= 1.00D-01 BMatC= 1.25D-03 BMatP= 3.93D-02
 IDIUse=3 WtCom= 9.37D-01 WtEn= 6.32D-02
 Coeff-Com: -0.805D-01 0.440D-01 0.104D+01
 Coeff-En:   0.000D+00 0.000D+00 0.100D+01
 Coeff:     -0.754D-01 0.412D-01 0.103D+01
 Gap=     0.574 Goal=   None    Shift=    0.000
 RMSDP=2.33D-03 MaxDP=1.49D-02 DE=-3.13D-02 OVMax= 1.08D-02

 Cycle   4  Pass 1  IDiag  1:
 E= -33.5896684310133     Delta-E=       -0.001154809049 Rises=F Damp=F
 DIIS: error= 7.99D-04 at cycle   4 NSaved=   4.
 NSaved= 4 IEnMin= 4 EnMin= -33.5896684310133     IErMin= 4 ErrMin= 7.99D-04
 ErrMax= 7.99D-04  0.00D+00 EMaxC= 1.00D-01 BMatC= 1.99D-05 BMatP= 1.25D-03
 IDIUse=3 WtCom= 9.92D-01 WtEn= 7.99D-03
 Coeff-Com: -0.334D-01-0.186D-01 0.245D+00 0.807D+00
 Coeff-En:   0.000D+00 0.000D+00 0.000D+00 0.100D+01
 Coeff:     -0.331D-01-0.185D-01 0.243D+00 0.809D+00
 Gap=     0.578 Goal=   None    Shift=    0.000
 RMSDP=2.98D-04 MaxDP=1.77D-03 DE=-1.15D-03 OVMax= 1.34D-03

 Cycle   5  Pass 1  IDiag  1:
 E= -33.5896915824019     Delta-E=       -0.000023151389 Rises=F Damp=F
 DIIS: error= 2.16D-04 at cycle   5 NSaved=   5.
 NSaved= 5 IEnMin= 5 EnMin= -33.5896915824019     IErMin= 5 ErrMin= 2.16D-04
 ErrMax= 2.16D-04  0.00D+00 EMaxC= 1.00D-01 BMatC= 1.50D-06 BMatP= 1.99D-05
 IDIUse=3 WtCom= 9.98D-01 WtEn= 2.16D-03
 Coeff-Com:  0.127D-01-0.409D-02-0.151D+00-0.252D-01 0.117D+01
 Coeff-En:   0.000D+00 0.000D+00 0.000D+00 0.000D+00 0.100D+01
 Coeff:      0.126D-01-0.408D-02-0.151D+00-0.251D-01 0.117D+01
 Gap=     0.578 Goal=   None    Shift=    0.000
 RMSDP=1.60D-04 MaxDP=9.52D-04 DE=-2.32D-05 OVMax= 6.31D-04

 Cycle   6  Pass 1  IDiag  1:
 E= -33.5896942879089     Delta-E=       -0.000002705507 Rises=F Damp=F
 DIIS: error= 3.94D-05 at cycle   6 NSaved=   6.
 NSaved= 6 IEnMin= 6 EnMin= -33.5896942879089     IErMin= 6 ErrMin= 3.94D-05
 ErrMax= 3.94D-05  0.00D+00 EMaxC= 1.00D-01 BMatC= 2.70D-08 BMatP= 1.50D-06
 IDIUse=1 WtCom= 1.00D+00 WtEn= 0.00D+00
 Coeff-Com: -0.311D-02 0.149D-02 0.411D-01-0.204D-01-0.347D+00 0.133D+01
 Coeff:     -0.311D-02 0.149D-02 0.411D-01-0.204D-01-0.347D+00 0.133D+01
 Gap=     0.578 Goal=   None    Shift=    0.000
 RMSDP=2.25D-05 MaxDP=1.30D-04 DE=-2.71D-06 OVMax= 1.10D-04

 Cycle   7  Pass 1  IDiag  1:
 E= -33.5896943537994     Delta-E=       -0.000000065891 Rises=F Damp=F
 DIIS: error= 5.57D-06 at cycle   7 NSaved=   7.
 NSaved= 7 IEnMin= 7 EnMin= -33.5896943537994     IErMin= 7 ErrMin= 5.57D-06
 ErrMax= 5.57D-06  0.00D+00 EMaxC= 1.00D-01 BMatC= 5.48D-10 BMatP= 2.70D-08
 IDIUse=1 WtCom= 1.00D+00 WtEn= 0.00D+00
 Coeff-Com:  0.739D-03-0.349D-03-0.993D-02 0.666D-02 0.847D-01-0.410D+00
 Coeff-Com:  0.133D+01
 Coeff:      0.739D-03-0.349D-03-0.993D-02 0.666D-02 0.847D-01-0.410D+00
 Coeff:      0.133D+01
 Gap=     0.578 Goal=   None    Shift=    0.000
 RMSDP=3.44D-06 MaxDP=1.85D-05 DE=-6.59D-08 OVMax= 2.50D-05

 Cycle   8  Pass 1  IDiag  1:
 E= -33.5896943553831     Delta-E=       -0.000000001584 Rises=F Damp=F
 DIIS: error= 1.21D-06 at cycle   8 NSaved=   8.
 NSaved= 8 IEnMin= 8 EnMin= -33.5896943553831     IErMin= 8 ErrMin= 1.21D-06
 ErrMax= 1.21D-06  0.00D+00 EMaxC= 1.00D-01 BMatC= 2.78D-11 BMatP= 5.48D-10
 IDIUse=1 WtCom= 1.00D+00 WtEn= 0.00D+00
 Coeff-Com: -0.125D-03 0.454D-04 0.166D-02-0.134D-02-0.129D-01 0.735D-01
 Coeff-Com: -0.379D+00 0.132D+01
 Coeff:     -0.125D-03 0.454D-04 0.166D-02-0.134D-02-0.129D-01 0.735D-01
 Coeff:     -0.379D+00 0.132D+01
 Gap=     0.578 Goal=   None    Shift=    0.000
 RMSDP=6.76D-07 MaxDP=4.39D-06 DE=-1.58D-09 OVMax= 6.07D-06

 Cycle   9  Pass 1  IDiag  1:
 E= -33.5896943554656     Delta-E=       -0.000000000082 Rises=F Damp=F
 DIIS: error= 2.93D-07 at cycle   9 NSaved=   9.
 NSaved= 9 IEnMin= 9 EnMin= -33.5896943554656     IErMin= 9 ErrMin= 2.93D-07
 ErrMax= 2.93D-07  0.00D+00 EMaxC= 1.00D-01 BMatC= 1.52D-12 BMatP= 2.78D-11
 IDIUse=1 WtCom= 1.00D+00 WtEn= 0.00D+00
 Coeff-Com:  0.131D-04 0.317D-06-0.156D-03 0.167D-03 0.618D-03-0.571D-02
 Coeff-Com:  0.620D-01-0.466D+00 0.141D+01
 Coeff:      0.131D-04 0.317D-06-0.156D-03 0.167D-03 0.618D-03-0.571D-02
 Coeff:      0.620D-01-0.466D+00 0.141D+01
 Gap=     0.578 Goal=   None    Shift=    0.000
 RMSDP=2.35D-07 MaxDP=1.27D-06 DE=-8.24D-11 OVMax= 1.81D-06

 Cycle  10  Pass 1  IDiag  1:
 E= -33.5896943554706     Delta-E=       -0.000000000005 Rises=F Damp=F
 DIIS: error= 3.32D-08 at cycle  10 NSaved=  10.
 NSaved=10 IEnMin=10 EnMin= -33.5896943554706     IErMin=10 ErrMin= 3.32D-08
 ErrMax= 3.32D-08  0.00D+00 EMaxC= 1.00D-01 BMatC= 2.14D-14 BMatP= 1.52D-12
 IDIUse=1 WtCom= 1.00D+00 WtEn= 0.00D+00
 Coeff-Com: -0.501D-06-0.118D-05 0.170D-05-0.895D-05 0.153D-03-0.396D-03
 Coeff-Com: -0.528D-02 0.793D-01-0.338D+00 0.126D+01
 Coeff:     -0.501D-06-0.118D-05 0.170D-05-0.895D-05 0.153D-03-0.396D-03
 Coeff:     -0.528D-02 0.793D-01-0.338D+00 0.126D+01
 Gap=     0.578 Goal=   None    Shift=    0.000
 RMSDP=3.52D-08 MaxDP=2.30D-07 DE=-4.97D-12 OVMax= 1.87D-07

 Cycle  11  Pass 1  IDiag  1:
 E= -33.5896943554706     Delta-E=       -0.000000000000 Rises=F Damp=F
 DIIS: error= 5.25D-09 at cycle  11 NSaved=  11.
 NSaved=11 IEnMin=11 EnMin= -33.5896943554706     IErMin=11 ErrMin= 5.25D-09
 ErrMax= 5.25D-09  0.00D+00 EMaxC= 1.00D-01 BMatC= 7.29D-16 BMatP= 2.14D-14
 IDIUse=1 WtCom= 1.00D+00 WtEn= 0.00D+00
 Coeff-Com: -0.247D-06 0.444D-06 0.455D-05-0.188D-05-0.813D-04 0.330D-03
 Coeff-Com:  0.171D-03-0.165D-01 0.845D-01-0.460D+00 0.139D+01
 Coeff:     -0.247D-06 0.444D-06 0.455D-05-0.188D-05-0.813D-04 0.330D-03
 Coeff:      0.171D-03-0.165D-01 0.845D-01-0.460D+00 0.139D+01
 Gap=     0.578 Goal=   None    Shift=    0.000
 RMSDP=6.10D-09 MaxDP=3.86D-08 DE=-7.11D-14 OVMax= 3.61D-08

 SCF Done:  E(RHF) =  -33.5896943555     A.U. after   11 cycles
            NFock= 11  Conv=0.61D-08     -V/T= 2.2257
 KE= 2.740408371026D+01 PE=-1.423087607331D+02 EE= 5.114297694929D+01
 Leave Link  502 at Sun Dec 10 06:19:27 2023, MaxMem=   536870912 cpu:               0.4 elap:               0.1
 (Enter /usr/site/hpc/x86_64/glibc-2.17/broadwell/gaussian/g16_a.03/pgi-16.5/g16/l801.exe)
 Windowed orbitals will be sorted by symmetry type.
 Range of M.O.s used for correlation:     1    24
 NBasis=    24 NAE=     8 NBE=     8 NFC=     0 NFV=     0
 NROrb=     24 NOA=     8 NOB=     8 NVA=    16 NVB=    16

 **** Warning!!: The largest alpha MO coefficient is  0.11845597D+02

 Leave Link  801 at Sun Dec 10 06:19:28 2023, MaxMem=   536870912 cpu:               0.1 elap:               0.0
 (Enter /usr/site/hpc/x86_64/glibc-2.17/broadwell/gaussian/g16_a.03/pgi-16.5/g16/l804.exe)
 Closed-shell transformation, MDV=   536870912 ITran=4 ISComp=2.
 Unit  1 TFree=       1025975 TCopy=        210612.
 Semi-Direct transformation.
 ModeAB=           2 MOrb=             8 LenV=     536741361
 LASXX=        22470 LTotXX=       22470 LenRXX=       22470
 LTotAB=       26208 MaxLAS=       57600 LenRXY=       57600
 NonZer=       62208 LenScr=      524288 LnRSAI=           0
 LnScr1=           0 LExtra=           0 Total=       604358
 MaxDsk=          -1 SrtSym=           F ITran=            4
 DoSDTr:  NPSUse=  4
 JobTyp=0 Pass  1:  I=   1 to   8.
 (rs|ai) integrals will be sorted in core.
 Complete sort for first half transformation.
 First half transformation complete.
 Complete sort for second half transformation.
 Second half transformation complete.
 Spin components of T(2) and E(2):
     alpha-alpha T2 =       0.9158697681D-02 E2=     -0.2686132844D-01
     alpha-beta  T2 =       0.5697346668D-01 E2=     -0.1729377003D+00
     beta-beta   T2 =       0.9158697681D-02 E2=     -0.2686132844D-01
 ANorm=    0.1036962324D+01
 E2 =    -0.2266603572D+00 EUMP2 =    -0.33816354712693D+02
 Leave Link  804 at Sun Dec 10 06:19:28 2023, MaxMem=   536870912 cpu:               0.2 elap:               0.1
 (Enter /usr/site/hpc/x86_64/glibc-2.17/broadwell/gaussian/g16_a.03/pgi-16.5/g16/l913.exe)
 CIDS:  MDV=   536870912.
 IFCWin=0 IBDFC=1 NFBD=     0     0 NFCmp=     0     0 NFFFC=     0     0
 Using DD3R+UMP44R for 1st iteration.
 Using DD4RQ for 2nd and later iterations.
 Keep R2 and R3 ints in memory in symmetry-blocked form, NReq=865422.
 FoFCou: FMM=F IPFlag=           0 FMFlag=           0 FMFlg1=           0
         NFxFlg=           0 DoJE=F BraDBF=F KetDBF=F FulRan=T
         wScrn=  0.000000 ICntrl=       600 IOpCl=  0 I1Cent=           0 NGrid=           0
         NMat0=    1 NMatS0=    300 NMatT0=    0 NMatD0=    1 NMtDS0=    0 NMtDT0=    0
 Petite list used in FoFCou.
 CIDS: In Core Option IDoMem=           1.
 CCSD(T)
 =======
 Iterations=  50 Convergence= 0.100D-06
 Produce multiple copies of IABC intergrals
 Iteration Nr.   1
 **********************
 DD1Dir will call FoFMem   1 times, MxPair=        72
 NAB=    36 NAA=     0 NBB=     0.
 MP4(R+Q)= -0.62024968D-03
 Maximum subspace dimension=  5
 A-vector RMS=  6.2182687D-03 Max=  1.3942876D-02 conv= 1.00D-05.
 RLE energy=       -0.2301716932
 E3=       -0.31418657D-02        EUMP3=      -0.33819496578D+02
 E4(DQ)=   -0.53499873D-02        UMP4(DQ)=   -0.33824846566D+02
 E4(SDQ)=  -0.77201387D-02        UMP4(SDQ)=  -0.33827216717D+02
 VARIATIONAL ENERGIES WITH THE FIRST-ORDER WAVEFUNCTION:
 DE(Corr)= -0.23011854     E(Corr)=     -33.819812897    
 NORM(A)=   0.10395438D+01
 Iteration Nr.   2
 **********************
 DD1Dir will call FoFMem   1 times, MxPair=        72
 NAB=    36 NAA=     0 NBB=     0.
 A-vector RMS=  9.5874160D-04 Max=  2.7162179D-03 conv= 1.00D-05.
 RLE energy=       -0.2375590549
 DE(Corr)= -0.23594460     E(CORR)=     -33.825638958     Delta=-5.83D-03
 NORM(A)=   0.10430024D+01
 Iteration Nr.   3
 **********************
 DD1Dir will call FoFMem   1 times, MxPair=        72
 NAB=    36 NAA=     0 NBB=     0.
 A-vector RMS=  6.1062737D-04 Max=  2.3270454D-03 conv= 1.00D-05.
 RLE energy=       -0.2380924908
 DE(Corr)= -0.23763521     E(CORR)=     -33.827329563     Delta=-1.69D-03
 NORM(A)=   0.10435854D+01
 Iteration Nr.   4
 **********************
 DD1Dir will call FoFMem   1 times, MxPair=        72
 NAB=    36 NAA=     0 NBB=     0.
 A-vector RMS=  1.0754109D-04 Max=  6.0275858D-04 conv= 1.00D-05.
 RLE energy=       -0.2381492173
 DE(Corr)= -0.23811129     E(CORR)=     -33.827805649     Delta=-4.76D-04
 NORM(A)=   0.10436721D+01
 Iteration Nr.   5
 **********************
 DD1Dir will call FoFMem   1 times, MxPair=        72
 NAB=    36 NAA=     0 NBB=     0.
 A-vector RMS=  8.8657546D-05 Max=  4.1474434D-04 conv= 1.00D-05.
 RLE energy=       -0.2381532522
 DE(Corr)= -0.23814596     E(CORR)=     -33.827840318     Delta=-3.47D-05
 NORM(A)=   0.10436954D+01
 Iteration Nr.   6
 **********************
 DD1Dir will call FoFMem   1 times, MxPair=        72
 NAB=    36 NAA=     0 NBB=     0.
 A-vector RMS=  3.2313684D-05 Max=  1.4848445D-04 conv= 1.00D-05.
 RLE energy=       -0.2381471451
 DE(Corr)= -0.23815139     E(CORR)=     -33.827845747     Delta=-5.43D-06
 NORM(A)=   0.10437027D+01
 Iteration Nr.   7
 **********************
 DD1Dir will call FoFMem   1 times, MxPair=        72
 NAB=    36 NAA=     0 NBB=     0.
 A-vector RMS=  1.1317657D-05 Max=  5.0896532D-05 conv= 1.00D-05.
 RLE energy=       -0.2381483704
 DE(Corr)= -0.23815177     E(CORR)=     -33.827846126     Delta=-3.79D-07
 NORM(A)=   0.10437062D+01
 Iteration Nr.   8
 **********************
 DD1Dir will call FoFMem   1 times, MxPair=        72
 NAB=    36 NAA=     0 NBB=     0.
 A-vector RMS=  4.5382655D-06 Max=  2.2517107D-05 conv= 1.00D-05.
 RLE energy=       -0.2381504799
 DE(Corr)= -0.23815071     E(CORR)=     -33.827845066     Delta= 1.06D-06
 NORM(A)=   0.10437083D+01
 Iteration Nr.   9
 **********************
 DD1Dir will call FoFMem   1 times, MxPair=        72
 NAB=    36 NAA=     0 NBB=     0.
 A-vector RMS=  9.9011376D-07 Max=  3.1660216D-06 conv= 1.00D-05.
 RLE energy=       -0.2381509778
 DE(Corr)= -0.23815101     E(CORR)=     -33.827845365     Delta=-3.00D-07
 NORM(A)=   0.10437088D+01
 Iteration Nr.  10
 **********************
 DD1Dir will call FoFMem   1 times, MxPair=        72
 NAB=    36 NAA=     0 NBB=     0.
 A-vector RMS=  3.9297975D-07 Max=  1.2497178D-06 conv= 1.00D-05.
 RLE energy=       -0.2381513191
 DE(Corr)= -0.23815125     E(CORR)=     -33.827845602     Delta=-2.37D-07
 NORM(A)=   0.10437090D+01
 Iteration Nr.  11
 **********************
 DD1Dir will call FoFMem   1 times, MxPair=        72
 NAB=    36 NAA=     0 NBB=     0.
 A-vector RMS=  1.5406083D-07 Max=  4.8940365D-07 conv= 1.00D-05.
 RLE energy=       -0.2381513895
 DE(Corr)= -0.23815135     E(CORR)=     -33.827845710     Delta=-1.08D-07
 NORM(A)=   0.10437091D+01
 Iteration Nr.  12
 **********************
 DD1Dir will call FoFMem   1 times, MxPair=        72
 NAB=    36 NAA=     0 NBB=     0.
 A-vector RMS=  5.9314501D-08 Max=  1.6575404D-07 conv= 1.00D-05.
 RLE energy=       -0.2381514146
 DE(Corr)= -0.23815140     E(CORR)=     -33.827845757     Delta=-4.66D-08
 NORM(A)=   0.10437091D+01
 CI/CC converged in   12 iterations to DelEn=-4.66D-08 Conv= 1.00D-07 ErrA1= 5.93D-08 Conv= 1.00D-05
 Wavefunction amplitudes converged. E(Corr)=     -33.827845757    
 Largest amplitude= 4.93D-02
 IPart=  3 IA=    2   12.50% done.
 IPart=  4 IA=    3   35.00% done.
 IPart=  2 IA=    4   35.00% done.
 IPart=  2 IA=    5   45.00% done.
 IPart=  4 IA=    6   54.17% done.
 IPart=  3 IA=    7   62.50% done.
 IPart=  1 IA=    8   70.00% done.
 IPart=  4 IA=   10   82.50% done.
 IPart=  3 IA=   12   91.67% done.
 Time for triples=        0.28 seconds.
 T4(CCSD)= -0.37989718D-02
 T5(CCSD)=  0.60327159D-03
 CCSD(T)= -0.33831041457D+02
 Discarding MO integrals.
 Leave Link  913 at Sun Dec 10 06:19:28 2023, MaxMem=   536870912 cpu:               1.1 elap:               0.3
 (Enter /usr/site/hpc/x86_64/glibc-2.17/broadwell/gaussian/g16_a.03/pgi-16.5/g16/l601.exe)
 Copying SCF densities to generalized density rwf, IOpCl= 0 IROHF=0.

 **********************************************************************

            Population analysis using the SCF density.

 **********************************************************************

 Orbital symmetries:
       Occupied  (A') (A') (A') (A') (A") (A') (A') (A")
       Virtual   (A') (A') (A') (A') (A") (A') (A') (A") (A') (A')
                 (A') (A') (A') (A') (A') (A')
 The electronic state is 1-A'.
 Alpha  occ. eigenvalues --   -1.46450  -1.26948  -0.83710  -0.74319  -0.59004
 Alpha  occ. eigenvalues --   -0.55663  -0.43813  -0.41030
 Alpha virt. eigenvalues --    0.16779   0.24327   0.30367   0.62212   0.73313
 Alpha virt. eigenvalues --    0.74328   0.90563   0.91716   0.92696   1.04473
 Alpha virt. eigenvalues --    1.11734   1.19723   1.30936   1.45648   3.01245
 Alpha virt. eigenvalues --    4.71722
          Condensed to atoms (all electrons):
               1          2          3          4          5          6
     1  O    6.257716   0.472785   0.270644  -0.271680   0.001599   0.003158
     2  H    0.472785   0.657847  -0.055213  -0.354366   0.018000   0.020483
     3  H    0.270644  -0.055213   0.435507   0.023503  -0.000036  -0.000620
     4  O   -0.271680  -0.354366   0.023503   6.886159   0.241491   0.245839
     5  H    0.001599   0.018000  -0.000036   0.241491   0.313021  -0.014445
     6  H    0.003158   0.020483  -0.000620   0.245839  -0.014445   0.247465
 Mulliken charges:
               1
     1  O   -0.734221
     2  H    0.240464
     3  H    0.326216
     4  O   -0.770947
     5  H    0.440370
     6  H    0.498119
 Sum of Mulliken charges =  -0.00000
 Mulliken charges with hydrogens summed into heavy atoms:
               1
     1  O   -0.167542
     4  O    0.167542
 Electronic spatial extent (au):  <R**2>=            103.6221
 Charge=              0.0000 electrons
 Dipole moment (field-independent basis, Debye):
    X=             -0.7178    Y=              5.3949    Z=              0.0000  Tot=              5.4425
 Quadrupole moment (field-independent basis, Debye-Ang):
   XX=             -9.5955   YY=            -10.5424   ZZ=            -14.9148
   XY=              3.6634   XZ=              0.0000   YZ=              0.0000
 Traceless Quadrupole moment (field-independent basis, Debye-Ang):
   XX=              2.0887   YY=              1.1418   ZZ=             -3.2305
   XY=              3.6634   XZ=              0.0000   YZ=              0.0000
 Octapole moment (field-independent basis, Debye-Ang**2):
  XXX=              0.4805  YYY=             19.6849  ZZZ=              0.0000  XYY=             -5.7532
  XXY=              2.2365  XXZ=              0.0000  XZZ=             -0.1448  YZZ=              1.4326
  YYZ=              0.0000  XYZ=              0.0000
 Hexadecapole moment (field-independent basis, Debye-Ang**3):
 XXXX=            -11.1192 YYYY=            -84.0029 ZZZZ=            -12.2256 XXXY=              2.1344
 XXXZ=              0.0000 YYYX=              1.1571 YYYZ=              0.0000 ZZZX=              0.0000
 ZZZY=              0.0000 XXYY=            -14.2110 XXZZ=             -4.5128 YYZZ=            -21.5600
 XXYZ=              0.0000 YYXZ=              0.0000 ZZXY=             -0.5345
 N-N= 3.017200571810D+01 E-N=-1.423087607420D+02  KE= 2.740408371026D+01
 Symmetry A'   KE= 1.860673295780D+01
 Symmetry A"   KE= 8.797350752463D+00
 Leave Link  601 at Sun Dec 10 06:19:28 2023, MaxMem=   536870912 cpu:               0.2 elap:               0.0
 (Enter /usr/site/hpc/x86_64/glibc-2.17/broadwell/gaussian/g16_a.03/pgi-16.5/g16/l9999.exe)
 1\1\GINC-N044\SP\RCCSD(T)-FC\CEP-31G\H4O2\ROOT\10-Dec-2023\0\\#p CCSD(
 T)/CEP-31G\\H2O_H2O_73\\0,1\O,0,0.,-0.009833,0.\H,0,-0.799571,-0.58096
 5,0.\H,0,0.799571,-0.580965,0.\O,0,-1.703055,-1.210122,0.\H,0,-2.32525
 8,-0.449617,0.\H,0,-2.22067,-2.045336,0.\\Version=ES64L-G16RevA.03\Sta
 te=1-A'\HF=-33.5896944\MP2=-33.8163547\MP3=-33.8194966\MP4D=-33.824226
 3\MP4DQ=-33.8248466\MP4SDQ=-33.8272167\CCSD=-33.8278458\CCSD(T)=-33.83
 10415\RMSD=6.102e-09\PG=CS [SG(H4O2)]\\@


 IF YOU GIVE EVERYONE A PIECE OF YOUR MIND,
 PRETTY SOON IT WILL BE ALL GONE.
 Job cpu time:       0 days  0 hours  0 minutes  4.1 seconds.
 Elapsed time:       0 days  0 hours  0 minutes  1.1 seconds.
 File lengths (MBytes):  RWF=     72 Int=      0 D2E=      0 Chk=      8 Scr=      8
 Normal termination of Gaussian 16 at Sun Dec 10 06:19:28 2023.
