 Entering Gaussian System, Link 0=g16
 Input=H2O_H2O_1856.com
 Output=H2O_H2O_1856.log
 Initial command:
 /usr/site/hpc/x86_64/glibc-2.17/broadwell/gaussian/g16_a.03/pgi-16.5/g16/l1.exe "/gpfs/gpfs1/scratch/c7441090/OH Coord/Gau-1696777.inp" -scrdir="/gpfs/gpfs1/scratch/c7441090/OH Coord/"
 Entering Link 1 = /usr/site/hpc/x86_64/glibc-2.17/broadwell/gaussian/g16_a.03/pgi-16.5/g16/l1.exe PID=   1696778.
  
 Copyright (c) 1988,1990,1992,1993,1995,1998,2003,2009,2016,
            Gaussian, Inc.  All Rights Reserved.
  
 This is part of the Gaussian(R) 16 program.  It is based on
 the Gaussian(R) 09 system (copyright 2009, Gaussian, Inc.),
 the Gaussian(R) 03 system (copyright 2003, Gaussian, Inc.),
 the Gaussian(R) 98 system (copyright 1998, Gaussian, Inc.),
 the Gaussian(R) 94 system (copyright 1995, Gaussian, Inc.),
 the Gaussian 92(TM) system (copyright 1992, Gaussian, Inc.),
 the Gaussian 90(TM) system (copyright 1990, Gaussian, Inc.),
 the Gaussian 88(TM) system (copyright 1988, Gaussian, Inc.),
 the Gaussian 86(TM) system (copyright 1986, Carnegie Mellon
 University), and the Gaussian 82(TM) system (copyright 1983,
 Carnegie Mellon University). Gaussian is a federally registered
 trademark of Gaussian, Inc.
  
 This software contains proprietary and confidential information,
 including trade secrets, belonging to Gaussian, Inc.
  
 This software is provided under written license and may be
 used, copied, transmitted, or stored only in accord with that
 written license.
  
 The following legend is applicable only to US Government
 contracts under FAR:
  
                    RESTRICTED RIGHTS LEGEND
  
 Use, reproduction and disclosure by the US Government is
 subject to restrictions as set forth in subparagraphs (a)
 and (c) of the Commercial Computer Software - Restricted
 Rights clause in FAR 52.227-19.
  
 Gaussian, Inc.
 340 Quinnipiac St., Bldg. 40, Wallingford CT 06492
  
  
 ---------------------------------------------------------------
 Warning -- This program may not be used in any manner that
 competes with the business of Gaussian, Inc. or will provide
 assistance to any competitor of Gaussian, Inc.  The licensee
 of this program is prohibited from giving any competitor of
 Gaussian, Inc. access to this program.  By using this program,
 the user acknowledges that Gaussian, Inc. is engaged in the
 business of creating and licensing software in the field of
 computational chemistry and represents and warrants to the
 licensee that it is not a competitor of Gaussian, Inc. and that
 it will not use this program in any manner prohibited above.
 ---------------------------------------------------------------
  

 Cite this work as:
 Gaussian 16, Revision A.03,
 M. J. Frisch, G. W. Trucks, H. B. Schlegel, G. E. Scuseria, 
 M. A. Robb, J. R. Cheeseman, G. Scalmani, V. Barone, 
 G. A. Petersson, H. Nakatsuji, X. Li, M. Caricato, A. V. Marenich, 
 J. Bloino, B. G. Janesko, R. Gomperts, B. Mennucci, H. P. Hratchian, 
 J. V. Ortiz, A. F. Izmaylov, J. L. Sonnenberg, D. Williams-Young, 
 F. Ding, F. Lipparini, F. Egidi, J. Goings, B. Peng, A. Petrone, 
 T. Henderson, D. Ranasinghe, V. G. Zakrzewski, J. Gao, N. Rega, 
 G. Zheng, W. Liang, M. Hada, M. Ehara, K. Toyota, R. Fukuda, 
 J. Hasegawa, M. Ishida, T. Nakajima, Y. Honda, O. Kitao, H. Nakai, 
 T. Vreven, K. Throssell, J. A. Montgomery, Jr., J. E. Peralta, 
 F. Ogliaro, M. J. Bearpark, J. J. Heyd, E. N. Brothers, K. N. Kudin, 
 V. N. Staroverov, T. A. Keith, R. Kobayashi, J. Normand, 
 K. Raghavachari, A. P. Rendell, J. C. Burant, S. S. Iyengar, 
 J. Tomasi, M. Cossi, J. M. Millam, M. Klene, C. Adamo, R. Cammi, 
 J. W. Ochterski, R. L. Martin, K. Morokuma, O. Farkas, 
 J. B. Foresman, and D. J. Fox, Gaussian, Inc., Wallingford CT, 2016.
 
 ******************************************
 Gaussian 16:  ES64L-G16RevA.03 25-Dec-2016
                10-Dec-2023 
 ******************************************
 %NProcShared=4
 Will use up to    4 processors via shared memory.
 %Mem=4GB
 %Chk=H2O_H2O_1856.chk
 ------------------
 #p CCSD(T)/CEP-31G
 ------------------
 1/38=1,172=1/1;
 2/12=2,17=6,18=5,40=1/2;
 3/5=9,6=1,11=9,25=1,30=1/1,2,3;
 4//1;
 5/5=2,38=5/2;
 8/6=4,9=120000,10=1/1,4;
 9/5=7,14=2/13;
 6/7=2,8=2,9=2,10=2/1;
 99/5=1,9=1/99;
 Leave Link    1 at Sun Dec 10 06:53:54 2023, MaxMem=   536870912 cpu:               0.2 elap:               0.1
 (Enter /usr/site/hpc/x86_64/glibc-2.17/broadwell/gaussian/g16_a.03/pgi-16.5/g16/l101.exe)
 ------------
 H2O_H2O_1856
 ------------
 Symbolic Z-matrix:
 Charge =  0 Multiplicity = 1
 O                     0.       -0.00983   0. 
 H                    -0.79957  -0.58097   0. 
 H                     0.79957  -0.58097   0. 
 O                    -2.86549  -2.05321   0. 
 H                    -3.82276  -2.27488   0. 
 H                    -2.34534  -2.88685   0. 
 
 ITRead=  0  0  0  0  0  0
 MicOpt= -1 -1 -1 -1 -1 -1
 NAtoms=      6 NQM=        6 NQMF=       0 NMMI=      0 NMMIF=      0
                NMic=       0 NMicF=      0.
                    Isotopes and Nuclear Properties:
 (Nuclear quadrupole moments (NQMom) in fm**2, nuclear magnetic moments (NMagM)
  in nuclear magnetons)

  Atom         1           2           3           4           5           6
 IAtWgt=          16           1           1          16           1           1
 AtmWgt=  15.9949146   1.0078250   1.0078250  15.9949146   1.0078250   1.0078250
 NucSpn=           0           1           1           0           1           1
 AtZEff=  -0.0000000  -0.0000000  -0.0000000  -0.0000000  -0.0000000  -0.0000000
 NQMom=    0.0000000   0.0000000   0.0000000   0.0000000   0.0000000   0.0000000
 NMagM=    0.0000000   2.7928460   2.7928460   0.0000000   2.7928460   2.7928460
 AtZNuc=   8.0000000   1.0000000   1.0000000   8.0000000   1.0000000   1.0000000
 Leave Link  101 at Sun Dec 10 06:53:54 2023, MaxMem=   536870912 cpu:               0.3 elap:               0.1
 (Enter /usr/site/hpc/x86_64/glibc-2.17/broadwell/gaussian/g16_a.03/pgi-16.5/g16/l202.exe)
                          Input orientation:                          
 ---------------------------------------------------------------------
 Center     Atomic      Atomic             Coordinates (Angstroms)
 Number     Number       Type             X           Y           Z
 ---------------------------------------------------------------------
      1          8           0        0.000000   -0.009833    0.000000
      2          1           0       -0.799571   -0.580965    0.000000
      3          1           0        0.799571   -0.580965    0.000000
      4          8           0       -2.865486   -2.053207    0.000000
      5          1           0       -3.822757   -2.274882    0.000000
      6          1           0       -2.345342   -2.886847    0.000000
 ---------------------------------------------------------------------
                    Distance matrix (angstroms):
                    1          2          3          4          5
     1  O    0.000000
     2  H    0.982601   0.000000
     3  H    0.982601   1.599142   0.000000
     4  O    3.519430   2.536829   3.949701   0.000000
     5  H    4.443413   3.465402   4.922933   0.982602   0.000000
     6  H    3.711851   2.776058   3.899688   0.982601   1.599142
                    6
     6  H    0.000000
 Stoichiometry    H4O2
 Framework group  CS[SG(H4O2)]
 Deg. of freedom     9
 Full point group                 CS      NOp   2
 Largest Abelian subgroup         CS      NOp   2
 Largest concise Abelian subgroup C1      NOp   1
                         Standard orientation:                         
 ---------------------------------------------------------------------
 Center     Atomic      Atomic             Coordinates (Angstroms)
 Number     Number       Type             X           Y           Z
 ---------------------------------------------------------------------
      1          8           0        0.076773    1.841306    0.000000
      2          1           0        0.075992    0.858705    0.000000
      3          1           0       -0.852467    2.160711   -0.000000
      4          8           0        0.076773   -1.678124    0.000000
      5          1           0        0.452077   -2.586229    0.000000
      6          1           0       -0.903964   -1.738638   -0.000000
 ---------------------------------------------------------------------
 Rotational constants (GHZ):         265.7532328           4.4147454           4.3426052
 Leave Link  202 at Sun Dec 10 06:53:54 2023, MaxMem=   536870912 cpu:               0.1 elap:               0.0
 (Enter /usr/site/hpc/x86_64/glibc-2.17/broadwell/gaussian/g16_a.03/pgi-16.5/g16/l301.exe)
 Standard basis: CEP-31G (6D, 10F)
 Ernie: Thresh=  0.10000D-02 Tol=  0.10000D-05 Strict=F.
 There are    20 symmetry adapted cartesian basis functions of A'  symmetry.
 There are     4 symmetry adapted cartesian basis functions of A"  symmetry.
 There are    20 symmetry adapted basis functions of A'  symmetry.
 There are     4 symmetry adapted basis functions of A"  symmetry.
    24 basis functions,    48 primitive gaussians,    24 cartesian basis functions
     8 alpha electrons        8 beta electrons
       nuclear repulsion energy        23.2117879845 Hartrees.
 IExCor=    0 DFT=F Ex=HF Corr=None ExCW=0 ScaHFX=  1.000000
 ScaDFX=  1.000000  1.000000  1.000000  1.000000 ScalE2=  1.000000  1.000000
 IRadAn=      5 IRanWt=     -1 IRanGd=            0 ICorTp=0 IEmpDi=  4
 NAtoms=    6 NActive=    6 NUniq=    6 SFac= 1.00D+00 NAtFMM=   60 NAOKFM=F Big=F
 Integral buffers will be    131072 words long.
 Raffenetti 1 integral format.
 Two-electron integral symmetry is turned on.
 Leave Link  301 at Sun Dec 10 06:53:54 2023, MaxMem=   536870912 cpu:               0.2 elap:               0.1
 (Enter /usr/site/hpc/x86_64/glibc-2.17/broadwell/gaussian/g16_a.03/pgi-16.5/g16/l302.exe)
 NPDir=0 NMtPBC=     1 NCelOv=     1 NCel=       1 NClECP=     1 NCelD=      1
         NCelK=      1 NCelE2=     1 NClLst=     1 CellRange=     0.0.
 One-electron integrals computed using PRISM.
 One-electron integral symmetry used in STVInt
   2 Symmetry operations used in ECPInt.
 ECPInt:  NShTT=      78 NPrTT=     318 LenC2=      79 LenP2D=     283.
 LDataN:  DoStor=T MaxTD1= 2 Len=   12
 NBasis=    24 RedAO= T EigKep=  2.99D-02  NBF=    20     4
 NBsUse=    24 1.00D-06 EigRej= -1.00D+00 NBFU=    20     4
 Leave Link  302 at Sun Dec 10 06:53:54 2023, MaxMem=   536870912 cpu:               0.3 elap:               0.1
 (Enter /usr/site/hpc/x86_64/glibc-2.17/broadwell/gaussian/g16_a.03/pgi-16.5/g16/l303.exe)
 DipDrv:  MaxL=1.
 Leave Link  303 at Sun Dec 10 06:53:54 2023, MaxMem=   536870912 cpu:               0.1 elap:               0.0
 (Enter /usr/site/hpc/x86_64/glibc-2.17/broadwell/gaussian/g16_a.03/pgi-16.5/g16/l401.exe)
 ExpMin= 1.78D-01 ExpMax= 1.92D+01 ExpMxC= 1.92D+01 IAcc=3 IRadAn=         5 AccDes= 0.00D+00
 Harris functional with IExCor=  205 and IRadAn=       5 diagonalized for initial guess.
 HarFok:  IExCor=  205 AccDes= 0.00D+00 IRadAn=         5 IDoV= 1 UseB2=F ITyADJ=14
 ICtDFT=  3500011 ScaDFX=  1.000000  1.000000  1.000000  1.000000
 FoFCou: FMM=F IPFlag=           0 FMFlag=      100000 FMFlg1=           0
         NFxFlg=           0 DoJE=T BraDBF=F KetDBF=T FulRan=T
         wScrn=  0.000000 ICntrl=       500 IOpCl=  0 I1Cent=   200000004 NGrid=           0
         NMat0=    1 NMatS0=      1 NMatT0=    0 NMatD0=    1 NMtDS0=    0 NMtDT0=    0
 Petite list used in FoFCou.
 Harris En= -34.4781070495921    
 JPrj=0 DoOrth=F DoCkMO=F.
 Initial guess orbital symmetries:
       Occupied  (A') (A') (A') (A') (A') (A') (A") (A")
       Virtual   (A') (A') (A') (A') (A") (A') (A") (A') (A') (A')
                 (A') (A') (A') (A') (A') (A')
 The electronic state of the initial guess is 1-A'.
 Leave Link  401 at Sun Dec 10 06:53:55 2023, MaxMem=   536870912 cpu:               0.4 elap:               0.1
 (Enter /usr/site/hpc/x86_64/glibc-2.17/broadwell/gaussian/g16_a.03/pgi-16.5/g16/l502.exe)
 Keep R1 ints in memory in symmetry-blocked form, NReq=852476.
 FoFCou: FMM=F IPFlag=           0 FMFlag=           0 FMFlg1=           0
         NFxFlg=           0 DoJE=F BraDBF=F KetDBF=F FulRan=T
         wScrn=  0.000000 ICntrl=       600 IOpCl=  0 I1Cent=           0 NGrid=           0
         NMat0=    1 NMatS0=    300 NMatT0=    0 NMatD0=    1 NMtDS0=    0 NMtDT0=    0
 Petite list used in FoFCou.
 Closed shell SCF:
 Using DIIS extrapolation, IDIIS=  1040.
 NGot=   536870912 LenX=   536840576 LenY=   536839559
 Requested convergence on RMS density matrix=1.00D-08 within 128 cycles.
 Requested convergence on MAX density matrix=1.00D-06.
 Requested convergence on             energy=1.00D-06.
 No special actions if energy rises.

 Cycle   1  Pass 1  IDiag  1:
 E= -33.5663949864827    
 DIIS: error= 6.64D-02 at cycle   1 NSaved=   1.
 NSaved= 1 IEnMin= 1 EnMin= -33.5663949864827     IErMin= 1 ErrMin= 6.64D-02
 ErrMax= 6.64D-02  0.00D+00 EMaxC= 1.00D-01 BMatC= 9.85D-02 BMatP= 9.85D-02
 IDIUse=3 WtCom= 3.36D-01 WtEn= 6.64D-01
 Coeff-Com:  0.100D+01
 Coeff-En:   0.100D+01
 Coeff:      0.100D+01
 Gap=     0.584 Goal=   None    Shift=    0.000
 GapD=    0.584 DampG=2.000 DampE=0.500 DampFc=1.0000 IDamp=-1.
 RMSDP=1.45D-02 MaxDP=1.19D-01              OVMax= 9.80D-02

 Cycle   2  Pass 1  IDiag  1:
 E= -33.6267791383011     Delta-E=       -0.060384151818 Rises=F Damp=F
 DIIS: error= 3.61D-02 at cycle   2 NSaved=   2.
 NSaved= 2 IEnMin= 2 EnMin= -33.6267791383011     IErMin= 2 ErrMin= 3.61D-02
 ErrMax= 3.61D-02  0.00D+00 EMaxC= 1.00D-01 BMatC= 3.60D-02 BMatP= 9.85D-02
 IDIUse=3 WtCom= 6.39D-01 WtEn= 3.61D-01
 Coeff-Com:  0.374D+00 0.626D+00
 Coeff-En:   0.102D+00 0.898D+00
 Coeff:      0.276D+00 0.724D+00
 Gap=     0.661 Goal=   None    Shift=    0.000
 RMSDP=6.21D-03 MaxDP=5.32D-02 DE=-6.04D-02 OVMax= 3.50D-02

 Cycle   3  Pass 1  IDiag  1:
 E= -33.6555638689362     Delta-E=       -0.028784730635 Rises=F Damp=F
 DIIS: error= 6.88D-03 at cycle   3 NSaved=   3.
 NSaved= 3 IEnMin= 3 EnMin= -33.6555638689362     IErMin= 3 ErrMin= 6.88D-03
 ErrMax= 6.88D-03  0.00D+00 EMaxC= 1.00D-01 BMatC= 8.51D-04 BMatP= 3.60D-02
 IDIUse=3 WtCom= 9.31D-01 WtEn= 6.88D-02
 Coeff-Com: -0.112D+00-0.159D-01 0.113D+01
 Coeff-En:   0.000D+00 0.000D+00 0.100D+01
 Coeff:     -0.105D+00-0.149D-01 0.112D+01
 Gap=     0.654 Goal=   None    Shift=    0.000
 RMSDP=1.04D-03 MaxDP=8.82D-03 DE=-2.88D-02 OVMax= 7.87D-03

 Cycle   4  Pass 1  IDiag  1:
 E= -33.6564044845197     Delta-E=       -0.000840615583 Rises=F Damp=F
 DIIS: error= 6.89D-04 at cycle   4 NSaved=   4.
 NSaved= 4 IEnMin= 4 EnMin= -33.6564044845197     IErMin= 4 ErrMin= 6.89D-04
 ErrMax= 6.89D-04  0.00D+00 EMaxC= 1.00D-01 BMatC= 5.32D-06 BMatP= 8.51D-04
 IDIUse=3 WtCom= 9.93D-01 WtEn= 6.89D-03
 Coeff-Com:  0.419D-01-0.172D-01-0.512D+00 0.149D+01
 Coeff-En:   0.000D+00 0.000D+00 0.000D+00 0.100D+01
 Coeff:      0.416D-01-0.171D-01-0.508D+00 0.148D+01
 Gap=     0.656 Goal=   None    Shift=    0.000
 RMSDP=2.32D-04 MaxDP=1.85D-03 DE=-8.41D-04 OVMax= 1.09D-03

 Cycle   5  Pass 1  IDiag  1:
 E= -33.6564165952081     Delta-E=       -0.000012110688 Rises=F Damp=F
 DIIS: error= 5.33D-05 at cycle   5 NSaved=   5.
 NSaved= 5 IEnMin= 5 EnMin= -33.6564165952081     IErMin= 5 ErrMin= 5.33D-05
 ErrMax= 5.33D-05  0.00D+00 EMaxC= 1.00D-01 BMatC= 3.96D-08 BMatP= 5.32D-06
 IDIUse=1 WtCom= 1.00D+00 WtEn= 0.00D+00
 Coeff-Com: -0.685D-02 0.303D-02 0.847D-01-0.297D+00 0.122D+01
 Coeff:     -0.685D-02 0.303D-02 0.847D-01-0.297D+00 0.122D+01
 Gap=     0.656 Goal=   None    Shift=    0.000
 RMSDP=1.73D-05 MaxDP=1.74D-04 DE=-1.21D-05 OVMax= 1.08D-04

 Cycle   6  Pass 1  IDiag  1:
 E= -33.6564166916215     Delta-E=       -0.000000096413 Rises=F Damp=F
 DIIS: error= 1.01D-05 at cycle   6 NSaved=   6.
 NSaved= 6 IEnMin= 6 EnMin= -33.6564166916215     IErMin= 6 ErrMin= 1.01D-05
 ErrMax= 1.01D-05  0.00D+00 EMaxC= 1.00D-01 BMatC= 2.63D-09 BMatP= 3.96D-08
 IDIUse=1 WtCom= 1.00D+00 WtEn= 0.00D+00
 Coeff-Com: -0.974D-03 0.508D-03 0.123D-01-0.363D-01-0.104D-01 0.103D+01
 Coeff:     -0.974D-03 0.508D-03 0.123D-01-0.363D-01-0.104D-01 0.103D+01
 Gap=     0.656 Goal=   None    Shift=    0.000
 RMSDP=3.31D-06 MaxDP=2.41D-05 DE=-9.64D-08 OVMax= 3.17D-05

 Cycle   7  Pass 1  IDiag  1:
 E= -33.6564166966620     Delta-E=       -0.000000005041 Rises=F Damp=F
 DIIS: error= 3.51D-06 at cycle   7 NSaved=   7.
 NSaved= 7 IEnMin= 7 EnMin= -33.6564166966620     IErMin= 7 ErrMin= 3.51D-06
 ErrMax= 3.51D-06  0.00D+00 EMaxC= 1.00D-01 BMatC= 5.34D-10 BMatP= 2.63D-09
 IDIUse=1 WtCom= 1.00D+00 WtEn= 0.00D+00
 Coeff-Com:  0.887D-03-0.369D-03-0.109D-01 0.392D-01-0.188D+00 0.214D+00
 Coeff-Com:  0.945D+00
 Coeff:      0.887D-03-0.369D-03-0.109D-01 0.392D-01-0.188D+00 0.214D+00
 Coeff:      0.945D+00
 Gap=     0.656 Goal=   None    Shift=    0.000
 RMSDP=1.43D-06 MaxDP=1.08D-05 DE=-5.04D-09 OVMax= 1.39D-05

 Cycle   8  Pass 1  IDiag  1:
 E= -33.6564166975898     Delta-E=       -0.000000000928 Rises=F Damp=F
 DIIS: error= 1.00D-06 at cycle   8 NSaved=   8.
 NSaved= 8 IEnMin= 8 EnMin= -33.6564166975898     IErMin= 8 ErrMin= 1.00D-06
 ErrMax= 1.00D-06  0.00D+00 EMaxC= 1.00D-01 BMatC= 2.25D-11 BMatP= 5.34D-10
 IDIUse=1 WtCom= 1.00D+00 WtEn= 0.00D+00
 Coeff-Com:  0.543D-05-0.274D-04-0.138D-03-0.275D-03 0.222D-01-0.115D+00
 Coeff-Com: -0.135D+00 0.123D+01
 Coeff:      0.543D-05-0.274D-04-0.138D-03-0.275D-03 0.222D-01-0.115D+00
 Coeff:     -0.135D+00 0.123D+01
 Gap=     0.656 Goal=   None    Shift=    0.000
 RMSDP=4.74D-07 MaxDP=2.88D-06 DE=-9.28D-10 OVMax= 4.04D-06

 Cycle   9  Pass 1  IDiag  1:
 E= -33.6564166976486     Delta-E=       -0.000000000059 Rises=F Damp=F
 DIIS: error= 1.44D-07 at cycle   9 NSaved=   9.
 NSaved= 9 IEnMin= 9 EnMin= -33.6564166976486     IErMin= 9 ErrMin= 1.44D-07
 ErrMax= 1.44D-07  0.00D+00 EMaxC= 1.00D-01 BMatC= 6.36D-13 BMatP= 2.25D-11
 IDIUse=1 WtCom= 1.00D+00 WtEn= 0.00D+00
 Coeff-Com:  0.419D-05 0.672D-05-0.178D-04 0.247D-03-0.790D-02 0.432D-01
 Coeff-Com:  0.416D-01-0.499D+00 0.142D+01
 Coeff:      0.419D-05 0.672D-05-0.178D-04 0.247D-03-0.790D-02 0.432D-01
 Coeff:      0.416D-01-0.499D+00 0.142D+01
 Gap=     0.656 Goal=   None    Shift=    0.000
 RMSDP=1.14D-07 MaxDP=5.11D-07 DE=-5.88D-11 OVMax= 7.72D-07

 Cycle  10  Pass 1  IDiag  1:
 E= -33.6564166976504     Delta-E=       -0.000000000002 Rises=F Damp=F
 DIIS: error= 1.26D-08 at cycle  10 NSaved=  10.
 NSaved=10 IEnMin=10 EnMin= -33.6564166976504     IErMin=10 ErrMin= 1.26D-08
 ErrMax= 1.26D-08  0.00D+00 EMaxC= 1.00D-01 BMatC= 6.49D-15 BMatP= 6.36D-13
 IDIUse=1 WtCom= 1.00D+00 WtEn= 0.00D+00
 Coeff-Com:  0.279D-06-0.181D-05-0.104D-04 0.497D-05 0.137D-02-0.882D-02
 Coeff-Com: -0.745D-02 0.102D+00-0.376D+00 0.129D+01
 Coeff:      0.279D-06-0.181D-05-0.104D-04 0.497D-05 0.137D-02-0.882D-02
 Coeff:     -0.745D-02 0.102D+00-0.376D+00 0.129D+01
 Gap=     0.656 Goal=   None    Shift=    0.000
 RMSDP=1.50D-08 MaxDP=7.48D-08 DE=-1.79D-12 OVMax= 9.55D-08

 Cycle  11  Pass 1  IDiag  1:
 E= -33.6564166976505     Delta-E=       -0.000000000000 Rises=F Damp=F
 DIIS: error= 8.81D-10 at cycle  11 NSaved=  11.
 NSaved=11 IEnMin=11 EnMin= -33.6564166976505     IErMin=11 ErrMin= 8.81D-10
 ErrMax= 8.81D-10  0.00D+00 EMaxC= 1.00D-01 BMatC= 3.34D-17 BMatP= 6.49D-15
 IDIUse=1 WtCom= 1.00D+00 WtEn= 0.00D+00
 Coeff-Com: -0.102D-06 0.387D-06 0.263D-05-0.302D-05-0.279D-03 0.185D-02
 Coeff-Com:  0.152D-02-0.216D-01 0.808D-01-0.314D+00 0.125D+01
 Coeff:     -0.102D-06 0.387D-06 0.263D-05-0.302D-05-0.279D-03 0.185D-02
 Coeff:      0.152D-02-0.216D-01 0.808D-01-0.314D+00 0.125D+01
 Gap=     0.656 Goal=   None    Shift=    0.000
 RMSDP=8.60D-10 MaxDP=5.09D-09 DE=-5.68D-14 OVMax= 5.47D-09

 SCF Done:  E(RHF) =  -33.6564166977     A.U. after   11 cycles
            NFock= 11  Conv=0.86D-09     -V/T= 2.2566
 KE= 2.678442822671D+01 PE=-1.280274186892D+02 EE= 4.437478578039D+01
 Leave Link  502 at Sun Dec 10 06:53:55 2023, MaxMem=   536870912 cpu:               0.3 elap:               0.1
 (Enter /usr/site/hpc/x86_64/glibc-2.17/broadwell/gaussian/g16_a.03/pgi-16.5/g16/l801.exe)
 Windowed orbitals will be sorted by symmetry type.
 Range of M.O.s used for correlation:     1    24
 NBasis=    24 NAE=     8 NBE=     8 NFC=     0 NFV=     0
 NROrb=     24 NOA=     8 NOB=     8 NVA=    16 NVB=    16
 Leave Link  801 at Sun Dec 10 06:53:55 2023, MaxMem=   536870912 cpu:               0.1 elap:               0.0
 (Enter /usr/site/hpc/x86_64/glibc-2.17/broadwell/gaussian/g16_a.03/pgi-16.5/g16/l804.exe)
 Closed-shell transformation, MDV=   536870912 ITran=4 ISComp=2.
 Unit  1 TFree=       1025975 TCopy=        210600.
 Semi-Direct transformation.
 ModeAB=           2 MOrb=             8 LenV=     536741818
 LASXX=        22470 LTotXX=       22470 LenRXX=       22470
 LTotAB=       26208 MaxLAS=       57600 LenRXY=       57600
 NonZer=       62208 LenScr=      524288 LnRSAI=           0
 LnScr1=           0 LExtra=           0 Total=       604358
 MaxDsk=          -1 SrtSym=           F ITran=            4
 DoSDTr:  NPSUse=  4
 JobTyp=0 Pass  1:  I=   1 to   8.
 (rs|ai) integrals will be sorted in core.
 Complete sort for first half transformation.
 First half transformation complete.
 Complete sort for second half transformation.
 Second half transformation complete.
 Spin components of T(2) and E(2):
     alpha-alpha T2 =       0.9085613354D-02 E2=     -0.2601690158D-01
     alpha-beta  T2 =       0.5974380253D-01 E2=     -0.1767056918D+00
     beta-beta   T2 =       0.9085613354D-02 E2=     -0.2601690158D-01
 ANorm=    0.1038226868D+01
 E2 =    -0.2287394949D+00 EUMP2 =    -0.33885156192558D+02
 Leave Link  804 at Sun Dec 10 06:53:55 2023, MaxMem=   536870912 cpu:               0.2 elap:               0.1
 (Enter /usr/site/hpc/x86_64/glibc-2.17/broadwell/gaussian/g16_a.03/pgi-16.5/g16/l913.exe)
 CIDS:  MDV=   536870912.
 IFCWin=0 IBDFC=1 NFBD=     0     0 NFCmp=     0     0 NFFFC=     0     0
 Using DD3R+UMP44R for 1st iteration.
 Using DD4RQ for 2nd and later iterations.
 Keep R2 and R3 ints in memory in symmetry-blocked form, NReq=865084.
 FoFCou: FMM=F IPFlag=           0 FMFlag=           0 FMFlg1=           0
         NFxFlg=           0 DoJE=F BraDBF=F KetDBF=F FulRan=T
         wScrn=  0.000000 ICntrl=       600 IOpCl=  0 I1Cent=           0 NGrid=           0
         NMat0=    1 NMatS0=    300 NMatT0=    0 NMatD0=    1 NMtDS0=    0 NMtDT0=    0
 Petite list used in FoFCou.
 CIDS: In Core Option IDoMem=           1.
 CCSD(T)
 =======
 Iterations=  50 Convergence= 0.100D-06
 Produce multiple copies of IABC intergrals
 Iteration Nr.   1
 **********************
 DD1Dir will call FoFMem   1 times, MxPair=        72
 NAB=    36 NAA=     0 NBB=     0.
 MP4(R+Q)= -0.73290555D-03
 Maximum subspace dimension=  5
 A-vector RMS=  5.8807031D-03 Max=  1.2769430D-02 conv= 1.00D-05.
 RLE energy=       -0.2346713184
 E3=       -0.53257819D-02        EUMP3=      -0.33890481974D+02
 E4(DQ)=   -0.58729310D-02        UMP4(DQ)=   -0.33896354906D+02
 E4(SDQ)=  -0.79732564D-02        UMP4(SDQ)=  -0.33898455231D+02
 VARIATIONAL ENERGIES WITH THE FIRST-ORDER WAVEFUNCTION:
 DE(Corr)= -0.23452172     E(Corr)=     -33.890938420    
 NORM(A)=   0.10416390D+01
 Iteration Nr.   2
 **********************
 DD1Dir will call FoFMem   1 times, MxPair=        72
 NAB=    36 NAA=     0 NBB=     0.
 A-vector RMS=  9.7245307D-04 Max=  2.6860152D-03 conv= 1.00D-05.
 RLE energy=       -0.2424644679
 DE(Corr)= -0.24054004     E(CORR)=     -33.896956737     Delta=-6.02D-03
 NORM(A)=   0.10454354D+01
 Iteration Nr.   3
 **********************
 DD1Dir will call FoFMem   1 times, MxPair=        72
 NAB=    36 NAA=     0 NBB=     0.
 A-vector RMS=  3.9261434D-04 Max=  8.7216799D-04 conv= 1.00D-05.
 RLE energy=       -0.2430141672
 DE(Corr)= -0.24256327     E(CORR)=     -33.898979963     Delta=-2.02D-03
 NORM(A)=   0.10459948D+01
 Iteration Nr.   4
 **********************
 DD1Dir will call FoFMem   1 times, MxPair=        72
 NAB=    36 NAA=     0 NBB=     0.
 A-vector RMS=  9.3619866D-05 Max=  2.4449706D-04 conv= 1.00D-05.
 RLE energy=       -0.2430626999
 DE(Corr)= -0.24302705     E(CORR)=     -33.899443743     Delta=-4.64D-04
 NORM(A)=   0.10460654D+01
 Iteration Nr.   5
 **********************
 DD1Dir will call FoFMem   1 times, MxPair=        72
 NAB=    36 NAA=     0 NBB=     0.
 A-vector RMS=  4.1370443D-05 Max=  1.3471236D-04 conv= 1.00D-05.
 RLE energy=       -0.2430622133
 DE(Corr)= -0.24305924     E(CORR)=     -33.899475936     Delta=-3.22D-05
 NORM(A)=   0.10460747D+01
 Iteration Nr.   6
 **********************
 DD1Dir will call FoFMem   1 times, MxPair=        72
 NAB=    36 NAA=     0 NBB=     0.
 A-vector RMS=  1.5068041D-05 Max=  5.2823851D-05 conv= 1.00D-05.
 RLE energy=       -0.2430590852
 DE(Corr)= -0.24306192     E(CORR)=     -33.899478619     Delta=-2.68D-06
 NORM(A)=   0.10460769D+01
 Iteration Nr.   7
 **********************
 DD1Dir will call FoFMem   1 times, MxPair=        72
 NAB=    36 NAA=     0 NBB=     0.
 A-vector RMS=  5.3546744D-06 Max=  1.9282973D-05 conv= 1.00D-05.
 RLE energy=       -0.2430609676
 DE(Corr)= -0.24306151     E(CORR)=     -33.899478204     Delta= 4.14D-07
 NORM(A)=   0.10460786D+01
 Iteration Nr.   8
 **********************
 DD1Dir will call FoFMem   1 times, MxPair=        72
 NAB=    36 NAA=     0 NBB=     0.
 A-vector RMS=  1.7475695D-06 Max=  7.5636041D-06 conv= 1.00D-05.
 RLE energy=       -0.2430610441
 DE(Corr)= -0.24306118     E(CORR)=     -33.899477875     Delta= 3.29D-07
 NORM(A)=   0.10460791D+01
 Iteration Nr.   9
 **********************
 DD1Dir will call FoFMem   1 times, MxPair=        72
 NAB=    36 NAA=     0 NBB=     0.
 A-vector RMS=  5.1269851D-07 Max=  2.2172978D-06 conv= 1.00D-05.
 RLE energy=       -0.2430612474
 DE(Corr)= -0.24306130     E(CORR)=     -33.899477997     Delta=-1.22D-07
 NORM(A)=   0.10460794D+01
 Iteration Nr.  10
 **********************
 DD1Dir will call FoFMem   1 times, MxPair=        72
 NAB=    36 NAA=     0 NBB=     0.
 A-vector RMS=  1.4225928D-07 Max=  5.6966444D-07 conv= 1.00D-05.
 RLE energy=       -0.2430614124
 DE(Corr)= -0.24306138     E(CORR)=     -33.899478081     Delta=-8.35D-08
 NORM(A)=   0.10460795D+01
 CI/CC converged in   10 iterations to DelEn=-8.35D-08 Conv= 1.00D-07 ErrA1= 1.42D-07 Conv= 1.00D-05
 Wavefunction amplitudes converged. E(Corr)=     -33.899478081    
 Largest amplitude= 5.24D-02
 IPart=  3 IA=    2   12.50% done.
 IPart=  4 IA=    3   24.17% done.
 IPart=  2 IA=    4   35.00% done.
 IPart=  2 IA=    5   45.00% done.
 IPart=  3 IA=    6   54.17% done.
 IPart=  4 IA=    7   62.50% done.
 IPart=  1 IA=    8   70.00% done.
 IPart=  4 IA=   10   82.50% done.
 IPart=  3 IA=   12   91.67% done.
 Time for triples=        0.27 seconds.
 T4(CCSD)= -0.31753994D-02
 T5(CCSD)=  0.54070265D-03
 CCSD(T)= -0.33902112777D+02
 Discarding MO integrals.
 Leave Link  913 at Sun Dec 10 06:53:55 2023, MaxMem=   536870912 cpu:               1.0 elap:               0.3
 (Enter /usr/site/hpc/x86_64/glibc-2.17/broadwell/gaussian/g16_a.03/pgi-16.5/g16/l601.exe)
 Copying SCF densities to generalized density rwf, IOpCl= 0 IROHF=0.

 **********************************************************************

            Population analysis using the SCF density.

 **********************************************************************

 Orbital symmetries:
       Occupied  (A') (A') (A') (A') (A') (A') (A") (A")
       Virtual   (A') (A') (A') (A') (A") (A') (A") (A') (A') (A')
                 (A') (A') (A') (A') (A') (A')
 The electronic state is 1-A'.
 Alpha  occ. eigenvalues --   -1.37586  -1.33487  -0.73306  -0.69084  -0.57674
 Alpha  occ. eigenvalues --   -0.53239  -0.52204  -0.48091
 Alpha virt. eigenvalues --    0.17507   0.23975   0.28697   0.35399   0.77965
 Alpha virt. eigenvalues --    0.82276   0.82862   0.85208   0.89141   0.94901
 Alpha virt. eigenvalues --    1.15303   1.19230   1.20701   1.36149   2.51887
 Alpha virt. eigenvalues --    2.87710
          Condensed to atoms (all electrons):
               1          2          3          4          5          6
     1  O    6.232581   0.271240   0.259093  -0.001106   0.000018   0.000150
     2  H    0.271240   0.347249  -0.023306   0.001871   0.000048  -0.000143
     3  H    0.259093  -0.023306   0.407613   0.000088  -0.000000  -0.000001
     4  O   -0.001106   0.001871   0.000088   6.228900   0.270617   0.261178
     5  H    0.000018   0.000048  -0.000000   0.270617   0.360144  -0.022313
     6  H    0.000150  -0.000143  -0.000001   0.261178  -0.022313   0.388645
 Mulliken charges:
               1
     1  O   -0.761974
     2  H    0.403039
     3  H    0.356513
     4  O   -0.761549
     5  H    0.391487
     6  H    0.372484
 Sum of Mulliken charges =  -0.00000
 Mulliken charges with hydrogens summed into heavy atoms:
               1
     1  O   -0.002422
     4  O    0.002422
 Electronic spatial extent (au):  <R**2>=            218.4229
 Charge=              0.0000 electrons
 Dipole moment (field-independent basis, Debye):
    X=             -3.4630    Y=             -4.0549    Z=             -0.0000  Tot=              5.3324
 Quadrupole moment (field-independent basis, Debye-Ang):
   XX=            -10.3365   YY=             -8.2094   ZZ=            -14.9967
   XY=             -3.5896   XZ=              0.0000   YZ=             -0.0000
 Traceless Quadrupole moment (field-independent basis, Debye-Ang):
   XX=              0.8443   YY=              2.9715   ZZ=             -3.8158
   XY=             -3.5896   XZ=              0.0000   YZ=             -0.0000
 Octapole moment (field-independent basis, Debye-Ang**2):
  XXX=             -3.7752  YYY=            -37.3405  ZZZ=             -0.0000  XYY=            -10.9612
  XXY=             -2.1136  XXZ=             -0.0000  XZZ=             -0.6472  YZZ=             -0.8120
  YYZ=             -0.0000  XYZ=             -0.0000
 Hexadecapole moment (field-independent basis, Debye-Ang**3):
 XXXX=            -12.3597 YYYY=           -196.2924 ZZZZ=            -12.2360 XXXY=              0.1415
 XXXZ=              0.0000 YYYX=            -29.1165 YYYZ=             -0.0000 ZZZX=             -0.0000
 ZZZY=              0.0000 XXYY=            -34.1547 XXZZ=             -4.5587 YYZZ=            -51.3447
 XXYZ=             -0.0000 YYXZ=              0.0000 ZZXY=              0.2461
 N-N= 2.321178798448D+01 E-N=-1.280274186891D+02  KE= 2.678442822671D+01
 Symmetry A'   KE= 1.790963000449D+01
 Symmetry A"   KE= 8.874798222214D+00
 Leave Link  601 at Sun Dec 10 06:53:55 2023, MaxMem=   536870912 cpu:               0.1 elap:               0.0
 (Enter /usr/site/hpc/x86_64/glibc-2.17/broadwell/gaussian/g16_a.03/pgi-16.5/g16/l9999.exe)
 1\1\GINC-N044\SP\RCCSD(T)-FC\CEP-31G\H4O2\ROOT\10-Dec-2023\0\\#p CCSD(
 T)/CEP-31G\\H2O_H2O_1856\\0,1\O,0,0.,-0.009833,0.\H,0,-0.799571,-0.580
 965,0.\H,0,0.799571,-0.580965,0.\O,0,-2.865486,-2.053207,0.\H,0,-3.822
 757,-2.274882,0.\H,0,-2.345342,-2.886847,0.\\Version=ES64L-G16RevA.03\
 State=1-A'\HF=-33.6564167\MP2=-33.8851562\MP3=-33.890482\MP4D=-33.8956
 22\MP4DQ=-33.8963549\MP4SDQ=-33.8984552\CCSD=-33.8994781\CCSD(T)=-33.9
 021128\RMSD=8.598e-10\PG=CS [SG(H4O2)]\\@


 OLD AGE AND TREACHERY WILL ALWAYS PREVAIL OVER YOUTH AND SKILL.
 Job cpu time:       0 days  0 hours  0 minutes  3.4 seconds.
 Elapsed time:       0 days  0 hours  0 minutes  1.1 seconds.
 File lengths (MBytes):  RWF=     72 Int=      0 D2E=      0 Chk=      8 Scr=      8
 Normal termination of Gaussian 16 at Sun Dec 10 06:53:55 2023.
