 Entering Gaussian System, Link 0=g16
 Input=H2O_H2O_1511.com
 Output=H2O_H2O_1511.log
 Initial command:
 /usr/site/hpc/x86_64/glibc-2.17/broadwell/gaussian/g16_a.03/pgi-16.5/g16/l1.exe "/gpfs/gpfs1/scratch/c7441090/OH Coord/Gau-1680654.inp" -scrdir="/gpfs/gpfs1/scratch/c7441090/OH Coord/"
 Entering Link 1 = /usr/site/hpc/x86_64/glibc-2.17/broadwell/gaussian/g16_a.03/pgi-16.5/g16/l1.exe PID=   1680655.
  
 Copyright (c) 1988,1990,1992,1993,1995,1998,2003,2009,2016,
            Gaussian, Inc.  All Rights Reserved.
  
 This is part of the Gaussian(R) 16 program.  It is based on
 the Gaussian(R) 09 system (copyright 2009, Gaussian, Inc.),
 the Gaussian(R) 03 system (copyright 2003, Gaussian, Inc.),
 the Gaussian(R) 98 system (copyright 1998, Gaussian, Inc.),
 the Gaussian(R) 94 system (copyright 1995, Gaussian, Inc.),
 the Gaussian 92(TM) system (copyright 1992, Gaussian, Inc.),
 the Gaussian 90(TM) system (copyright 1990, Gaussian, Inc.),
 the Gaussian 88(TM) system (copyright 1988, Gaussian, Inc.),
 the Gaussian 86(TM) system (copyright 1986, Carnegie Mellon
 University), and the Gaussian 82(TM) system (copyright 1983,
 Carnegie Mellon University). Gaussian is a federally registered
 trademark of Gaussian, Inc.
  
 This software contains proprietary and confidential information,
 including trade secrets, belonging to Gaussian, Inc.
  
 This software is provided under written license and may be
 used, copied, transmitted, or stored only in accord with that
 written license.
  
 The following legend is applicable only to US Government
 contracts under FAR:
  
                    RESTRICTED RIGHTS LEGEND
  
 Use, reproduction and disclosure by the US Government is
 subject to restrictions as set forth in subparagraphs (a)
 and (c) of the Commercial Computer Software - Restricted
 Rights clause in FAR 52.227-19.
  
 Gaussian, Inc.
 340 Quinnipiac St., Bldg. 40, Wallingford CT 06492
  
  
 ---------------------------------------------------------------
 Warning -- This program may not be used in any manner that
 competes with the business of Gaussian, Inc. or will provide
 assistance to any competitor of Gaussian, Inc.  The licensee
 of this program is prohibited from giving any competitor of
 Gaussian, Inc. access to this program.  By using this program,
 the user acknowledges that Gaussian, Inc. is engaged in the
 business of creating and licensing software in the field of
 computational chemistry and represents and warrants to the
 licensee that it is not a competitor of Gaussian, Inc. and that
 it will not use this program in any manner prohibited above.
 ---------------------------------------------------------------
  

 Cite this work as:
 Gaussian 16, Revision A.03,
 M. J. Frisch, G. W. Trucks, H. B. Schlegel, G. E. Scuseria, 
 M. A. Robb, J. R. Cheeseman, G. Scalmani, V. Barone, 
 G. A. Petersson, H. Nakatsuji, X. Li, M. Caricato, A. V. Marenich, 
 J. Bloino, B. G. Janesko, R. Gomperts, B. Mennucci, H. P. Hratchian, 
 J. V. Ortiz, A. F. Izmaylov, J. L. Sonnenberg, D. Williams-Young, 
 F. Ding, F. Lipparini, F. Egidi, J. Goings, B. Peng, A. Petrone, 
 T. Henderson, D. Ranasinghe, V. G. Zakrzewski, J. Gao, N. Rega, 
 G. Zheng, W. Liang, M. Hada, M. Ehara, K. Toyota, R. Fukuda, 
 J. Hasegawa, M. Ishida, T. Nakajima, Y. Honda, O. Kitao, H. Nakai, 
 T. Vreven, K. Throssell, J. A. Montgomery, Jr., J. E. Peralta, 
 F. Ogliaro, M. J. Bearpark, J. J. Heyd, E. N. Brothers, K. N. Kudin, 
 V. N. Staroverov, T. A. Keith, R. Kobayashi, J. Normand, 
 K. Raghavachari, A. P. Rendell, J. C. Burant, S. S. Iyengar, 
 J. Tomasi, M. Cossi, J. M. Millam, M. Klene, C. Adamo, R. Cammi, 
 J. W. Ochterski, R. L. Martin, K. Morokuma, O. Farkas, 
 J. B. Foresman, and D. J. Fox, Gaussian, Inc., Wallingford CT, 2016.
 
 ******************************************
 Gaussian 16:  ES64L-G16RevA.03 25-Dec-2016
                10-Dec-2023 
 ******************************************
 %NProcShared=4
 Will use up to    4 processors via shared memory.
 %Mem=4GB
 %Chk=H2O_H2O_1511.chk
 ------------------
 #p CCSD(T)/CEP-31G
 ------------------
 1/38=1,172=1/1;
 2/12=2,17=6,18=5,40=1/2;
 3/5=9,6=1,11=9,25=1,30=1/1,2,3;
 4//1;
 5/5=2,38=5/2;
 8/6=4,9=120000,10=1/1,4;
 9/5=7,14=2/13;
 6/7=2,8=2,9=2,10=2/1;
 99/5=1,9=1/99;
 Leave Link    1 at Sun Dec 10 06:47:16 2023, MaxMem=   536870912 cpu:               0.2 elap:               0.1
 (Enter /usr/site/hpc/x86_64/glibc-2.17/broadwell/gaussian/g16_a.03/pgi-16.5/g16/l101.exe)
 ------------
 H2O_H2O_1511
 ------------
 Symbolic Z-matrix:
 Charge =  0 Multiplicity = 1
 O                     0.       -0.00983   0. 
 H                    -0.79957  -0.58097   0. 
 H                     0.79957  -0.58097   0. 
 O                    -2.641    -1.88922   0. 
 H                    -3.61873  -1.79143   0. 
 H                    -2.41643  -2.84582   0. 
 
 ITRead=  0  0  0  0  0  0
 MicOpt= -1 -1 -1 -1 -1 -1
 NAtoms=      6 NQM=        6 NQMF=       0 NMMI=      0 NMMIF=      0
                NMic=       0 NMicF=      0.
                    Isotopes and Nuclear Properties:
 (Nuclear quadrupole moments (NQMom) in fm**2, nuclear magnetic moments (NMagM)
  in nuclear magnetons)

  Atom         1           2           3           4           5           6
 IAtWgt=          16           1           1          16           1           1
 AtmWgt=  15.9949146   1.0078250   1.0078250  15.9949146   1.0078250   1.0078250
 NucSpn=           0           1           1           0           1           1
 AtZEff=  -0.0000000  -0.0000000  -0.0000000  -0.0000000  -0.0000000  -0.0000000
 NQMom=    0.0000000   0.0000000   0.0000000   0.0000000   0.0000000   0.0000000
 NMagM=    0.0000000   2.7928460   2.7928460   0.0000000   2.7928460   2.7928460
 AtZNuc=   8.0000000   1.0000000   1.0000000   8.0000000   1.0000000   1.0000000
 Leave Link  101 at Sun Dec 10 06:47:17 2023, MaxMem=   536870912 cpu:               0.7 elap:               0.2
 (Enter /usr/site/hpc/x86_64/glibc-2.17/broadwell/gaussian/g16_a.03/pgi-16.5/g16/l202.exe)
                          Input orientation:                          
 ---------------------------------------------------------------------
 Center     Atomic      Atomic             Coordinates (Angstroms)
 Number     Number       Type             X           Y           Z
 ---------------------------------------------------------------------
      1          8           0        0.000000   -0.009833    0.000000
      2          1           0       -0.799571   -0.580965    0.000000
      3          1           0        0.799571   -0.580965    0.000000
      4          8           0       -2.641002   -1.889224    0.000000
      5          1           0       -3.618725   -1.791429    0.000000
      6          1           0       -2.416426   -2.845818    0.000000
 ---------------------------------------------------------------------
                    Distance matrix (angstroms):
                    1          2          3          4          5
     1  O    0.000000
     2  H    0.982601   0.000000
     3  H    0.982601   1.599142   0.000000
     4  O    3.241451   2.258851   3.680908   0.000000
     5  H    4.033516   3.068037   4.581109   0.982602   0.000000
     6  H    3.725846   2.782765   3.933471   0.982602   1.599143
                    6
     6  H    0.000000
 Stoichiometry    H4O2
 Framework group  CS[SG(H4O2)]
 Deg. of freedom     9
 Full point group                 CS      NOp   2
 Largest Abelian subgroup         CS      NOp   2
 Largest concise Abelian subgroup C1      NOp   1
                         Standard orientation:                         
 ---------------------------------------------------------------------
 Center     Atomic      Atomic             Coordinates (Angstroms)
 Number     Number       Type             X           Y           Z
 ---------------------------------------------------------------------
      1          8           0        0.059686    1.709418   -0.000000
      2          1           0        0.057941    0.726818   -0.000000
      3          1           0       -0.869240    2.029734   -0.000000
      4          8           0        0.059686   -1.532033    0.000000
      5          1           0        0.706248   -2.271940    0.000000
      6          1           0       -0.849917   -1.903690    0.000000
 ---------------------------------------------------------------------
 Rotational constants (GHZ):         245.5398885           5.1679321           5.0614036
 Leave Link  202 at Sun Dec 10 06:47:17 2023, MaxMem=   536870912 cpu:               0.0 elap:               0.0
 (Enter /usr/site/hpc/x86_64/glibc-2.17/broadwell/gaussian/g16_a.03/pgi-16.5/g16/l301.exe)
 Standard basis: CEP-31G (6D, 10F)
 Ernie: Thresh=  0.10000D-02 Tol=  0.10000D-05 Strict=F.
 There are    20 symmetry adapted cartesian basis functions of A'  symmetry.
 There are     4 symmetry adapted cartesian basis functions of A"  symmetry.
 There are    20 symmetry adapted basis functions of A'  symmetry.
 There are     4 symmetry adapted basis functions of A"  symmetry.
    24 basis functions,    48 primitive gaussians,    24 cartesian basis functions
     8 alpha electrons        8 beta electrons
       nuclear repulsion energy        23.9842872946 Hartrees.
 IExCor=    0 DFT=F Ex=HF Corr=None ExCW=0 ScaHFX=  1.000000
 ScaDFX=  1.000000  1.000000  1.000000  1.000000 ScalE2=  1.000000  1.000000
 IRadAn=      5 IRanWt=     -1 IRanGd=            0 ICorTp=0 IEmpDi=  4
 NAtoms=    6 NActive=    6 NUniq=    6 SFac= 1.00D+00 NAtFMM=   60 NAOKFM=F Big=F
 Integral buffers will be    131072 words long.
 Raffenetti 1 integral format.
 Two-electron integral symmetry is turned on.
 Leave Link  301 at Sun Dec 10 06:47:17 2023, MaxMem=   536870912 cpu:               0.2 elap:               0.0
 (Enter /usr/site/hpc/x86_64/glibc-2.17/broadwell/gaussian/g16_a.03/pgi-16.5/g16/l302.exe)
 NPDir=0 NMtPBC=     1 NCelOv=     1 NCel=       1 NClECP=     1 NCelD=      1
         NCelK=      1 NCelE2=     1 NClLst=     1 CellRange=     0.0.
 One-electron integrals computed using PRISM.
 One-electron integral symmetry used in STVInt
   2 Symmetry operations used in ECPInt.
 ECPInt:  NShTT=      78 NPrTT=     318 LenC2=      79 LenP2D=     286.
 LDataN:  DoStor=T MaxTD1= 2 Len=   12
 NBasis=    24 RedAO= T EigKep=  2.64D-02  NBF=    20     4
 NBsUse=    24 1.00D-06 EigRej= -1.00D+00 NBFU=    20     4
 Leave Link  302 at Sun Dec 10 06:47:17 2023, MaxMem=   536870912 cpu:               0.3 elap:               0.1
 (Enter /usr/site/hpc/x86_64/glibc-2.17/broadwell/gaussian/g16_a.03/pgi-16.5/g16/l303.exe)
 DipDrv:  MaxL=1.
 Leave Link  303 at Sun Dec 10 06:47:17 2023, MaxMem=   536870912 cpu:               0.1 elap:               0.0
 (Enter /usr/site/hpc/x86_64/glibc-2.17/broadwell/gaussian/g16_a.03/pgi-16.5/g16/l401.exe)
 ExpMin= 1.78D-01 ExpMax= 1.92D+01 ExpMxC= 1.92D+01 IAcc=3 IRadAn=         5 AccDes= 0.00D+00
 Harris functional with IExCor=  205 and IRadAn=       5 diagonalized for initial guess.
 HarFok:  IExCor=  205 AccDes= 0.00D+00 IRadAn=         5 IDoV= 1 UseB2=F ITyADJ=14
 ICtDFT=  3500011 ScaDFX=  1.000000  1.000000  1.000000  1.000000
 FoFCou: FMM=F IPFlag=           0 FMFlag=      100000 FMFlg1=           0
         NFxFlg=           0 DoJE=T BraDBF=F KetDBF=T FulRan=T
         wScrn=  0.000000 ICntrl=       500 IOpCl=  0 I1Cent=   200000004 NGrid=           0
         NMat0=    1 NMatS0=      1 NMatT0=    0 NMatD0=    1 NMtDS0=    0 NMtDT0=    0
 Petite list used in FoFCou.
 Harris En= -34.4806601376967    
 JPrj=0 DoOrth=F DoCkMO=F.
 Initial guess orbital symmetries:
       Occupied  (A') (A') (A') (A') (A') (A') (A") (A")
       Virtual   (A') (A') (A') (A') (A") (A') (A") (A') (A') (A')
                 (A') (A') (A') (A') (A') (A')
 The electronic state of the initial guess is 1-A'.
 Leave Link  401 at Sun Dec 10 06:47:17 2023, MaxMem=   536870912 cpu:               0.4 elap:               0.1
 (Enter /usr/site/hpc/x86_64/glibc-2.17/broadwell/gaussian/g16_a.03/pgi-16.5/g16/l502.exe)
 Keep R1 ints in memory in symmetry-blocked form, NReq=852536.
 FoFCou: FMM=F IPFlag=           0 FMFlag=           0 FMFlg1=           0
         NFxFlg=           0 DoJE=F BraDBF=F KetDBF=F FulRan=T
         wScrn=  0.000000 ICntrl=       600 IOpCl=  0 I1Cent=           0 NGrid=           0
         NMat0=    1 NMatS0=    300 NMatT0=    0 NMatD0=    1 NMtDS0=    0 NMtDT0=    0
 Petite list used in FoFCou.
 Closed shell SCF:
 Using DIIS extrapolation, IDIIS=  1040.
 NGot=   536870912 LenX=   536840576 LenY=   536839559
 Requested convergence on RMS density matrix=1.00D-08 within 128 cycles.
 Requested convergence on MAX density matrix=1.00D-06.
 Requested convergence on             energy=1.00D-06.
 No special actions if energy rises.

 Cycle   1  Pass 1  IDiag  1:
 E= -33.5725759384869    
 DIIS: error= 6.32D-02 at cycle   1 NSaved=   1.
 NSaved= 1 IEnMin= 1 EnMin= -33.5725759384869     IErMin= 1 ErrMin= 6.32D-02
 ErrMax= 6.32D-02  0.00D+00 EMaxC= 1.00D-01 BMatC= 9.62D-02 BMatP= 9.62D-02
 IDIUse=3 WtCom= 3.68D-01 WtEn= 6.32D-01
 Coeff-Com:  0.100D+01
 Coeff-En:   0.100D+01
 Coeff:      0.100D+01
 Gap=     0.583 Goal=   None    Shift=    0.000
 GapD=    0.583 DampG=2.000 DampE=0.500 DampFc=1.0000 IDamp=-1.
 RMSDP=1.45D-02 MaxDP=1.20D-01              OVMax= 9.45D-02

 Cycle   2  Pass 1  IDiag  1:
 E= -33.6318274195834     Delta-E=       -0.059251481096 Rises=F Damp=F
 DIIS: error= 3.52D-02 at cycle   2 NSaved=   2.
 NSaved= 2 IEnMin= 2 EnMin= -33.6318274195834     IErMin= 2 ErrMin= 3.52D-02
 ErrMax= 3.52D-02  0.00D+00 EMaxC= 1.00D-01 BMatC= 3.45D-02 BMatP= 9.62D-02
 IDIUse=3 WtCom= 6.48D-01 WtEn= 3.52D-01
 Coeff-Com:  0.372D+00 0.628D+00
 Coeff-En:   0.932D-01 0.907D+00
 Coeff:      0.274D+00 0.726D+00
 Gap=     0.654 Goal=   None    Shift=    0.000
 RMSDP=6.08D-03 MaxDP=5.29D-02 DE=-5.93D-02 OVMax= 3.44D-02

 Cycle   3  Pass 1  IDiag  1:
 E= -33.6593444127121     Delta-E=       -0.027516993129 Rises=F Damp=F
 DIIS: error= 6.58D-03 at cycle   3 NSaved=   3.
 NSaved= 3 IEnMin= 3 EnMin= -33.6593444127121     IErMin= 3 ErrMin= 6.58D-03
 ErrMax= 6.58D-03  0.00D+00 EMaxC= 1.00D-01 BMatC= 8.27D-04 BMatP= 3.45D-02
 IDIUse=3 WtCom= 9.34D-01 WtEn= 6.58D-02
 Coeff-Com: -0.111D+00-0.145D-01 0.113D+01
 Coeff-En:   0.000D+00 0.000D+00 0.100D+01
 Coeff:     -0.104D+00-0.135D-01 0.112D+01
 Gap=     0.647 Goal=   None    Shift=    0.000
 RMSDP=1.04D-03 MaxDP=8.93D-03 DE=-2.75D-02 OVMax= 7.49D-03

 Cycle   4  Pass 1  IDiag  1:
 E= -33.6601560077723     Delta-E=       -0.000811595060 Rises=F Damp=F
 DIIS: error= 6.39D-04 at cycle   4 NSaved=   4.
 NSaved= 4 IEnMin= 4 EnMin= -33.6601560077723     IErMin= 4 ErrMin= 6.39D-04
 ErrMax= 6.39D-04  0.00D+00 EMaxC= 1.00D-01 BMatC= 4.93D-06 BMatP= 8.27D-04
 IDIUse=3 WtCom= 9.94D-01 WtEn= 6.39D-03
 Coeff-Com:  0.393D-01-0.173D-01-0.489D+00 0.147D+01
 Coeff-En:   0.000D+00 0.000D+00 0.000D+00 0.100D+01
 Coeff:      0.390D-01-0.172D-01-0.486D+00 0.146D+01
 Gap=     0.649 Goal=   None    Shift=    0.000
 RMSDP=2.25D-04 MaxDP=1.77D-03 DE=-8.12D-04 OVMax= 1.10D-03

 Cycle   5  Pass 1  IDiag  1:
 E= -33.6601673197914     Delta-E=       -0.000011312019 Rises=F Damp=F
 DIIS: error= 5.72D-05 at cycle   5 NSaved=   5.
 NSaved= 5 IEnMin= 5 EnMin= -33.6601673197914     IErMin= 5 ErrMin= 5.72D-05
 ErrMax= 5.72D-05  0.00D+00 EMaxC= 1.00D-01 BMatC= 4.35D-08 BMatP= 4.93D-06
 IDIUse=1 WtCom= 1.00D+00 WtEn= 0.00D+00
 Coeff-Com: -0.685D-02 0.323D-02 0.862D-01-0.315D+00 0.123D+01
 Coeff:     -0.685D-02 0.323D-02 0.862D-01-0.315D+00 0.123D+01
 Gap=     0.649 Goal=   None    Shift=    0.000
 RMSDP=1.91D-05 MaxDP=1.62D-04 DE=-1.13D-05 OVMax= 1.18D-04

 Cycle   6  Pass 1  IDiag  1:
 E= -33.6601674241278     Delta-E=       -0.000000104336 Rises=F Damp=F
 DIIS: error= 7.95D-06 at cycle   6 NSaved=   6.
 NSaved= 6 IEnMin= 6 EnMin= -33.6601674241278     IErMin= 6 ErrMin= 7.95D-06
 ErrMax= 7.95D-06  0.00D+00 EMaxC= 1.00D-01 BMatC= 2.84D-09 BMatP= 4.35D-08
 IDIUse=1 WtCom= 1.00D+00 WtEn= 0.00D+00
 Coeff-Com: -0.163D-02 0.777D-03 0.204D-01-0.665D-01 0.114D+00 0.933D+00
 Coeff:     -0.163D-02 0.777D-03 0.204D-01-0.665D-01 0.114D+00 0.933D+00
 Gap=     0.649 Goal=   None    Shift=    0.000
 RMSDP=3.10D-06 MaxDP=2.93D-05 DE=-1.04D-07 OVMax= 2.80D-05

 Cycle   7  Pass 1  IDiag  1:
 E= -33.6601674288508     Delta-E=       -0.000000004723 Rises=F Damp=F
 DIIS: error= 4.37D-06 at cycle   7 NSaved=   7.
 NSaved= 7 IEnMin= 7 EnMin= -33.6601674288508     IErMin= 7 ErrMin= 4.37D-06
 ErrMax= 4.37D-06  0.00D+00 EMaxC= 1.00D-01 BMatC= 5.03D-10 BMatP= 2.84D-09
 IDIUse=1 WtCom= 1.00D+00 WtEn= 0.00D+00
 Coeff-Com:  0.898D-03-0.390D-03-0.112D-01 0.417D-01-0.184D+00 0.120D+00
 Coeff-Com:  0.103D+01
 Coeff:      0.898D-03-0.390D-03-0.112D-01 0.417D-01-0.184D+00 0.120D+00
 Coeff:      0.103D+01
 Gap=     0.649 Goal=   None    Shift=    0.000
 RMSDP=1.57D-06 MaxDP=9.77D-06 DE=-4.72D-09 OVMax= 1.55D-05

 Cycle   8  Pass 1  IDiag  1:
 E= -33.6601674298148     Delta-E=       -0.000000000964 Rises=F Damp=F
 DIIS: error= 9.13D-07 at cycle   8 NSaved=   8.
 NSaved= 8 IEnMin= 8 EnMin= -33.6601674298148     IErMin= 8 ErrMin= 9.13D-07
 ErrMax= 9.13D-07  0.00D+00 EMaxC= 1.00D-01 BMatC= 2.09D-11 BMatP= 5.03D-10
 IDIUse=1 WtCom= 1.00D+00 WtEn= 0.00D+00
 Coeff-Com: -0.423D-05-0.232D-04-0.255D-04-0.522D-03 0.191D-01-0.943D-01
 Coeff-Com: -0.138D+00 0.121D+01
 Coeff:     -0.423D-05-0.232D-04-0.255D-04-0.522D-03 0.191D-01-0.943D-01
 Coeff:     -0.138D+00 0.121D+01
 Gap=     0.649 Goal=   None    Shift=    0.000
 RMSDP=4.13D-07 MaxDP=3.03D-06 DE=-9.64D-10 OVMax= 3.50D-06

 Cycle   9  Pass 1  IDiag  1:
 E= -33.6601674298655     Delta-E=       -0.000000000051 Rises=F Damp=F
 DIIS: error= 1.70D-07 at cycle   9 NSaved=   9.
 NSaved= 9 IEnMin= 9 EnMin= -33.6601674298655     IErMin= 9 ErrMin= 1.70D-07
 ErrMax= 1.70D-07  0.00D+00 EMaxC= 1.00D-01 BMatC= 6.37D-13 BMatP= 2.09D-11
 IDIUse=1 WtCom= 1.00D+00 WtEn= 0.00D+00
 Coeff-Com:  0.570D-05 0.645D-05-0.338D-04 0.212D-03-0.583D-02 0.332D-01
 Coeff-Com:  0.393D-01-0.480D+00 0.141D+01
 Coeff:      0.570D-05 0.645D-05-0.338D-04 0.212D-03-0.583D-02 0.332D-01
 Coeff:      0.393D-01-0.480D+00 0.141D+01
 Gap=     0.649 Goal=   None    Shift=    0.000
 RMSDP=1.11D-07 MaxDP=4.99D-07 DE=-5.07D-11 OVMax= 8.03D-07

 Cycle  10  Pass 1  IDiag  1:
 E= -33.6601674298674     Delta-E=       -0.000000000002 Rises=F Damp=F
 DIIS: error= 1.73D-08 at cycle  10 NSaved=  10.
 NSaved=10 IEnMin=10 EnMin= -33.6601674298674     IErMin=10 ErrMin= 1.73D-08
 ErrMax= 1.73D-08  0.00D+00 EMaxC= 1.00D-01 BMatC= 9.62D-15 BMatP= 6.37D-13
 IDIUse=1 WtCom= 1.00D+00 WtEn= 0.00D+00
 Coeff-Com:  0.418D-06-0.212D-05-0.132D-04 0.399D-04 0.862D-03-0.683D-02
 Coeff-Com: -0.685D-02 0.101D+00-0.399D+00 0.131D+01
 Coeff:      0.418D-06-0.212D-05-0.132D-04 0.399D-04 0.862D-03-0.683D-02
 Coeff:     -0.685D-02 0.101D+00-0.399D+00 0.131D+01
 Gap=     0.649 Goal=   None    Shift=    0.000
 RMSDP=1.67D-08 MaxDP=7.97D-08 DE=-1.91D-12 OVMax= 1.13D-07

 Cycle  11  Pass 1  IDiag  1:
 E= -33.6601674298674     Delta-E=       -0.000000000000 Rises=F Damp=F
 DIIS: error= 1.31D-09 at cycle  11 NSaved=  11.
 NSaved=11 IEnMin=11 EnMin= -33.6601674298674     IErMin=11 ErrMin= 1.31D-09
 ErrMax= 1.31D-09  0.00D+00 EMaxC= 1.00D-01 BMatC= 6.09D-17 BMatP= 9.62D-15
 IDIUse=1 WtCom= 1.00D+00 WtEn= 0.00D+00
 Coeff-Com: -0.106D-06 0.469D-06 0.303D-05-0.980D-05-0.193D-03 0.157D-02
 Coeff-Com:  0.151D-02-0.233D-01 0.934D-01-0.347D+00 0.127D+01
 Coeff:     -0.106D-06 0.469D-06 0.303D-05-0.980D-05-0.193D-03 0.157D-02
 Coeff:      0.151D-02-0.233D-01 0.934D-01-0.347D+00 0.127D+01
 Gap=     0.649 Goal=   None    Shift=    0.000
 RMSDP=1.19D-09 MaxDP=7.76D-09 DE=-2.13D-14 OVMax= 8.57D-09

 SCF Done:  E(RHF) =  -33.6601674299     A.U. after   11 cycles
            NFock= 11  Conv=0.12D-08     -V/T= 2.2561
 KE= 2.679684820342D+01 PE=-1.296310319853D+02 EE= 4.518972905739D+01
 Leave Link  502 at Sun Dec 10 06:47:17 2023, MaxMem=   536870912 cpu:               0.4 elap:               0.1
 (Enter /usr/site/hpc/x86_64/glibc-2.17/broadwell/gaussian/g16_a.03/pgi-16.5/g16/l801.exe)
 Windowed orbitals will be sorted by symmetry type.
 Range of M.O.s used for correlation:     1    24
 NBasis=    24 NAE=     8 NBE=     8 NFC=     0 NFV=     0
 NROrb=     24 NOA=     8 NOB=     8 NVA=    16 NVB=    16
 Leave Link  801 at Sun Dec 10 06:47:17 2023, MaxMem=   536870912 cpu:               0.1 elap:               0.0
 (Enter /usr/site/hpc/x86_64/glibc-2.17/broadwell/gaussian/g16_a.03/pgi-16.5/g16/l804.exe)
 Closed-shell transformation, MDV=   536870912 ITran=4 ISComp=2.
 Unit  1 TFree=       1025975 TCopy=        210600.
 Semi-Direct transformation.
 ModeAB=           2 MOrb=             8 LenV=     536741745
 LASXX=        22470 LTotXX=       22470 LenRXX=       22470
 LTotAB=       26208 MaxLAS=       57600 LenRXY=       57600
 NonZer=       62208 LenScr=      524288 LnRSAI=           0
 LnScr1=           0 LExtra=           0 Total=       604358
 MaxDsk=          -1 SrtSym=           F ITran=            4
 DoSDTr:  NPSUse=  4
 JobTyp=0 Pass  1:  I=   1 to   8.
 (rs|ai) integrals will be sorted in core.
 Complete sort for first half transformation.
 First half transformation complete.
 Complete sort for second half transformation.
 Second half transformation complete.
 Spin components of T(2) and E(2):
     alpha-alpha T2 =       0.9096759646D-02 E2=     -0.2612196744D-01
     alpha-beta  T2 =       0.5955220291D-01 E2=     -0.1766325948D+00
     beta-beta   T2 =       0.9096759646D-02 E2=     -0.2612196744D-01
 ANorm=    0.1038145328D+01
 E2 =    -0.2288765297D+00 EUMP2 =    -0.33889043959531D+02
 Leave Link  804 at Sun Dec 10 06:47:17 2023, MaxMem=   536870912 cpu:               0.3 elap:               0.1
 (Enter /usr/site/hpc/x86_64/glibc-2.17/broadwell/gaussian/g16_a.03/pgi-16.5/g16/l913.exe)
 CIDS:  MDV=   536870912.
 IFCWin=0 IBDFC=1 NFBD=     0     0 NFCmp=     0     0 NFFFC=     0     0
 Using DD3R+UMP44R for 1st iteration.
 Using DD4RQ for 2nd and later iterations.
 Keep R2 and R3 ints in memory in symmetry-blocked form, NReq=865144.
 FoFCou: FMM=F IPFlag=           0 FMFlag=           0 FMFlg1=           0
         NFxFlg=           0 DoJE=F BraDBF=F KetDBF=F FulRan=T
         wScrn=  0.000000 ICntrl=       600 IOpCl=  0 I1Cent=           0 NGrid=           0
         NMat0=    1 NMatS0=    300 NMatT0=    0 NMatD0=    1 NMtDS0=    0 NMtDT0=    0
 Petite list used in FoFCou.
 CIDS: In Core Option IDoMem=           1.
 CCSD(T)
 =======
 Iterations=  50 Convergence= 0.100D-06
 Produce multiple copies of IABC intergrals
 Iteration Nr.   1
 **********************
 DD1Dir will call FoFMem   1 times, MxPair=        72
 NAB=    36 NAA=     0 NBB=     0.
 MP4(R+Q)= -0.71850981D-03
 Maximum subspace dimension=  5
 A-vector RMS=  5.8778583D-03 Max=  1.2714644D-02 conv= 1.00D-05.
 RLE energy=       -0.2346653528
 E3=       -0.52028479D-02        EUMP3=      -0.33894246807D+02
 E4(DQ)=   -0.58203377D-02        UMP4(DQ)=   -0.33900067145D+02
 E4(SDQ)=  -0.79179867D-02        UMP4(SDQ)=  -0.33902164794D+02
 VARIATIONAL ENERGIES WITH THE FIRST-ORDER WAVEFUNCTION:
 DE(Corr)= -0.23452289     E(Corr)=     -33.894690321    
 NORM(A)=   0.10414951D+01
 Iteration Nr.   2
 **********************
 DD1Dir will call FoFMem   1 times, MxPair=        72
 NAB=    36 NAA=     0 NBB=     0.
 A-vector RMS=  9.6853081D-04 Max=  2.6934042D-03 conv= 1.00D-05.
 RLE energy=       -0.2424107377
 DE(Corr)= -0.24050313     E(CORR)=     -33.900670562     Delta=-5.98D-03
 NORM(A)=   0.10452584D+01
 Iteration Nr.   3
 **********************
 DD1Dir will call FoFMem   1 times, MxPair=        72
 NAB=    36 NAA=     0 NBB=     0.
 A-vector RMS=  3.8659671D-04 Max=  8.2900724D-04 conv= 1.00D-05.
 RLE energy=       -0.2429552346
 DE(Corr)= -0.24250735     E(CORR)=     -33.902674782     Delta=-2.00D-03
 NORM(A)=   0.10458102D+01
 Iteration Nr.   4
 **********************
 DD1Dir will call FoFMem   1 times, MxPair=        72
 NAB=    36 NAA=     0 NBB=     0.
 A-vector RMS=  8.9034562D-05 Max=  2.3188998D-04 conv= 1.00D-05.
 RLE energy=       -0.2430031171
 DE(Corr)= -0.24296833     E(CORR)=     -33.903135764     Delta=-4.61D-04
 NORM(A)=   0.10458778D+01
 Iteration Nr.   5
 **********************
 DD1Dir will call FoFMem   1 times, MxPair=        72
 NAB=    36 NAA=     0 NBB=     0.
 A-vector RMS=  3.9506272D-05 Max=  1.2829844D-04 conv= 1.00D-05.
 RLE energy=       -0.2430026863
 DE(Corr)= -0.24299979     E(CORR)=     -33.903167215     Delta=-3.15D-05
 NORM(A)=   0.10458861D+01
 Iteration Nr.   6
 **********************
 DD1Dir will call FoFMem   1 times, MxPair=        72
 NAB=    36 NAA=     0 NBB=     0.
 A-vector RMS=  1.4406727D-05 Max=  5.0647001D-05 conv= 1.00D-05.
 RLE energy=       -0.2429996593
 DE(Corr)= -0.24300241     E(CORR)=     -33.903169841     Delta=-2.63D-06
 NORM(A)=   0.10458879D+01
 Iteration Nr.   7
 **********************
 DD1Dir will call FoFMem   1 times, MxPair=        72
 NAB=    36 NAA=     0 NBB=     0.
 A-vector RMS=  5.3479567D-06 Max=  2.1392012D-05 conv= 1.00D-05.
 RLE energy=       -0.2430014233
 DE(Corr)= -0.24300205     E(CORR)=     -33.903169479     Delta= 3.62D-07
 NORM(A)=   0.10458895D+01
 Iteration Nr.   8
 **********************
 DD1Dir will call FoFMem   1 times, MxPair=        72
 NAB=    36 NAA=     0 NBB=     0.
 A-vector RMS=  1.7968445D-06 Max=  7.7739461D-06 conv= 1.00D-05.
 RLE energy=       -0.2430015816
 DE(Corr)= -0.24300171     E(CORR)=     -33.903169144     Delta= 3.35D-07
 NORM(A)=   0.10458900D+01
 Iteration Nr.   9
 **********************
 DD1Dir will call FoFMem   1 times, MxPair=        72
 NAB=    36 NAA=     0 NBB=     0.
 A-vector RMS=  5.2541761D-07 Max=  2.1879191D-06 conv= 1.00D-05.
 RLE energy=       -0.2430017921
 DE(Corr)= -0.24300184     E(CORR)=     -33.903169266     Delta=-1.22D-07
 NORM(A)=   0.10458903D+01
 Iteration Nr.  10
 **********************
 DD1Dir will call FoFMem   1 times, MxPair=        72
 NAB=    36 NAA=     0 NBB=     0.
 A-vector RMS=  1.4468739D-07 Max=  6.0509216D-07 conv= 1.00D-05.
 RLE energy=       -0.2430019548
 DE(Corr)= -0.24300192     E(CORR)=     -33.903169355     Delta=-8.84D-08
 NORM(A)=   0.10458904D+01
 CI/CC converged in   10 iterations to DelEn=-8.84D-08 Conv= 1.00D-07 ErrA1= 1.45D-07 Conv= 1.00D-05
 Wavefunction amplitudes converged. E(Corr)=     -33.903169355    
 Largest amplitude= 5.07D-02
 IPart=  3 IA=    2   12.50% done.
 IPart=  2 IA=    3   24.17% done.
 IPart=  4 IA=    4   35.00% done.
 IPart=  4 IA=    5   45.00% done.
 IPart=  2 IA=    6   54.17% done.
 IPart=  1 IA=    7   62.50% done.
 IPart=  3 IA=    8   70.00% done.
 IPart=  4 IA=   10   82.50% done.
 IPart=  1 IA=   12   91.67% done.
 Time for triples=        0.28 seconds.
 T4(CCSD)= -0.32184786D-02
 T5(CCSD)=  0.53990240D-03
 CCSD(T)= -0.33905847931D+02
 Discarding MO integrals.
 Leave Link  913 at Sun Dec 10 06:47:17 2023, MaxMem=   536870912 cpu:               1.0 elap:               0.3
 (Enter /usr/site/hpc/x86_64/glibc-2.17/broadwell/gaussian/g16_a.03/pgi-16.5/g16/l601.exe)
 Copying SCF densities to generalized density rwf, IOpCl= 0 IROHF=0.

 **********************************************************************

            Population analysis using the SCF density.

 **********************************************************************

 Orbital symmetries:
       Occupied  (A') (A') (A') (A') (A') (A") (A') (A")
       Virtual   (A') (A') (A') (A') (A") (A') (A") (A') (A') (A')
                 (A') (A') (A') (A') (A') (A')
 The electronic state is 1-A'.
 Alpha  occ. eigenvalues --   -1.37970  -1.32471  -0.73633  -0.68291  -0.58382
 Alpha  occ. eigenvalues --   -0.52651  -0.52224  -0.47114
 Alpha virt. eigenvalues --    0.17801   0.25037   0.28522   0.38813   0.77151
 Alpha virt. eigenvalues --    0.80700   0.84217   0.85699   0.91308   0.98084
 Alpha virt. eigenvalues --    1.15099   1.19565   1.20979   1.34646   2.49779
 Alpha virt. eigenvalues --    3.05600
          Condensed to atoms (all electrons):
               1          2          3          4          5          6
     1  O    6.242431   0.276193   0.259768  -0.002390   0.000039   0.000105
     2  H    0.276193   0.330538  -0.023877  -0.004461   0.000371   0.000239
     3  H    0.259768  -0.023877   0.410190   0.000368  -0.000001  -0.000017
     4  O   -0.002390  -0.004461   0.000368   6.247943   0.272842   0.264439
     5  H    0.000039   0.000371  -0.000001   0.272842   0.351023  -0.022851
     6  H    0.000105   0.000239  -0.000017   0.264439  -0.022851   0.376342
 Mulliken charges:
               1
     1  O   -0.776145
     2  H    0.420997
     3  H    0.353570
     4  O   -0.778741
     5  H    0.398577
     6  H    0.381743
 Sum of Mulliken charges =   0.00000
 Mulliken charges with hydrogens summed into heavy atoms:
               1
     1  O   -0.001579
     4  O    0.001579
 Electronic spatial extent (au):  <R**2>=            192.4618
 Charge=              0.0000 electrons
 Dipole moment (field-independent basis, Debye):
    X=             -2.6591    Y=             -4.4816    Z=              0.0000  Tot=              5.2111
 Quadrupole moment (field-independent basis, Debye-Ang):
   XX=             -9.6631   YY=             -8.1015   ZZ=            -15.0063
   XY=             -4.2771   XZ=              0.0000   YZ=             -0.0000
 Traceless Quadrupole moment (field-independent basis, Debye-Ang):
   XX=              1.2606   YY=              2.8221   ZZ=             -4.0827
   XY=             -4.2771   XZ=              0.0000   YZ=             -0.0000
 Octapole moment (field-independent basis, Debye-Ang**2):
  XXX=             -2.7331  YYY=            -32.4548  ZZZ=              0.0000  XYY=             -8.7909
  XXY=             -3.6220  XXZ=              0.0000  XZZ=             -0.4960  YZZ=             -0.9155
  YYZ=              0.0000  XYZ=              0.0000
 Hexadecapole moment (field-independent basis, Debye-Ang**3):
 XXXX=            -12.1759 YYYY=           -178.2260 ZZZZ=            -12.2551 XXXY=             -0.6423
 XXXZ=              0.0000 YYYX=            -23.2305 YYYZ=              0.0000 ZZZX=             -0.0000
 ZZZY=              0.0000 XXYY=            -25.2431 XXZZ=             -4.5667 YYZZ=            -44.4992
 XXYZ=              0.0000 YYXZ=              0.0000 ZZXY=              0.3837
 N-N= 2.398428729458D+01 E-N=-1.296310319866D+02  KE= 2.679684820342D+01
 Symmetry A'   KE= 1.793389287337D+01
 Symmetry A"   KE= 8.862955330058D+00
 Leave Link  601 at Sun Dec 10 06:47:17 2023, MaxMem=   536870912 cpu:               0.2 elap:               0.0
 (Enter /usr/site/hpc/x86_64/glibc-2.17/broadwell/gaussian/g16_a.03/pgi-16.5/g16/l9999.exe)
 1\1\GINC-N044\SP\RCCSD(T)-FC\CEP-31G\H4O2\ROOT\10-Dec-2023\0\\#p CCSD(
 T)/CEP-31G\\H2O_H2O_1511\\0,1\O,0,0.,-0.009833,0.\H,0,-0.799571,-0.580
 965,0.\H,0,0.799571,-0.580965,0.\O,0,-2.641002,-1.889224,0.\H,0,-3.618
 725,-1.791429,0.\H,0,-2.416426,-2.845818,0.\\Version=ES64L-G16RevA.03\
 State=1-A'\HF=-33.6601674\MP2=-33.889044\MP3=-33.8942468\MP4D=-33.8993
 486\MP4DQ=-33.9000671\MP4SDQ=-33.9021648\CCSD=-33.9031694\CCSD(T)=-33.
 9058479\RMSD=1.193e-09\PG=CS [SG(H4O2)]\\@


 IT IS THE GODS' CUSTOM TO BRING LOW ALL THINGS OF SURPASSING GREATNESS.
     -- HERODOTUS
 IT IS THE LOFTY PINE THAT BY THE STORM IS OFTENER TOSSED;
 TOWERS FALL WITH HEAVIER CRASH WHICH HIGHER SOAR.
     -- HORACE
 THE BIGGER THEY COME, THE HARDER THEY FALL.
     -- BOB FITZSIMONS HEAVYWEIGHT CHAMPION, 1897-1899
 Job cpu time:       0 days  0 hours  0 minutes  4.2 seconds.
 Elapsed time:       0 days  0 hours  0 minutes  1.2 seconds.
 File lengths (MBytes):  RWF=     72 Int=      0 D2E=      0 Chk=      8 Scr=      8
 Normal termination of Gaussian 16 at Sun Dec 10 06:47:18 2023.
