 Entering Gaussian System, Link 0=g16
 Input=H2O_H2O_519.com
 Output=H2O_H2O_519.log
 Initial command:
 /usr/site/hpc/x86_64/glibc-2.17/broadwell/gaussian/g16_a.03/pgi-16.5/g16/l1.exe "/gpfs/gpfs1/scratch/c7441090/OH Coord/Gau-1634118.inp" -scrdir="/gpfs/gpfs1/scratch/c7441090/OH Coord/"
 Entering Link 1 = /usr/site/hpc/x86_64/glibc-2.17/broadwell/gaussian/g16_a.03/pgi-16.5/g16/l1.exe PID=   1634119.
  
 Copyright (c) 1988,1990,1992,1993,1995,1998,2003,2009,2016,
            Gaussian, Inc.  All Rights Reserved.
  
 This is part of the Gaussian(R) 16 program.  It is based on
 the Gaussian(R) 09 system (copyright 2009, Gaussian, Inc.),
 the Gaussian(R) 03 system (copyright 2003, Gaussian, Inc.),
 the Gaussian(R) 98 system (copyright 1998, Gaussian, Inc.),
 the Gaussian(R) 94 system (copyright 1995, Gaussian, Inc.),
 the Gaussian 92(TM) system (copyright 1992, Gaussian, Inc.),
 the Gaussian 90(TM) system (copyright 1990, Gaussian, Inc.),
 the Gaussian 88(TM) system (copyright 1988, Gaussian, Inc.),
 the Gaussian 86(TM) system (copyright 1986, Carnegie Mellon
 University), and the Gaussian 82(TM) system (copyright 1983,
 Carnegie Mellon University). Gaussian is a federally registered
 trademark of Gaussian, Inc.
  
 This software contains proprietary and confidential information,
 including trade secrets, belonging to Gaussian, Inc.
  
 This software is provided under written license and may be
 used, copied, transmitted, or stored only in accord with that
 written license.
  
 The following legend is applicable only to US Government
 contracts under FAR:
  
                    RESTRICTED RIGHTS LEGEND
  
 Use, reproduction and disclosure by the US Government is
 subject to restrictions as set forth in subparagraphs (a)
 and (c) of the Commercial Computer Software - Restricted
 Rights clause in FAR 52.227-19.
  
 Gaussian, Inc.
 340 Quinnipiac St., Bldg. 40, Wallingford CT 06492
  
  
 ---------------------------------------------------------------
 Warning -- This program may not be used in any manner that
 competes with the business of Gaussian, Inc. or will provide
 assistance to any competitor of Gaussian, Inc.  The licensee
 of this program is prohibited from giving any competitor of
 Gaussian, Inc. access to this program.  By using this program,
 the user acknowledges that Gaussian, Inc. is engaged in the
 business of creating and licensing software in the field of
 computational chemistry and represents and warrants to the
 licensee that it is not a competitor of Gaussian, Inc. and that
 it will not use this program in any manner prohibited above.
 ---------------------------------------------------------------
  

 Cite this work as:
 Gaussian 16, Revision A.03,
 M. J. Frisch, G. W. Trucks, H. B. Schlegel, G. E. Scuseria, 
 M. A. Robb, J. R. Cheeseman, G. Scalmani, V. Barone, 
 G. A. Petersson, H. Nakatsuji, X. Li, M. Caricato, A. V. Marenich, 
 J. Bloino, B. G. Janesko, R. Gomperts, B. Mennucci, H. P. Hratchian, 
 J. V. Ortiz, A. F. Izmaylov, J. L. Sonnenberg, D. Williams-Young, 
 F. Ding, F. Lipparini, F. Egidi, J. Goings, B. Peng, A. Petrone, 
 T. Henderson, D. Ranasinghe, V. G. Zakrzewski, J. Gao, N. Rega, 
 G. Zheng, W. Liang, M. Hada, M. Ehara, K. Toyota, R. Fukuda, 
 J. Hasegawa, M. Ishida, T. Nakajima, Y. Honda, O. Kitao, H. Nakai, 
 T. Vreven, K. Throssell, J. A. Montgomery, Jr., J. E. Peralta, 
 F. Ogliaro, M. J. Bearpark, J. J. Heyd, E. N. Brothers, K. N. Kudin, 
 V. N. Staroverov, T. A. Keith, R. Kobayashi, J. Normand, 
 K. Raghavachari, A. P. Rendell, J. C. Burant, S. S. Iyengar, 
 J. Tomasi, M. Cossi, J. M. Millam, M. Klene, C. Adamo, R. Cammi, 
 J. W. Ochterski, R. L. Martin, K. Morokuma, O. Farkas, 
 J. B. Foresman, and D. J. Fox, Gaussian, Inc., Wallingford CT, 2016.
 
 ******************************************
 Gaussian 16:  ES64L-G16RevA.03 25-Dec-2016
                10-Dec-2023 
 ******************************************
 %NProcShared=4
 Will use up to    4 processors via shared memory.
 %Mem=4GB
 %Chk=H2O_H2O_519.chk
 ------------------
 #p CCSD(T)/CEP-31G
 ------------------
 1/38=1,172=1/1;
 2/12=2,17=6,18=5,40=1/2;
 3/5=9,6=1,11=9,25=1,30=1/1,2,3;
 4//1;
 5/5=2,38=5/2;
 8/6=4,9=120000,10=1/1,4;
 9/5=7,14=2/13;
 6/7=2,8=2,9=2,10=2/1;
 99/5=1,9=1/99;
 Leave Link    1 at Sun Dec 10 06:28:16 2023, MaxMem=   536870912 cpu:               0.2 elap:               0.1
 (Enter /usr/site/hpc/x86_64/glibc-2.17/broadwell/gaussian/g16_a.03/pgi-16.5/g16/l101.exe)
 -----------
 H2O_H2O_519
 -----------
 Symbolic Z-matrix:
 Charge =  0 Multiplicity = 1
 O                     0.       -0.00983   0. 
 H                    -0.79957  -0.58097   0. 
 H                     0.79957  -0.58097   0. 
 O                    -1.99467  -1.4213    0. 
 H                    -2.79251  -0.84775   0. 
 H                    -2.27848  -2.36202   0. 
 
 ITRead=  0  0  0  0  0  0
 MicOpt= -1 -1 -1 -1 -1 -1
 NAtoms=      6 NQM=        6 NQMF=       0 NMMI=      0 NMMIF=      0
                NMic=       0 NMicF=      0.
                    Isotopes and Nuclear Properties:
 (Nuclear quadrupole moments (NQMom) in fm**2, nuclear magnetic moments (NMagM)
  in nuclear magnetons)

  Atom         1           2           3           4           5           6
 IAtWgt=          16           1           1          16           1           1
 AtmWgt=  15.9949146   1.0078250   1.0078250  15.9949146   1.0078250   1.0078250
 NucSpn=           0           1           1           0           1           1
 AtZEff=  -0.0000000  -0.0000000  -0.0000000  -0.0000000  -0.0000000  -0.0000000
 NQMom=    0.0000000   0.0000000   0.0000000   0.0000000   0.0000000   0.0000000
 NMagM=    0.0000000   2.7928460   2.7928460   0.0000000   2.7928460   2.7928460
 AtZNuc=   8.0000000   1.0000000   1.0000000   8.0000000   1.0000000   1.0000000
 Leave Link  101 at Sun Dec 10 06:28:16 2023, MaxMem=   536870912 cpu:               0.3 elap:               0.1
 (Enter /usr/site/hpc/x86_64/glibc-2.17/broadwell/gaussian/g16_a.03/pgi-16.5/g16/l202.exe)
                          Input orientation:                          
 ---------------------------------------------------------------------
 Center     Atomic      Atomic             Coordinates (Angstroms)
 Number     Number       Type             X           Y           Z
 ---------------------------------------------------------------------
      1          8           0        0.000000   -0.009833    0.000000
      2          1           0       -0.799571   -0.580965    0.000000
      3          1           0        0.799571   -0.580965    0.000000
      4          8           0       -1.994674   -1.421301    0.000000
      5          1           0       -2.792510   -0.847747    0.000000
      6          1           0       -2.278483   -2.362023    0.000000
 ---------------------------------------------------------------------
                    Distance matrix (angstroms):
                    1          2          3          4          5
     1  O    0.000000
     2  H    0.982601   0.000000
     3  H    0.982601   1.599142   0.000000
     4  O    2.443556   1.460971   2.917871   0.000000
     5  H    2.915512   2.010716   3.601974   0.982602   0.000000
     6  H    3.274795   2.315027   3.556204   0.982601   1.599142
                    6
     6  H    0.000000
 Stoichiometry    H4O2
 Framework group  CS[SG(H4O2)]
 Deg. of freedom     9
 Full point group                 CS      NOp   2
 Largest Abelian subgroup         CS      NOp   2
 Largest concise Abelian subgroup C1      NOp   1
                         Standard orientation:                         
 ---------------------------------------------------------------------
 Center     Atomic      Atomic             Coordinates (Angstroms)
 Number     Number       Type             X           Y           Z
 ---------------------------------------------------------------------
      1          8           0        0.030368    1.309520    0.000000
      2          1           0        0.026008    0.326928    0.000000
      3          1           0       -0.897702    1.632307    0.000000
      4          8           0        0.030368   -1.134036   -0.000000
      5          1           0        0.959413   -1.454008   -0.000000
      6          1           0       -0.573607   -1.909097   -0.000000
 ---------------------------------------------------------------------
 Rotational constants (GHZ):         247.5018403           8.9297224           8.6187625
 Leave Link  202 at Sun Dec 10 06:28:16 2023, MaxMem=   536870912 cpu:               0.0 elap:               0.0
 (Enter /usr/site/hpc/x86_64/glibc-2.17/broadwell/gaussian/g16_a.03/pgi-16.5/g16/l301.exe)
 Standard basis: CEP-31G (6D, 10F)
 Ernie: Thresh=  0.10000D-02 Tol=  0.10000D-05 Strict=F.
 There are    20 symmetry adapted cartesian basis functions of A'  symmetry.
 There are     4 symmetry adapted cartesian basis functions of A"  symmetry.
 There are    20 symmetry adapted basis functions of A'  symmetry.
 There are     4 symmetry adapted basis functions of A"  symmetry.
    24 basis functions,    48 primitive gaussians,    24 cartesian basis functions
     8 alpha electrons        8 beta electrons
       nuclear repulsion energy        27.4905761481 Hartrees.
 IExCor=    0 DFT=F Ex=HF Corr=None ExCW=0 ScaHFX=  1.000000
 ScaDFX=  1.000000  1.000000  1.000000  1.000000 ScalE2=  1.000000  1.000000
 IRadAn=      5 IRanWt=     -1 IRanGd=            0 ICorTp=0 IEmpDi=  4
 NAtoms=    6 NActive=    6 NUniq=    6 SFac= 1.00D+00 NAtFMM=   60 NAOKFM=F Big=F
 Integral buffers will be    131072 words long.
 Raffenetti 1 integral format.
 Two-electron integral symmetry is turned on.
 Leave Link  301 at Sun Dec 10 06:28:16 2023, MaxMem=   536870912 cpu:               0.2 elap:               0.1
 (Enter /usr/site/hpc/x86_64/glibc-2.17/broadwell/gaussian/g16_a.03/pgi-16.5/g16/l302.exe)
 NPDir=0 NMtPBC=     1 NCelOv=     1 NCel=       1 NClECP=     1 NCelD=      1
         NCelK=      1 NCelE2=     1 NClLst=     1 CellRange=     0.0.
 One-electron integrals computed using PRISM.
 One-electron integral symmetry used in STVInt
   2 Symmetry operations used in ECPInt.
 ECPInt:  NShTT=      78 NPrTT=     318 LenC2=      79 LenP2D=     296.
 LDataN:  DoStor=T MaxTD1= 2 Len=   12
 NBasis=    24 RedAO= T EigKep=  7.87D-03  NBF=    20     4
 NBsUse=    24 1.00D-06 EigRej= -1.00D+00 NBFU=    20     4
 Leave Link  302 at Sun Dec 10 06:28:16 2023, MaxMem=   536870912 cpu:               0.3 elap:               0.1
 (Enter /usr/site/hpc/x86_64/glibc-2.17/broadwell/gaussian/g16_a.03/pgi-16.5/g16/l303.exe)
 DipDrv:  MaxL=1.
 Leave Link  303 at Sun Dec 10 06:28:16 2023, MaxMem=   536870912 cpu:               0.1 elap:               0.0
 (Enter /usr/site/hpc/x86_64/glibc-2.17/broadwell/gaussian/g16_a.03/pgi-16.5/g16/l401.exe)
 ExpMin= 1.78D-01 ExpMax= 1.92D+01 ExpMxC= 1.92D+01 IAcc=3 IRadAn=         5 AccDes= 0.00D+00
 Harris functional with IExCor=  205 and IRadAn=       5 diagonalized for initial guess.
 HarFok:  IExCor=  205 AccDes= 0.00D+00 IRadAn=         5 IDoV= 1 UseB2=F ITyADJ=14
 ICtDFT=  3500011 ScaDFX=  1.000000  1.000000  1.000000  1.000000
 FoFCou: FMM=F IPFlag=           0 FMFlag=      100000 FMFlg1=           0
         NFxFlg=           0 DoJE=T BraDBF=F KetDBF=T FulRan=T
         wScrn=  0.000000 ICntrl=       500 IOpCl=  0 I1Cent=   200000004 NGrid=           0
         NMat0=    1 NMatS0=      1 NMatT0=    0 NMatD0=    1 NMtDS0=    0 NMtDT0=    0
 Petite list used in FoFCou.
 Harris En= -34.4876528767475    
 JPrj=0 DoOrth=F DoCkMO=F.
 Initial guess orbital symmetries:
       Occupied  (A') (A') (A') (A') (A') (A') (A") (A")
       Virtual   (A') (A') (A') (A') (A") (A') (A') (A") (A') (A')
                 (A') (A') (A') (A') (A') (A')
 The electronic state of the initial guess is 1-A'.
 Leave Link  401 at Sun Dec 10 06:28:17 2023, MaxMem=   536870912 cpu:               0.4 elap:               0.1
 (Enter /usr/site/hpc/x86_64/glibc-2.17/broadwell/gaussian/g16_a.03/pgi-16.5/g16/l502.exe)
 Keep R1 ints in memory in symmetry-blocked form, NReq=852759.
 FoFCou: FMM=F IPFlag=           0 FMFlag=           0 FMFlg1=           0
         NFxFlg=           0 DoJE=F BraDBF=F KetDBF=F FulRan=T
         wScrn=  0.000000 ICntrl=       600 IOpCl=  0 I1Cent=           0 NGrid=           0
         NMat0=    1 NMatS0=    300 NMatT0=    0 NMatD0=    1 NMtDS0=    0 NMtDT0=    0
 Petite list used in FoFCou.
 Closed shell SCF:
 Using DIIS extrapolation, IDIIS=  1040.
 NGot=   536870912 LenX=   536840576 LenY=   536839559
 Requested convergence on RMS density matrix=1.00D-08 within 128 cycles.
 Requested convergence on MAX density matrix=1.00D-06.
 Requested convergence on             energy=1.00D-06.
 No special actions if energy rises.

 Cycle   1  Pass 1  IDiag  1:
 E= -33.5645350477636    
 DIIS: error= 5.14D-02 at cycle   1 NSaved=   1.
 NSaved= 1 IEnMin= 1 EnMin= -33.5645350477636     IErMin= 1 ErrMin= 5.14D-02
 ErrMax= 5.14D-02  0.00D+00 EMaxC= 1.00D-01 BMatC= 9.55D-02 BMatP= 9.55D-02
 IDIUse=3 WtCom= 4.86D-01 WtEn= 5.14D-01
 Coeff-Com:  0.100D+01
 Coeff-En:   0.100D+01
 Coeff:      0.100D+01
 Gap=     0.524 Goal=   None    Shift=    0.000
 GapD=    0.524 DampG=2.000 DampE=0.500 DampFc=1.0000 IDamp=-1.
 RMSDP=1.76D-02 MaxDP=1.34D-01              OVMax= 1.06D-01

 Cycle   2  Pass 1  IDiag  1:
 E= -33.6272579243473     Delta-E=       -0.062722876584 Rises=F Damp=F
 DIIS: error= 3.31D-02 at cycle   2 NSaved=   2.
 NSaved= 2 IEnMin= 2 EnMin= -33.6272579243473     IErMin= 2 ErrMin= 3.31D-02
 ErrMax= 3.31D-02  0.00D+00 EMaxC= 1.00D-01 BMatC= 3.21D-02 BMatP= 9.55D-02
 IDIUse=3 WtCom= 6.69D-01 WtEn= 3.31D-01
 Coeff-Com:  0.363D+00 0.637D+00
 Coeff-En:   0.394D-01 0.961D+00
 Coeff:      0.256D+00 0.744D+00
 Gap=     0.617 Goal=   None    Shift=    0.000
 RMSDP=6.44D-03 MaxDP=5.92D-02 DE=-6.27D-02 OVMax= 3.89D-02

 Cycle   3  Pass 1  IDiag  1:
 E= -33.6527452573205     Delta-E=       -0.025487332973 Rises=F Damp=F
 DIIS: error= 5.73D-03 at cycle   3 NSaved=   3.
 NSaved= 3 IEnMin= 3 EnMin= -33.6527452573205     IErMin= 3 ErrMin= 5.73D-03
 ErrMax= 5.73D-03  0.00D+00 EMaxC= 1.00D-01 BMatC= 9.41D-04 BMatP= 3.21D-02
 IDIUse=3 WtCom= 9.43D-01 WtEn= 5.73D-02
 Coeff-Com: -0.983D-01 0.127D-01 0.109D+01
 Coeff-En:   0.000D+00 0.000D+00 0.100D+01
 Coeff:     -0.927D-01 0.119D-01 0.108D+01
 Gap=     0.607 Goal=   None    Shift=    0.000
 RMSDP=1.41D-03 MaxDP=1.08D-02 DE=-2.55D-02 OVMax= 8.74D-03

 Cycle   4  Pass 1  IDiag  1:
 E= -33.6536542600071     Delta-E=       -0.000909002687 Rises=F Damp=F
 DIIS: error= 5.54D-04 at cycle   4 NSaved=   4.
 NSaved= 4 IEnMin= 4 EnMin= -33.6536542600071     IErMin= 4 ErrMin= 5.54D-04
 ErrMax= 5.54D-04  0.00D+00 EMaxC= 1.00D-01 BMatC= 7.53D-06 BMatP= 9.41D-04
 IDIUse=3 WtCom= 9.94D-01 WtEn= 5.54D-03
 Coeff-Com: -0.112D-01-0.214D-01 0.188D-01 0.101D+01
 Coeff-En:   0.000D+00 0.000D+00 0.000D+00 0.100D+01
 Coeff:     -0.111D-01-0.213D-01 0.187D-01 0.101D+01
 Gap=     0.610 Goal=   None    Shift=    0.000
 RMSDP=2.19D-04 MaxDP=1.71D-03 DE=-9.09D-04 OVMax= 1.11D-03

 Cycle   5  Pass 1  IDiag  1:
 E= -33.6536665027546     Delta-E=       -0.000012242748 Rises=F Damp=F
 DIIS: error= 1.72D-04 at cycle   5 NSaved=   5.
 NSaved= 5 IEnMin= 5 EnMin= -33.6536665027546     IErMin= 5 ErrMin= 1.72D-04
 ErrMax= 1.72D-04  0.00D+00 EMaxC= 1.00D-01 BMatC= 1.31D-06 BMatP= 7.53D-06
 IDIUse=3 WtCom= 9.98D-01 WtEn= 1.72D-03
 Coeff-Com:  0.129D-01-0.591D-02-0.160D+00 0.237D+00 0.916D+00
 Coeff-En:   0.000D+00 0.000D+00 0.000D+00 0.000D+00 0.100D+01
 Coeff:      0.129D-01-0.590D-02-0.160D+00 0.237D+00 0.916D+00
 Gap=     0.609 Goal=   None    Shift=    0.000
 RMSDP=8.32D-05 MaxDP=5.60D-04 DE=-1.22D-05 OVMax= 4.59D-04

 Cycle   6  Pass 1  IDiag  1:
 E= -33.6536682988491     Delta-E=       -0.000001796094 Rises=F Damp=F
 DIIS: error= 3.78D-05 at cycle   6 NSaved=   6.
 NSaved= 6 IEnMin= 6 EnMin= -33.6536682988491     IErMin= 6 ErrMin= 3.78D-05
 ErrMax= 3.78D-05  0.00D+00 EMaxC= 1.00D-01 BMatC= 2.26D-08 BMatP= 1.31D-06
 IDIUse=1 WtCom= 1.00D+00 WtEn= 0.00D+00
 Coeff-Com: -0.329D-02 0.202D-02 0.439D-01-0.107D+00-0.238D+00 0.130D+01
 Coeff:     -0.329D-02 0.202D-02 0.439D-01-0.107D+00-0.238D+00 0.130D+01
 Gap=     0.609 Goal=   None    Shift=    0.000
 RMSDP=1.74D-05 MaxDP=1.42D-04 DE=-1.80D-06 OVMax= 9.60D-05

 Cycle   7  Pass 1  IDiag  1:
 E= -33.6536683543319     Delta-E=       -0.000000055483 Rises=F Damp=F
 DIIS: error= 4.64D-06 at cycle   7 NSaved=   7.
 NSaved= 7 IEnMin= 7 EnMin= -33.6536683543319     IErMin= 7 ErrMin= 4.64D-06
 ErrMax= 4.64D-06  0.00D+00 EMaxC= 1.00D-01 BMatC= 5.35D-10 BMatP= 2.26D-08
 IDIUse=1 WtCom= 1.00D+00 WtEn= 0.00D+00
 Coeff-Com:  0.906D-03-0.554D-03-0.122D-01 0.333D-01 0.637D-01-0.454D+00
 Coeff-Com:  0.137D+01
 Coeff:      0.906D-03-0.554D-03-0.122D-01 0.333D-01 0.637D-01-0.454D+00
 Coeff:      0.137D+01
 Gap=     0.609 Goal=   None    Shift=    0.000
 RMSDP=2.59D-06 MaxDP=1.41D-05 DE=-5.55D-08 OVMax= 2.16D-05

 Cycle   8  Pass 1  IDiag  1:
 E= -33.6536683557887     Delta-E=       -0.000000001457 Rises=F Damp=F
 DIIS: error= 8.88D-07 at cycle   8 NSaved=   8.
 NSaved= 8 IEnMin= 8 EnMin= -33.6536683557887     IErMin= 8 ErrMin= 8.88D-07
 ErrMax= 8.88D-07  0.00D+00 EMaxC= 1.00D-01 BMatC= 2.06D-11 BMatP= 5.35D-10
 IDIUse=1 WtCom= 1.00D+00 WtEn= 0.00D+00
 Coeff-Com: -0.888D-04 0.387D-04 0.115D-02-0.367D-02-0.431D-02 0.512D-01
 Coeff-Com: -0.300D+00 0.126D+01
 Coeff:     -0.888D-04 0.387D-04 0.115D-02-0.367D-02-0.431D-02 0.512D-01
 Coeff:     -0.300D+00 0.126D+01
 Gap=     0.609 Goal=   None    Shift=    0.000
 RMSDP=4.54D-07 MaxDP=2.72D-06 DE=-1.46D-09 OVMax= 4.12D-06

 Cycle   9  Pass 1  IDiag  1:
 E= -33.6536683558415     Delta-E=       -0.000000000053 Rises=F Damp=F
 DIIS: error= 1.65D-07 at cycle   9 NSaved=   9.
 NSaved= 9 IEnMin= 9 EnMin= -33.6536683558415     IErMin= 9 ErrMin= 1.65D-07
 ErrMax= 1.65D-07  0.00D+00 EMaxC= 1.00D-01 BMatC= 8.93D-13 BMatP= 2.06D-11
 IDIUse=1 WtCom= 1.00D+00 WtEn= 0.00D+00
 Coeff-Com:  0.142D-04-0.111D-05-0.160D-03 0.511D-03 0.999D-04-0.609D-02
 Coeff-Com:  0.615D-01-0.447D+00 0.139D+01
 Coeff:      0.142D-04-0.111D-05-0.160D-03 0.511D-03 0.999D-04-0.609D-02
 Coeff:      0.615D-01-0.447D+00 0.139D+01
 Gap=     0.609 Goal=   None    Shift=    0.000
 RMSDP=1.31D-07 MaxDP=6.45D-07 DE=-5.28D-11 OVMax= 1.12D-06

 Cycle  10  Pass 1  IDiag  1:
 E= -33.6536683558442     Delta-E=       -0.000000000003 Rises=F Damp=F
 DIIS: error= 2.71D-08 at cycle  10 NSaved=  10.
 NSaved=10 IEnMin=10 EnMin= -33.6536683558442     IErMin=10 ErrMin= 2.71D-08
 ErrMax= 2.71D-08  0.00D+00 EMaxC= 1.00D-01 BMatC= 1.87D-14 BMatP= 8.93D-13
 IDIUse=1 WtCom= 1.00D+00 WtEn= 0.00D+00
 Coeff-Com: -0.295D-06-0.165D-05-0.321D-05 0.301D-05 0.187D-03-0.326D-03
 Coeff-Com: -0.662D-02 0.831D-01-0.381D+00 0.130D+01
 Coeff:     -0.295D-06-0.165D-05-0.321D-05 0.301D-05 0.187D-03-0.326D-03
 Coeff:     -0.662D-02 0.831D-01-0.381D+00 0.130D+01
 Gap=     0.609 Goal=   None    Shift=    0.000
 RMSDP=2.09D-08 MaxDP=1.23D-07 DE=-2.74D-12 OVMax= 1.61D-07

 Cycle  11  Pass 1  IDiag  1:
 E= -33.6536683558443     Delta-E=       -0.000000000000 Rises=F Damp=F
 DIIS: error= 3.97D-09 at cycle  11 NSaved=  11.
 NSaved=11 IEnMin=11 EnMin= -33.6536683558443     IErMin=11 ErrMin= 3.97D-09
 ErrMax= 3.97D-09  0.00D+00 EMaxC= 1.00D-01 BMatC= 3.20D-16 BMatP= 1.87D-14
 IDIUse=1 WtCom= 1.00D+00 WtEn= 0.00D+00
 Coeff-Com: -0.118D-06 0.456D-06 0.312D-05-0.777D-05-0.561D-04 0.180D-03
 Coeff-Com:  0.930D-03-0.172D-01 0.889D-01-0.398D+00 0.132D+01
 Coeff:     -0.118D-06 0.456D-06 0.312D-05-0.777D-05-0.561D-04 0.180D-03
 Coeff:      0.930D-03-0.172D-01 0.889D-01-0.398D+00 0.132D+01
 Gap=     0.609 Goal=   None    Shift=    0.000
 RMSDP=3.15D-09 MaxDP=2.19D-08 DE=-9.95D-14 OVMax= 2.41D-08

 SCF Done:  E(RHF) =  -33.6536683558     A.U. after   11 cycles
            NFock= 11  Conv=0.32D-08     -V/T= 2.2467
 KE= 2.699512154791D+01 PE=-1.368042486580D+02 EE= 4.866488260623D+01
 Leave Link  502 at Sun Dec 10 06:28:17 2023, MaxMem=   536870912 cpu:               0.3 elap:               0.1
 (Enter /usr/site/hpc/x86_64/glibc-2.17/broadwell/gaussian/g16_a.03/pgi-16.5/g16/l801.exe)
 Windowed orbitals will be sorted by symmetry type.
 Range of M.O.s used for correlation:     1    24
 NBasis=    24 NAE=     8 NBE=     8 NFC=     0 NFV=     0
 NROrb=     24 NOA=     8 NOB=     8 NVA=    16 NVB=    16
 Leave Link  801 at Sun Dec 10 06:28:17 2023, MaxMem=   536870912 cpu:               0.1 elap:               0.0
 (Enter /usr/site/hpc/x86_64/glibc-2.17/broadwell/gaussian/g16_a.03/pgi-16.5/g16/l804.exe)
 Closed-shell transformation, MDV=   536870912 ITran=4 ISComp=2.
 Unit  1 TFree=       1025975 TCopy=        210600.
 Semi-Direct transformation.
 ModeAB=           2 MOrb=             8 LenV=     536741524
 LASXX=        22470 LTotXX=       22470 LenRXX=       22470
 LTotAB=       26208 MaxLAS=       57600 LenRXY=       57600
 NonZer=       62208 LenScr=      524288 LnRSAI=           0
 LnScr1=           0 LExtra=           0 Total=       604358
 MaxDsk=          -1 SrtSym=           F ITran=            4
 DoSDTr:  NPSUse=  4
 JobTyp=0 Pass  1:  I=   1 to   8.
 (rs|ai) integrals will be sorted in core.
 Complete sort for first half transformation.
 First half transformation complete.
 Complete sort for second half transformation.
 Second half transformation complete.
 Spin components of T(2) and E(2):
     alpha-alpha T2 =       0.9195506594D-02 E2=     -0.2662353036D-01
     alpha-beta  T2 =       0.5844109656D-01 E2=     -0.1753038859D+00
     beta-beta   T2 =       0.9195506594D-02 E2=     -0.2662353036D-01
 ANorm=    0.1037705213D+01
 E2 =    -0.2285509466D+00 EUMP2 =    -0.33882219302440D+02
 Leave Link  804 at Sun Dec 10 06:28:17 2023, MaxMem=   536870912 cpu:               0.2 elap:               0.1
 (Enter /usr/site/hpc/x86_64/glibc-2.17/broadwell/gaussian/g16_a.03/pgi-16.5/g16/l913.exe)
 CIDS:  MDV=   536870912.
 IFCWin=0 IBDFC=1 NFBD=     0     0 NFCmp=     0     0 NFFFC=     0     0
 Using DD3R+UMP44R for 1st iteration.
 Using DD4RQ for 2nd and later iterations.
 Keep R2 and R3 ints in memory in symmetry-blocked form, NReq=865367.
 FoFCou: FMM=F IPFlag=           0 FMFlag=           0 FMFlg1=           0
         NFxFlg=           0 DoJE=F BraDBF=F KetDBF=F FulRan=T
         wScrn=  0.000000 ICntrl=       600 IOpCl=  0 I1Cent=           0 NGrid=           0
         NMat0=    1 NMatS0=    300 NMatT0=    0 NMatD0=    1 NMtDS0=    0 NMtDT0=    0
 Petite list used in FoFCou.
 CIDS: In Core Option IDoMem=           1.
 CCSD(T)
 =======
 Iterations=  50 Convergence= 0.100D-06
 Produce multiple copies of IABC intergrals
 Iteration Nr.   1
 **********************
 DD1Dir will call FoFMem   1 times, MxPair=        72
 NAB=    36 NAA=     0 NBB=     0.
 MP4(R+Q)= -0.64260521D-03
 Maximum subspace dimension=  5
 A-vector RMS=  5.9227818D-03 Max=  1.3299581D-02 conv= 1.00D-05.
 RLE energy=       -0.2331502205
 E3=       -0.41447813D-02        EUMP3=      -0.33886364084D+02
 E4(DQ)=   -0.55311540D-02        UMP4(DQ)=   -0.33891895238D+02
 E4(SDQ)=  -0.77126984D-02        UMP4(SDQ)=  -0.33894076782D+02
 VARIATIONAL ENERGIES WITH THE FIRST-ORDER WAVEFUNCTION:
 DE(Corr)= -0.23305984     E(Corr)=     -33.886728195    
 NORM(A)=   0.10405737D+01
 Iteration Nr.   2
 **********************
 DD1Dir will call FoFMem   1 times, MxPair=        72
 NAB=    36 NAA=     0 NBB=     0.
 A-vector RMS=  9.4193136D-04 Max=  2.4197996D-03 conv= 1.00D-05.
 RLE energy=       -0.2406365414
 DE(Corr)= -0.23888957     E(CORR)=     -33.892557928     Delta=-5.83D-03
 NORM(A)=   0.10441134D+01
 Iteration Nr.   3
 **********************
 DD1Dir will call FoFMem   1 times, MxPair=        72
 NAB=    36 NAA=     0 NBB=     0.
 A-vector RMS=  4.1369684D-04 Max=  1.3311462D-03 conv= 1.00D-05.
 RLE energy=       -0.2411613646
 DE(Corr)= -0.24072333     E(CORR)=     -33.894391690     Delta=-1.83D-03
 NORM(A)=   0.10446416D+01
 Iteration Nr.   4
 **********************
 DD1Dir will call FoFMem   1 times, MxPair=        72
 NAB=    36 NAA=     0 NBB=     0.
 A-vector RMS=  8.5513396D-05 Max=  2.5594334D-04 conv= 1.00D-05.
 RLE energy=       -0.2412089643
 DE(Corr)= -0.24117614     E(CORR)=     -33.894844501     Delta=-4.53D-04
 NORM(A)=   0.10447054D+01
 Iteration Nr.   5
 **********************
 DD1Dir will call FoFMem   1 times, MxPair=        72
 NAB=    36 NAA=     0 NBB=     0.
 A-vector RMS=  5.0232150D-05 Max=  2.2682112D-04 conv= 1.00D-05.
 RLE energy=       -0.2412096955
 DE(Corr)= -0.24120597     E(CORR)=     -33.894874329     Delta=-2.98D-05
 NORM(A)=   0.10447147D+01
 Iteration Nr.   6
 **********************
 DD1Dir will call FoFMem   1 times, MxPair=        72
 NAB=    36 NAA=     0 NBB=     0.
 A-vector RMS=  1.6399667D-05 Max=  7.0297256D-05 conv= 1.00D-05.
 RLE energy=       -0.2412055946
 DE(Corr)= -0.24120893     E(CORR)=     -33.894877287     Delta=-2.96D-06
 NORM(A)=   0.10447165D+01
 Iteration Nr.   7
 **********************
 DD1Dir will call FoFMem   1 times, MxPair=        72
 NAB=    36 NAA=     0 NBB=     0.
 A-vector RMS=  7.2713912D-06 Max=  2.7159425D-05 conv= 1.00D-05.
 RLE energy=       -0.2412073892
 DE(Corr)= -0.24120882     E(CORR)=     -33.894877181     Delta= 1.06D-07
 NORM(A)=   0.10447184D+01
 Iteration Nr.   8
 **********************
 DD1Dir will call FoFMem   1 times, MxPair=        72
 NAB=    36 NAA=     0 NBB=     0.
 A-vector RMS=  2.7814190D-06 Max=  1.2442114D-05 conv= 1.00D-05.
 RLE energy=       -0.2412081061
 DE(Corr)= -0.24120827     E(CORR)=     -33.894876626     Delta= 5.55D-07
 NORM(A)=   0.10447194D+01
 Iteration Nr.   9
 **********************
 DD1Dir will call FoFMem   1 times, MxPair=        72
 NAB=    36 NAA=     0 NBB=     0.
 A-vector RMS=  5.4000270D-07 Max=  1.7410367D-06 conv= 1.00D-05.
 RLE energy=       -0.2412084264
 DE(Corr)= -0.24120846     E(CORR)=     -33.894876811     Delta=-1.85D-07
 NORM(A)=   0.10447197D+01
 Iteration Nr.  10
 **********************
 DD1Dir will call FoFMem   1 times, MxPair=        72
 NAB=    36 NAA=     0 NBB=     0.
 A-vector RMS=  1.9780763D-07 Max=  7.9157371D-07 conv= 1.00D-05.
 RLE energy=       -0.2412086299
 DE(Corr)= -0.24120859     E(CORR)=     -33.894876946     Delta=-1.35D-07
 NORM(A)=   0.10447198D+01
 Iteration Nr.  11
 **********************
 DD1Dir will call FoFMem   1 times, MxPair=        72
 NAB=    36 NAA=     0 NBB=     0.
 A-vector RMS=  5.6885681D-08 Max=  2.1369321D-07 conv= 1.00D-05.
 RLE energy=       -0.2412086801
 DE(Corr)= -0.24120866     E(CORR)=     -33.894877018     Delta=-7.23D-08
 NORM(A)=   0.10447199D+01
 CI/CC converged in   11 iterations to DelEn=-7.23D-08 Conv= 1.00D-07 ErrA1= 5.69D-08 Conv= 1.00D-05
 Wavefunction amplitudes converged. E(Corr)=     -33.894877018    
 Largest amplitude= 4.86D-02
 IPart=  4 IA=    2   12.50% done.
 IPart=  3 IA=    3   24.17% done.
 IPart=  2 IA=    4   35.00% done.
 IPart=  3 IA=    5   45.00% done.
 IPart=  2 IA=    6   54.17% done.
 IPart=  4 IA=    7   62.50% done.
 IPart=  1 IA=    8   70.00% done.
 IPart=  1 IA=   10   82.50% done.
 IPart=  4 IA=   12   91.67% done.
 Time for triples=        0.25 seconds.
 T4(CCSD)= -0.35337734D-02
 T5(CCSD)=  0.54926792D-03
 CCSD(T)= -0.33897861524D+02
 Discarding MO integrals.
 Leave Link  913 at Sun Dec 10 06:28:17 2023, MaxMem=   536870912 cpu:               1.0 elap:               0.3
 (Enter /usr/site/hpc/x86_64/glibc-2.17/broadwell/gaussian/g16_a.03/pgi-16.5/g16/l601.exe)
 Copying SCF densities to generalized density rwf, IOpCl= 0 IROHF=0.

 **********************************************************************

            Population analysis using the SCF density.

 **********************************************************************

 Orbital symmetries:
       Occupied  (A') (A') (A') (A') (A') (A") (A') (A")
       Virtual   (A') (A') (A') (A') (A") (A') (A') (A") (A') (A')
                 (A') (A') (A') (A') (A') (A')
 The electronic state is 1-A'.
 Alpha  occ. eigenvalues --   -1.41111  -1.29262  -0.76690  -0.70996  -0.58484
 Alpha  occ. eigenvalues --   -0.55634  -0.48039  -0.43753
 Alpha virt. eigenvalues --    0.17196   0.26723   0.28363   0.54685   0.73986
 Alpha virt. eigenvalues --    0.74742   0.86433   0.89263   0.95131   1.00753
 Alpha virt. eigenvalues --    1.15719   1.19195   1.25405   1.37209   2.69685
 Alpha virt. eigenvalues --    3.96159
          Condensed to atoms (all electrons):
               1          2          3          4          5          6
     1  O    6.240468   0.336766   0.266932  -0.071487   0.001008   0.000605
     2  H    0.336766   0.398478  -0.036963  -0.121061   0.007839   0.006246
     3  H    0.266932  -0.036963   0.424835   0.007169  -0.000021  -0.000187
     4  O   -0.071487  -0.121061   0.007169   6.488624   0.261061   0.272896
     5  H    0.001008   0.007839  -0.000021   0.261061   0.329111  -0.020227
     6  H    0.000605   0.006246  -0.000187   0.272896  -0.020227   0.297331
 Mulliken charges:
               1
     1  O   -0.774292
     2  H    0.408696
     3  H    0.338235
     4  O   -0.837203
     5  H    0.421228
     6  H    0.443336
 Sum of Mulliken charges =  -0.00000
 Mulliken charges with hydrogens summed into heavy atoms:
               1
     1  O   -0.027361
     4  O    0.027361
 Electronic spatial extent (au):  <R**2>=            127.4627
 Charge=             -0.0000 electrons
 Dipole moment (field-independent basis, Debye):
    X=             -1.3236    Y=             -5.0009    Z=             -0.0000  Tot=              5.1731
 Quadrupole moment (field-independent basis, Debye-Ang):
   XX=             -9.3817   YY=             -9.6675   ZZ=            -15.0089
   XY=             -3.9960   XZ=             -0.0000   YZ=              0.0000
 Traceless Quadrupole moment (field-independent basis, Debye-Ang):
   XX=              1.9710   YY=              1.6852   ZZ=             -3.6562
   XY=             -3.9960   XZ=             -0.0000   YZ=              0.0000
 Octapole moment (field-independent basis, Debye-Ang**2):
  XXX=             -0.3309  YYY=            -21.4306  ZZZ=             -0.0000  XYY=             -6.8400
  XXY=             -3.2899  XXZ=             -0.0000  XZZ=             -0.2504  YZZ=             -1.1596
  YYZ=             -0.0000  XYZ=             -0.0000
 Hexadecapole moment (field-independent basis, Debye-Ang**3):
 XXXX=            -11.4632 YYYY=           -112.7404 ZZZZ=            -12.2999 XXXY=             -2.3161
 XXXZ=             -0.0000 YYYX=             -4.9085 YYYZ=             -0.0000 ZZZX=              0.0000
 ZZZY=             -0.0000 XXYY=            -15.4488 XXZZ=             -4.5517 YYZZ=            -27.6481
 XXYZ=             -0.0000 YYXZ=             -0.0000 ZZXY=              0.5276
 N-N= 2.749057614805D+01 E-N=-1.368042486624D+02  KE= 2.699512154791D+01
 Symmetry A'   KE= 1.818516167585D+01
 Symmetry A"   KE= 8.809959872061D+00
 Leave Link  601 at Sun Dec 10 06:28:17 2023, MaxMem=   536870912 cpu:               0.1 elap:               0.0
 (Enter /usr/site/hpc/x86_64/glibc-2.17/broadwell/gaussian/g16_a.03/pgi-16.5/g16/l9999.exe)
 1\1\GINC-N044\SP\RCCSD(T)-FC\CEP-31G\H4O2\ROOT\10-Dec-2023\0\\#p CCSD(
 T)/CEP-31G\\H2O_H2O_519\\0,1\O,0,0.,-0.009833,0.\H,0,-0.799571,-0.5809
 65,0.\H,0,0.799571,-0.580965,0.\O,0,-1.994674,-1.421301,0.\H,0,-2.7925
 1,-0.847747,0.\H,0,-2.278483,-2.362023,0.\\Version=ES64L-G16RevA.03\St
 ate=1-A'\HF=-33.6536684\MP2=-33.8822193\MP3=-33.8863641\MP4D=-33.89125
 26\MP4DQ=-33.8918952\MP4SDQ=-33.8940768\CCSD=-33.894877\CCSD(T)=-33.89
 78615\RMSD=3.150e-09\PG=CS [SG(H4O2)]\\@


 FOR THE NATURE OF THE CHEMICAL BOND
 IS THE PROBLEM AT THE HEART OF ALL CHEMISTRY.

                     -- BRYCE CRAWFORD, JR., 1953
 Job cpu time:       0 days  0 hours  0 minutes  3.4 seconds.
 Elapsed time:       0 days  0 hours  0 minutes  1.0 seconds.
 File lengths (MBytes):  RWF=     72 Int=      0 D2E=      0 Chk=      8 Scr=      8
 Normal termination of Gaussian 16 at Sun Dec 10 06:28:17 2023.
