 Entering Gaussian System, Link 0=g16
 Input=H2O_H2O_765.com
 Output=H2O_H2O_765.log
 Initial command:
 /usr/site/hpc/x86_64/glibc-2.17/broadwell/gaussian/g16_a.03/pgi-16.5/g16/l1.exe "/gpfs/gpfs1/scratch/c7441090/OH Coord/Gau-1645381.inp" -scrdir="/gpfs/gpfs1/scratch/c7441090/OH Coord/"
 Entering Link 1 = /usr/site/hpc/x86_64/glibc-2.17/broadwell/gaussian/g16_a.03/pgi-16.5/g16/l1.exe PID=   1645382.
  
 Copyright (c) 1988,1990,1992,1993,1995,1998,2003,2009,2016,
            Gaussian, Inc.  All Rights Reserved.
  
 This is part of the Gaussian(R) 16 program.  It is based on
 the Gaussian(R) 09 system (copyright 2009, Gaussian, Inc.),
 the Gaussian(R) 03 system (copyright 2003, Gaussian, Inc.),
 the Gaussian(R) 98 system (copyright 1998, Gaussian, Inc.),
 the Gaussian(R) 94 system (copyright 1995, Gaussian, Inc.),
 the Gaussian 92(TM) system (copyright 1992, Gaussian, Inc.),
 the Gaussian 90(TM) system (copyright 1990, Gaussian, Inc.),
 the Gaussian 88(TM) system (copyright 1988, Gaussian, Inc.),
 the Gaussian 86(TM) system (copyright 1986, Carnegie Mellon
 University), and the Gaussian 82(TM) system (copyright 1983,
 Carnegie Mellon University). Gaussian is a federally registered
 trademark of Gaussian, Inc.
  
 This software contains proprietary and confidential information,
 including trade secrets, belonging to Gaussian, Inc.
  
 This software is provided under written license and may be
 used, copied, transmitted, or stored only in accord with that
 written license.
  
 The following legend is applicable only to US Government
 contracts under FAR:
  
                    RESTRICTED RIGHTS LEGEND
  
 Use, reproduction and disclosure by the US Government is
 subject to restrictions as set forth in subparagraphs (a)
 and (c) of the Commercial Computer Software - Restricted
 Rights clause in FAR 52.227-19.
  
 Gaussian, Inc.
 340 Quinnipiac St., Bldg. 40, Wallingford CT 06492
  
  
 ---------------------------------------------------------------
 Warning -- This program may not be used in any manner that
 competes with the business of Gaussian, Inc. or will provide
 assistance to any competitor of Gaussian, Inc.  The licensee
 of this program is prohibited from giving any competitor of
 Gaussian, Inc. access to this program.  By using this program,
 the user acknowledges that Gaussian, Inc. is engaged in the
 business of creating and licensing software in the field of
 computational chemistry and represents and warrants to the
 licensee that it is not a competitor of Gaussian, Inc. and that
 it will not use this program in any manner prohibited above.
 ---------------------------------------------------------------
  

 Cite this work as:
 Gaussian 16, Revision A.03,
 M. J. Frisch, G. W. Trucks, H. B. Schlegel, G. E. Scuseria, 
 M. A. Robb, J. R. Cheeseman, G. Scalmani, V. Barone, 
 G. A. Petersson, H. Nakatsuji, X. Li, M. Caricato, A. V. Marenich, 
 J. Bloino, B. G. Janesko, R. Gomperts, B. Mennucci, H. P. Hratchian, 
 J. V. Ortiz, A. F. Izmaylov, J. L. Sonnenberg, D. Williams-Young, 
 F. Ding, F. Lipparini, F. Egidi, J. Goings, B. Peng, A. Petrone, 
 T. Henderson, D. Ranasinghe, V. G. Zakrzewski, J. Gao, N. Rega, 
 G. Zheng, W. Liang, M. Hada, M. Ehara, K. Toyota, R. Fukuda, 
 J. Hasegawa, M. Ishida, T. Nakajima, Y. Honda, O. Kitao, H. Nakai, 
 T. Vreven, K. Throssell, J. A. Montgomery, Jr., J. E. Peralta, 
 F. Ogliaro, M. J. Bearpark, J. J. Heyd, E. N. Brothers, K. N. Kudin, 
 V. N. Staroverov, T. A. Keith, R. Kobayashi, J. Normand, 
 K. Raghavachari, A. P. Rendell, J. C. Burant, S. S. Iyengar, 
 J. Tomasi, M. Cossi, J. M. Millam, M. Klene, C. Adamo, R. Cammi, 
 J. W. Ochterski, R. L. Martin, K. Morokuma, O. Farkas, 
 J. B. Foresman, and D. J. Fox, Gaussian, Inc., Wallingford CT, 2016.
 
 ******************************************
 Gaussian 16:  ES64L-G16RevA.03 25-Dec-2016
                10-Dec-2023 
 ******************************************
 %NProcShared=4
 Will use up to    4 processors via shared memory.
 %Mem=4GB
 %Chk=H2O_H2O_765.chk
 ------------------
 #p CCSD(T)/CEP-31G
 ------------------
 1/38=1,172=1/1;
 2/12=2,17=6,18=5,40=1/2;
 3/5=9,6=1,11=9,25=1,30=1/1,2,3;
 4//1;
 5/5=2,38=5/2;
 8/6=4,9=120000,10=1/1,4;
 9/5=7,14=2/13;
 6/7=2,8=2,9=2,10=2/1;
 99/5=1,9=1/99;
 Leave Link    1 at Sun Dec 10 06:32:53 2023, MaxMem=   536870912 cpu:               0.2 elap:               0.1
 (Enter /usr/site/hpc/x86_64/glibc-2.17/broadwell/gaussian/g16_a.03/pgi-16.5/g16/l101.exe)
 -----------
 H2O_H2O_765
 -----------
 Symbolic Z-matrix:
 Charge =  0 Multiplicity = 1
 O                     0.       -0.00983   0. 
 H                    -0.79957  -0.58097   0. 
 H                     0.79957  -0.58097   0. 
 O                    -2.15583  -1.53953   0. 
 H                    -3.07492  -1.19201   0. 
 H                    -2.18649  -2.52165   0. 
 
 ITRead=  0  0  0  0  0  0
 MicOpt= -1 -1 -1 -1 -1 -1
 NAtoms=      6 NQM=        6 NQMF=       0 NMMI=      0 NMMIF=      0
                NMic=       0 NMicF=      0.
                    Isotopes and Nuclear Properties:
 (Nuclear quadrupole moments (NQMom) in fm**2, nuclear magnetic moments (NMagM)
  in nuclear magnetons)

  Atom         1           2           3           4           5           6
 IAtWgt=          16           1           1          16           1           1
 AtmWgt=  15.9949146   1.0078250   1.0078250  15.9949146   1.0078250   1.0078250
 NucSpn=           0           1           1           0           1           1
 AtZEff=  -0.0000000  -0.0000000  -0.0000000  -0.0000000  -0.0000000  -0.0000000
 NQMom=    0.0000000   0.0000000   0.0000000   0.0000000   0.0000000   0.0000000
 NMagM=    0.0000000   2.7928460   2.7928460   0.0000000   2.7928460   2.7928460
 AtZNuc=   8.0000000   1.0000000   1.0000000   8.0000000   1.0000000   1.0000000
 Leave Link  101 at Sun Dec 10 06:32:53 2023, MaxMem=   536870912 cpu:               0.3 elap:               0.1
 (Enter /usr/site/hpc/x86_64/glibc-2.17/broadwell/gaussian/g16_a.03/pgi-16.5/g16/l202.exe)
                          Input orientation:                          
 ---------------------------------------------------------------------
 Center     Atomic      Atomic             Coordinates (Angstroms)
 Number     Number       Type             X           Y           Z
 ---------------------------------------------------------------------
      1          8           0        0.000000   -0.009833    0.000000
      2          1           0       -0.799571   -0.580965    0.000000
      3          1           0        0.799571   -0.580965    0.000000
      4          8           0       -2.155828   -1.539526    0.000000
      5          1           0       -3.074925   -1.192010    0.000000
      6          1           0       -2.186489   -2.521649    0.000000
 ---------------------------------------------------------------------
                    Distance matrix (angstroms):
                    1          2          3          4          5
     1  O    0.000000
     2  H    0.982601   0.000000
     3  H    0.982601   1.599142   0.000000
     4  O    2.643398   1.660805   3.106964   0.000000
     5  H    3.294345   2.355974   3.922384   0.982602   0.000000
     6  H    3.330158   2.385329   3.561293   0.982601   1.599143
                    6
     6  H    0.000000
 Stoichiometry    H4O2
 Framework group  CS[SG(H4O2)]
 Deg. of freedom     9
 Full point group                 CS      NOp   2
 Largest Abelian subgroup         CS      NOp   2
 Largest concise Abelian subgroup C1      NOp   1
                         Standard orientation:                         
 ---------------------------------------------------------------------
 Center     Atomic      Atomic             Coordinates (Angstroms)
 Number     Number       Type             X           Y           Z
 ---------------------------------------------------------------------
      1          8           0        0.044976    1.411840    0.000000
      2          1           0        0.041887    0.429244    0.000000
      3          1           0       -0.883511    1.733427    0.000000
      4          8           0        0.044976   -1.231558   -0.000000
      5          1           0        0.860260   -1.780027   -0.000000
      6          1           0       -0.738253   -1.824903   -0.000000
 ---------------------------------------------------------------------
 Rotational constants (GHZ):         241.3999167           7.6700349           7.4338385
 Leave Link  202 at Sun Dec 10 06:32:53 2023, MaxMem=   536870912 cpu:               0.1 elap:               0.0
 (Enter /usr/site/hpc/x86_64/glibc-2.17/broadwell/gaussian/g16_a.03/pgi-16.5/g16/l301.exe)
 Standard basis: CEP-31G (6D, 10F)
 Ernie: Thresh=  0.10000D-02 Tol=  0.10000D-05 Strict=F.
 There are    20 symmetry adapted cartesian basis functions of A'  symmetry.
 There are     4 symmetry adapted cartesian basis functions of A"  symmetry.
 There are    20 symmetry adapted basis functions of A'  symmetry.
 There are     4 symmetry adapted basis functions of A"  symmetry.
    24 basis functions,    48 primitive gaussians,    24 cartesian basis functions
     8 alpha electrons        8 beta electrons
       nuclear repulsion energy        26.3745924952 Hartrees.
 IExCor=    0 DFT=F Ex=HF Corr=None ExCW=0 ScaHFX=  1.000000
 ScaDFX=  1.000000  1.000000  1.000000  1.000000 ScalE2=  1.000000  1.000000
 IRadAn=      5 IRanWt=     -1 IRanGd=            0 ICorTp=0 IEmpDi=  4
 NAtoms=    6 NActive=    6 NUniq=    6 SFac= 1.00D+00 NAtFMM=   60 NAOKFM=F Big=F
 Integral buffers will be    131072 words long.
 Raffenetti 1 integral format.
 Two-electron integral symmetry is turned on.
 Leave Link  301 at Sun Dec 10 06:32:53 2023, MaxMem=   536870912 cpu:               0.2 elap:               0.1
 (Enter /usr/site/hpc/x86_64/glibc-2.17/broadwell/gaussian/g16_a.03/pgi-16.5/g16/l302.exe)
 NPDir=0 NMtPBC=     1 NCelOv=     1 NCel=       1 NClECP=     1 NCelD=      1
         NCelK=      1 NCelE2=     1 NClLst=     1 CellRange=     0.0.
 One-electron integrals computed using PRISM.
 One-electron integral symmetry used in STVInt
   2 Symmetry operations used in ECPInt.
 ECPInt:  NShTT=      78 NPrTT=     318 LenC2=      79 LenP2D=     295.
 LDataN:  DoStor=T MaxTD1= 2 Len=   12
 NBasis=    24 RedAO= T EigKep=  1.26D-02  NBF=    20     4
 NBsUse=    24 1.00D-06 EigRej= -1.00D+00 NBFU=    20     4
 Leave Link  302 at Sun Dec 10 06:32:53 2023, MaxMem=   536870912 cpu:               0.3 elap:               0.1
 (Enter /usr/site/hpc/x86_64/glibc-2.17/broadwell/gaussian/g16_a.03/pgi-16.5/g16/l303.exe)
 DipDrv:  MaxL=1.
 Leave Link  303 at Sun Dec 10 06:32:53 2023, MaxMem=   536870912 cpu:               0.1 elap:               0.0
 (Enter /usr/site/hpc/x86_64/glibc-2.17/broadwell/gaussian/g16_a.03/pgi-16.5/g16/l401.exe)
 ExpMin= 1.78D-01 ExpMax= 1.92D+01 ExpMxC= 1.92D+01 IAcc=3 IRadAn=         5 AccDes= 0.00D+00
 Harris functional with IExCor=  205 and IRadAn=       5 diagonalized for initial guess.
 HarFok:  IExCor=  205 AccDes= 0.00D+00 IRadAn=         5 IDoV= 1 UseB2=F ITyADJ=14
 ICtDFT=  3500011 ScaDFX=  1.000000  1.000000  1.000000  1.000000
 FoFCou: FMM=F IPFlag=           0 FMFlag=      100000 FMFlg1=           0
         NFxFlg=           0 DoJE=T BraDBF=F KetDBF=T FulRan=T
         wScrn=  0.000000 ICntrl=       500 IOpCl=  0 I1Cent=   200000004 NGrid=           0
         NMat0=    1 NMatS0=      1 NMatT0=    0 NMatD0=    1 NMtDS0=    0 NMtDT0=    0
 Petite list used in FoFCou.
 Harris En= -34.4883586092297    
 JPrj=0 DoOrth=F DoCkMO=F.
 Initial guess orbital symmetries:
       Occupied  (A') (A') (A') (A') (A') (A') (A") (A")
       Virtual   (A') (A') (A') (A') (A") (A') (A') (A") (A') (A')
                 (A') (A') (A') (A') (A') (A')
 The electronic state of the initial guess is 1-A'.
 Leave Link  401 at Sun Dec 10 06:32:54 2023, MaxMem=   536870912 cpu:               0.4 elap:               0.1
 (Enter /usr/site/hpc/x86_64/glibc-2.17/broadwell/gaussian/g16_a.03/pgi-16.5/g16/l502.exe)
 Keep R1 ints in memory in symmetry-blocked form, NReq=852667.
 FoFCou: FMM=F IPFlag=           0 FMFlag=           0 FMFlg1=           0
         NFxFlg=           0 DoJE=F BraDBF=F KetDBF=F FulRan=T
         wScrn=  0.000000 ICntrl=       600 IOpCl=  0 I1Cent=           0 NGrid=           0
         NMat0=    1 NMatS0=    300 NMatT0=    0 NMatD0=    1 NMtDS0=    0 NMtDT0=    0
 Petite list used in FoFCou.
 Closed shell SCF:
 Using DIIS extrapolation, IDIIS=  1040.
 NGot=   536870912 LenX=   536840576 LenY=   536839559
 Requested convergence on RMS density matrix=1.00D-08 within 128 cycles.
 Requested convergence on MAX density matrix=1.00D-06.
 Requested convergence on             energy=1.00D-06.
 No special actions if energy rises.

 Cycle   1  Pass 1  IDiag  1:
 E= -33.5750142654988    
 DIIS: error= 5.33D-02 at cycle   1 NSaved=   1.
 NSaved= 1 IEnMin= 1 EnMin= -33.5750142654988     IErMin= 1 ErrMin= 5.33D-02
 ErrMax= 5.33D-02  0.00D+00 EMaxC= 1.00D-01 BMatC= 9.32D-02 BMatP= 9.32D-02
 IDIUse=3 WtCom= 4.67D-01 WtEn= 5.33D-01
 Coeff-Com:  0.100D+01
 Coeff-En:   0.100D+01
 Coeff:      0.100D+01
 Gap=     0.545 Goal=   None    Shift=    0.000
 GapD=    0.545 DampG=2.000 DampE=0.500 DampFc=1.0000 IDamp=-1.
 RMSDP=1.59D-02 MaxDP=1.28D-01              OVMax= 9.79D-02

 Cycle   2  Pass 1  IDiag  1:
 E= -33.6352608831597     Delta-E=       -0.060246617661 Rises=F Damp=F
 DIIS: error= 3.33D-02 at cycle   2 NSaved=   2.
 NSaved= 2 IEnMin= 2 EnMin= -33.6352608831597     IErMin= 2 ErrMin= 3.33D-02
 ErrMax= 3.33D-02  0.00D+00 EMaxC= 1.00D-01 BMatC= 3.18D-02 BMatP= 9.32D-02
 IDIUse=3 WtCom= 6.67D-01 WtEn= 3.33D-01
 Coeff-Com:  0.365D+00 0.635D+00
 Coeff-En:   0.519D-01 0.948D+00
 Coeff:      0.261D+00 0.739D+00
 Gap=     0.628 Goal=   None    Shift=    0.000
 RMSDP=6.12D-03 MaxDP=5.62D-02 DE=-6.02D-02 OVMax= 3.59D-02

 Cycle   3  Pass 1  IDiag  1:
 E= -33.6605003029793     Delta-E=       -0.025239419820 Rises=F Damp=F
 DIIS: error= 5.77D-03 at cycle   3 NSaved=   3.
 NSaved= 3 IEnMin= 3 EnMin= -33.6605003029793     IErMin= 3 ErrMin= 5.77D-03
 ErrMax= 5.77D-03  0.00D+00 EMaxC= 1.00D-01 BMatC= 8.80D-04 BMatP= 3.18D-02
 IDIUse=3 WtCom= 9.42D-01 WtEn= 5.77D-02
 Coeff-Com: -0.104D+00 0.125D-02 0.110D+01
 Coeff-En:   0.000D+00 0.000D+00 0.100D+01
 Coeff:     -0.983D-01 0.118D-02 0.110D+01
 Gap=     0.620 Goal=   None    Shift=    0.000
 RMSDP=1.24D-03 MaxDP=1.01D-02 DE=-2.52D-02 OVMax= 7.93D-03

 Cycle   4  Pass 1  IDiag  1:
 E= -33.6613589747160     Delta-E=       -0.000858671737 Rises=F Damp=F
 DIIS: error= 5.34D-04 at cycle   4 NSaved=   4.
 NSaved= 4 IEnMin= 4 EnMin= -33.6613589747160     IErMin= 4 ErrMin= 5.34D-04
 ErrMax= 5.34D-04  0.00D+00 EMaxC= 1.00D-01 BMatC= 5.44D-06 BMatP= 8.80D-04
 IDIUse=3 WtCom= 9.95D-01 WtEn= 5.34D-03
 Coeff-Com:  0.104D-01-0.213D-01-0.201D+00 0.121D+01
 Coeff-En:   0.000D+00 0.000D+00 0.000D+00 0.100D+01
 Coeff:      0.104D-01-0.212D-01-0.200D+00 0.121D+01
 Gap=     0.622 Goal=   None    Shift=    0.000
 RMSDP=2.18D-04 MaxDP=1.75D-03 DE=-8.59D-04 OVMax= 1.09D-03

 Cycle   5  Pass 1  IDiag  1:
 E= -33.6613698755386     Delta-E=       -0.000010900823 Rises=F Damp=F
 DIIS: error= 1.22D-04 at cycle   5 NSaved=   5.
 NSaved= 5 IEnMin= 5 EnMin= -33.6613698755386     IErMin= 5 ErrMin= 1.22D-04
 ErrMax= 1.22D-04  0.00D+00 EMaxC= 1.00D-01 BMatC= 7.71D-07 BMatP= 5.44D-06
 IDIUse=3 WtCom= 9.99D-01 WtEn= 1.22D-03
 Coeff-Com:  0.129D-01-0.595D-02-0.159D+00 0.352D+00 0.800D+00
 Coeff-En:   0.000D+00 0.000D+00 0.000D+00 0.000D+00 0.100D+01
 Coeff:      0.129D-01-0.594D-02-0.159D+00 0.352D+00 0.800D+00
 Gap=     0.622 Goal=   None    Shift=    0.000
 RMSDP=4.96D-05 MaxDP=4.10D-04 DE=-1.09D-05 OVMax= 3.01D-04

 Cycle   6  Pass 1  IDiag  1:
 E= -33.6613708136885     Delta-E=       -0.000000938150 Rises=F Damp=F
 DIIS: error= 3.32D-05 at cycle   6 NSaved=   6.
 NSaved= 6 IEnMin= 6 EnMin= -33.6613708136885     IErMin= 6 ErrMin= 3.32D-05
 ErrMax= 3.32D-05  0.00D+00 EMaxC= 1.00D-01 BMatC= 2.02D-08 BMatP= 7.71D-07
 IDIUse=1 WtCom= 1.00D+00 WtEn= 0.00D+00
 Coeff-Com: -0.343D-02 0.206D-02 0.448D-01-0.147D+00-0.139D+00 0.124D+01
 Coeff:     -0.343D-02 0.206D-02 0.448D-01-0.147D+00-0.139D+00 0.124D+01
 Gap=     0.622 Goal=   None    Shift=    0.000
 RMSDP=1.41D-05 MaxDP=1.32D-04 DE=-9.38D-07 OVMax= 7.92D-05

 Cycle   7  Pass 1  IDiag  1:
 E= -33.6613708590914     Delta-E=       -0.000000045403 Rises=F Damp=F
 DIIS: error= 5.00D-06 at cycle   7 NSaved=   7.
 NSaved= 7 IEnMin= 7 EnMin= -33.6613708590914     IErMin= 7 ErrMin= 5.00D-06
 ErrMax= 5.00D-06  0.00D+00 EMaxC= 1.00D-01 BMatC= 5.12D-10 BMatP= 2.02D-08
 IDIUse=1 WtCom= 1.00D+00 WtEn= 0.00D+00
 Coeff-Com:  0.961D-03-0.560D-03-0.125D-01 0.452D-01 0.300D-01-0.438D+00
 Coeff-Com:  0.138D+01
 Coeff:      0.961D-03-0.560D-03-0.125D-01 0.452D-01 0.300D-01-0.438D+00
 Coeff:      0.138D+01
 Gap=     0.622 Goal=   None    Shift=    0.000
 RMSDP=2.40D-06 MaxDP=1.39D-05 DE=-4.54D-08 OVMax= 2.03D-05

 Cycle   8  Pass 1  IDiag  1:
 E= -33.6613708604942     Delta-E=       -0.000000001403 Rises=F Damp=F
 DIIS: error= 9.03D-07 at cycle   8 NSaved=   8.
 NSaved= 8 IEnMin= 8 EnMin= -33.6613708604942     IErMin= 8 ErrMin= 9.03D-07
 ErrMax= 9.03D-07  0.00D+00 EMaxC= 1.00D-01 BMatC= 1.93D-11 BMatP= 5.12D-10
 IDIUse=1 WtCom= 1.00D+00 WtEn= 0.00D+00
 Coeff-Com: -0.579D-04 0.125D-04 0.680D-03-0.297D-02 0.128D-02 0.330D-01
 Coeff-Com: -0.265D+00 0.123D+01
 Coeff:     -0.579D-04 0.125D-04 0.680D-03-0.297D-02 0.128D-02 0.330D-01
 Coeff:     -0.265D+00 0.123D+01
 Gap=     0.622 Goal=   None    Shift=    0.000
 RMSDP=4.22D-07 MaxDP=2.75D-06 DE=-1.40D-09 OVMax= 3.90D-06

 Cycle   9  Pass 1  IDiag  1:
 E= -33.6613708605432     Delta-E=       -0.000000000049 Rises=F Damp=F
 DIIS: error= 1.94D-07 at cycle   9 NSaved=   9.
 NSaved= 9 IEnMin= 9 EnMin= -33.6613708605432     IErMin= 9 ErrMin= 1.94D-07
 ErrMax= 1.94D-07  0.00D+00 EMaxC= 1.00D-01 BMatC= 8.27D-13 BMatP= 1.93D-11
 IDIUse=1 WtCom= 1.00D+00 WtEn= 0.00D+00
 Coeff-Com:  0.103D-04 0.345D-05-0.918D-04 0.352D-03-0.714D-03-0.358D-02
 Coeff-Com:  0.603D-01-0.455D+00 0.140D+01
 Coeff:      0.103D-04 0.345D-05-0.918D-04 0.352D-03-0.714D-03-0.358D-02
 Coeff:      0.603D-01-0.455D+00 0.140D+01
 Gap=     0.622 Goal=   None    Shift=    0.000
 RMSDP=1.22D-07 MaxDP=6.14D-07 DE=-4.90D-11 OVMax= 1.04D-06

 Cycle  10  Pass 1  IDiag  1:
 E= -33.6613708605457     Delta-E=       -0.000000000003 Rises=F Damp=F
 DIIS: error= 2.56D-08 at cycle  10 NSaved=  10.
 NSaved=10 IEnMin=10 EnMin= -33.6613708605457     IErMin=10 ErrMin= 2.56D-08
 ErrMax= 2.56D-08  0.00D+00 EMaxC= 1.00D-01 BMatC= 1.73D-14 BMatP= 8.27D-13
 IDIUse=1 WtCom= 1.00D+00 WtEn= 0.00D+00
 Coeff-Com:  0.154D-06-0.245D-05-0.119D-04 0.512D-04 0.238D-03-0.504D-03
 Coeff-Com: -0.866D-02 0.970D-01-0.417D+00 0.133D+01
 Coeff:      0.154D-06-0.245D-05-0.119D-04 0.512D-04 0.238D-03-0.504D-03
 Coeff:     -0.866D-02 0.970D-01-0.417D+00 0.133D+01
 Gap=     0.622 Goal=   None    Shift=    0.000
 RMSDP=1.97D-08 MaxDP=1.08D-07 DE=-2.54D-12 OVMax= 1.55D-07

 Cycle  11  Pass 1  IDiag  1:
 E= -33.6613708605457     Delta-E=       -0.000000000000 Rises=F Damp=F
 DIIS: error= 2.52D-09 at cycle  11 NSaved=  11.
 NSaved=11 IEnMin=11 EnMin= -33.6613708605457     IErMin=11 ErrMin= 2.52D-09
 ErrMax= 2.52D-09  0.00D+00 EMaxC= 1.00D-01 BMatC= 2.20D-16 BMatP= 1.73D-14
 IDIUse=1 WtCom= 1.00D+00 WtEn= 0.00D+00
 Coeff-Com: -0.114D-06 0.596D-06 0.372D-05-0.161D-04-0.601D-04 0.164D-03
 Coeff-Com:  0.179D-02-0.226D-01 0.104D+00-0.400D+00 0.132D+01
 Coeff:     -0.114D-06 0.596D-06 0.372D-05-0.161D-04-0.601D-04 0.164D-03
 Coeff:      0.179D-02-0.226D-01 0.104D+00-0.400D+00 0.132D+01
 Gap=     0.622 Goal=   None    Shift=    0.000
 RMSDP=2.45D-09 MaxDP=1.72D-08 DE=-2.84D-14 OVMax= 1.92D-08

 SCF Done:  E(RHF) =  -33.6613708605     A.U. after   11 cycles
            NFock= 11  Conv=0.25D-08     -V/T= 2.2516
 KE= 2.689514558566D+01 PE=-1.345146689691D+02 EE= 4.758356002769D+01
 Leave Link  502 at Sun Dec 10 06:32:54 2023, MaxMem=   536870912 cpu:               0.3 elap:               0.1
 (Enter /usr/site/hpc/x86_64/glibc-2.17/broadwell/gaussian/g16_a.03/pgi-16.5/g16/l801.exe)
 Windowed orbitals will be sorted by symmetry type.
 Range of M.O.s used for correlation:     1    24
 NBasis=    24 NAE=     8 NBE=     8 NFC=     0 NFV=     0
 NROrb=     24 NOA=     8 NOB=     8 NVA=    16 NVB=    16
 Leave Link  801 at Sun Dec 10 06:32:54 2023, MaxMem=   536870912 cpu:               0.1 elap:               0.0
 (Enter /usr/site/hpc/x86_64/glibc-2.17/broadwell/gaussian/g16_a.03/pgi-16.5/g16/l804.exe)
 Closed-shell transformation, MDV=   536870912 ITran=4 ISComp=2.
 Unit  1 TFree=       1025975 TCopy=        210600.
 Semi-Direct transformation.
 ModeAB=           2 MOrb=             8 LenV=     536741580
 LASXX=        22470 LTotXX=       22470 LenRXX=       22470
 LTotAB=       26208 MaxLAS=       57600 LenRXY=       57600
 NonZer=       62208 LenScr=      524288 LnRSAI=           0
 LnScr1=           0 LExtra=           0 Total=       604358
 MaxDsk=          -1 SrtSym=           F ITran=            4
 DoSDTr:  NPSUse=  4
 JobTyp=0 Pass  1:  I=   1 to   8.
 (rs|ai) integrals will be sorted in core.
 Complete sort for first half transformation.
 First half transformation complete.
 Complete sort for second half transformation.
 Second half transformation complete.
 Spin components of T(2) and E(2):
     alpha-alpha T2 =       0.9187810812D-02 E2=     -0.2650715226D-01
     alpha-beta  T2 =       0.5895744489D-01 E2=     -0.1760677728D+00
     beta-beta   T2 =       0.9187810812D-02 E2=     -0.2650715226D-01
 ANorm=    0.1037946562D+01
 E2 =    -0.2290820773D+00 EUMP2 =    -0.33890452937823D+02
 Leave Link  804 at Sun Dec 10 06:32:54 2023, MaxMem=   536870912 cpu:               0.2 elap:               0.1
 (Enter /usr/site/hpc/x86_64/glibc-2.17/broadwell/gaussian/g16_a.03/pgi-16.5/g16/l913.exe)
 CIDS:  MDV=   536870912.
 IFCWin=0 IBDFC=1 NFBD=     0     0 NFCmp=     0     0 NFFFC=     0     0
 Using DD3R+UMP44R for 1st iteration.
 Using DD4RQ for 2nd and later iterations.
 Keep R2 and R3 ints in memory in symmetry-blocked form, NReq=865275.
 FoFCou: FMM=F IPFlag=           0 FMFlag=           0 FMFlg1=           0
         NFxFlg=           0 DoJE=F BraDBF=F KetDBF=F FulRan=T
         wScrn=  0.000000 ICntrl=       600 IOpCl=  0 I1Cent=           0 NGrid=           0
         NMat0=    1 NMatS0=    300 NMatT0=    0 NMatD0=    1 NMtDS0=    0 NMtDT0=    0
 Petite list used in FoFCou.
 CIDS: In Core Option IDoMem=           1.
 CCSD(T)
 =======
 Iterations=  50 Convergence= 0.100D-06
 Produce multiple copies of IABC intergrals
 Iteration Nr.   1
 **********************
 DD1Dir will call FoFMem   1 times, MxPair=        72
 NAB=    36 NAA=     0 NBB=     0.
 MP4(R+Q)= -0.65429149D-03
 Maximum subspace dimension=  5
 A-vector RMS=  5.8966865D-03 Max=  1.3037972D-02 conv= 1.00D-05.
 RLE energy=       -0.2341273880
 E3=       -0.45580932D-02        EUMP3=      -0.33895011031D+02
 E4(DQ)=   -0.56231054D-02        UMP4(DQ)=   -0.33900634136D+02
 E4(SDQ)=  -0.77639021D-02        UMP4(SDQ)=  -0.33902774933D+02
 VARIATIONAL ENERGIES WITH THE FIRST-ORDER WAVEFUNCTION:
 DE(Corr)= -0.23401900     E(Corr)=     -33.895389864    
 NORM(A)=   0.10409860D+01
 Iteration Nr.   2
 **********************
 DD1Dir will call FoFMem   1 times, MxPair=        72
 NAB=    36 NAA=     0 NBB=     0.
 A-vector RMS=  9.4809312D-04 Max=  2.1805789D-03 conv= 1.00D-05.
 RLE energy=       -0.2416979415
 DE(Corr)= -0.23989650     E(CORR)=     -33.901267363     Delta=-5.88D-03
 NORM(A)=   0.10445988D+01
 Iteration Nr.   3
 **********************
 DD1Dir will call FoFMem   1 times, MxPair=        72
 NAB=    36 NAA=     0 NBB=     0.
 A-vector RMS=  3.9621732D-04 Max=  1.1489672D-03 conv= 1.00D-05.
 RLE energy=       -0.2422290725
 DE(Corr)= -0.24178745     E(CORR)=     -33.903158314     Delta=-1.89D-03
 NORM(A)=   0.10451316D+01
 Iteration Nr.   4
 **********************
 DD1Dir will call FoFMem   1 times, MxPair=        72
 NAB=    36 NAA=     0 NBB=     0.
 A-vector RMS=  8.5946153D-05 Max=  2.0310391D-04 conv= 1.00D-05.
 RLE energy=       -0.2422769535
 DE(Corr)= -0.24224359     E(CORR)=     -33.903614449     Delta=-4.56D-04
 NORM(A)=   0.10451955D+01
 Iteration Nr.   5
 **********************
 DD1Dir will call FoFMem   1 times, MxPair=        72
 NAB=    36 NAA=     0 NBB=     0.
 A-vector RMS=  4.4274678D-05 Max=  1.8687200D-04 conv= 1.00D-05.
 RLE energy=       -0.2422772167
 DE(Corr)= -0.24227388     E(CORR)=     -33.903644744     Delta=-3.03D-05
 NORM(A)=   0.10452037D+01
 Iteration Nr.   6
 **********************
 DD1Dir will call FoFMem   1 times, MxPair=        72
 NAB=    36 NAA=     0 NBB=     0.
 A-vector RMS=  1.5027994D-05 Max=  6.5431514D-05 conv= 1.00D-05.
 RLE energy=       -0.2422735003
 DE(Corr)= -0.24227664     E(CORR)=     -33.903647500     Delta=-2.76D-06
 NORM(A)=   0.10452051D+01
 Iteration Nr.   7
 **********************
 DD1Dir will call FoFMem   1 times, MxPair=        72
 NAB=    36 NAA=     0 NBB=     0.
 A-vector RMS=  6.5350724D-06 Max=  2.4691333D-05 conv= 1.00D-05.
 RLE energy=       -0.2422753006
 DE(Corr)= -0.24227646     E(CORR)=     -33.903647320     Delta= 1.81D-07
 NORM(A)=   0.10452068D+01
 Iteration Nr.   8
 **********************
 DD1Dir will call FoFMem   1 times, MxPair=        72
 NAB=    36 NAA=     0 NBB=     0.
 A-vector RMS=  2.3665348D-06 Max=  9.3777231D-06 conv= 1.00D-05.
 RLE energy=       -0.2422758301
 DE(Corr)= -0.24227598     E(CORR)=     -33.903646844     Delta= 4.76D-07
 NORM(A)=   0.10452076D+01
 Iteration Nr.   9
 **********************
 DD1Dir will call FoFMem   1 times, MxPair=        72
 NAB=    36 NAA=     0 NBB=     0.
 A-vector RMS=  5.4120886D-07 Max=  2.0505633D-06 conv= 1.00D-05.
 RLE energy=       -0.2422761212
 DE(Corr)= -0.24227615     E(CORR)=     -33.903647010     Delta=-1.66D-07
 NORM(A)=   0.10452079D+01
 Iteration Nr.  10
 **********************
 DD1Dir will call FoFMem   1 times, MxPair=        72
 NAB=    36 NAA=     0 NBB=     0.
 A-vector RMS=  1.7717698D-07 Max=  7.0030729D-07 conv= 1.00D-05.
 RLE energy=       -0.2422763024
 DE(Corr)= -0.24227627     E(CORR)=     -33.903647127     Delta=-1.17D-07
 NORM(A)=   0.10452080D+01
 Iteration Nr.  11
 **********************
 DD1Dir will call FoFMem   1 times, MxPair=        72
 NAB=    36 NAA=     0 NBB=     0.
 A-vector RMS=  4.7729549D-08 Max=  2.2654418D-07 conv= 1.00D-05.
 RLE energy=       -0.2422763494
 DE(Corr)= -0.24227633     E(CORR)=     -33.903647194     Delta=-6.67D-08
 NORM(A)=   0.10452081D+01
 CI/CC converged in   11 iterations to DelEn=-6.67D-08 Conv= 1.00D-07 ErrA1= 4.77D-08 Conv= 1.00D-05
 Wavefunction amplitudes converged. E(Corr)=     -33.903647194    
 Largest amplitude= 4.84D-02
 IPart=  1 IA=    2   12.50% done.
 IPart=  3 IA=    3   24.17% done.
 IPart=  4 IA=    4   35.00% done.
 IPart=  4 IA=    5   45.00% done.
 IPart=  3 IA=    6   54.17% done.
 IPart=  2 IA=    7   62.50% done.
 IPart=  1 IA=    8   70.00% done.
 IPart=  3 IA=   10   82.50% done.
 IPart=  2 IA=   12   91.67% done.
 Time for triples=        0.26 seconds.
 T4(CCSD)= -0.34327925D-02
 T5(CCSD)=  0.54269837D-03
 CCSD(T)= -0.33906537288D+02
 Discarding MO integrals.
 Leave Link  913 at Sun Dec 10 06:32:54 2023, MaxMem=   536870912 cpu:               1.0 elap:               0.3
 (Enter /usr/site/hpc/x86_64/glibc-2.17/broadwell/gaussian/g16_a.03/pgi-16.5/g16/l601.exe)
 Copying SCF densities to generalized density rwf, IOpCl= 0 IROHF=0.

 **********************************************************************

            Population analysis using the SCF density.

 **********************************************************************

 Orbital symmetries:
       Occupied  (A') (A') (A') (A') (A') (A") (A') (A")
       Virtual   (A') (A') (A') (A') (A") (A') (A') (A") (A') (A')
                 (A') (A') (A') (A') (A') (A')
 The electronic state is 1-A'.
 Alpha  occ. eigenvalues --   -1.39804  -1.30264  -0.75225  -0.69294  -0.59146
 Alpha  occ. eigenvalues --   -0.54523  -0.49521  -0.44843
 Alpha virt. eigenvalues --    0.17375   0.27346   0.27516   0.49847   0.74684
 Alpha virt. eigenvalues --    0.75518   0.85430   0.87862   0.97837   0.98293
 Alpha virt. eigenvalues --    1.14941   1.18460   1.23500   1.36820   2.59027
 Alpha virt. eigenvalues --    3.64158
          Condensed to atoms (all electrons):
               1          2          3          4          5          6
     1  O    6.244567   0.306284   0.262829  -0.031376   0.000419   0.000359
     2  H    0.306284   0.348255  -0.031696  -0.065325   0.003881   0.003532
     3  H    0.262829  -0.031696   0.424536   0.003711  -0.000004  -0.000135
     4  O   -0.031376  -0.065325   0.003711   6.375980   0.272016   0.269924
     5  H    0.000419   0.003881  -0.000004   0.272016   0.326275  -0.022494
     6  H    0.000359   0.003532  -0.000135   0.269924  -0.022494   0.336531
 Mulliken charges:
               1
     1  O   -0.783083
     2  H    0.435068
     3  H    0.340759
     4  O   -0.824930
     5  H    0.419905
     6  H    0.412282
 Sum of Mulliken charges =   0.00000
 Mulliken charges with hydrogens summed into heavy atoms:
               1
     1  O   -0.007257
     4  O    0.007257
 Electronic spatial extent (au):  <R**2>=            142.2544
 Charge=              0.0000 electrons
 Dipole moment (field-independent basis, Debye):
    X=             -1.9455    Y=             -4.8845    Z=             -0.0000  Tot=              5.2577
 Quadrupole moment (field-independent basis, Debye-Ang):
   XX=             -9.3611   YY=             -9.2215   ZZ=            -15.0190
   XY=             -4.0604   XZ=             -0.0000   YZ=              0.0000
 Traceless Quadrupole moment (field-independent basis, Debye-Ang):
   XX=              1.8394   YY=              1.9791   ZZ=             -3.8184
   XY=             -4.0604   XZ=             -0.0000   YZ=              0.0000
 Octapole moment (field-independent basis, Debye-Ang**2):
  XXX=             -1.4570  YYY=            -23.2269  ZZZ=             -0.0000  XYY=             -6.7132
  XXY=             -3.9067  XXZ=             -0.0000  XZZ=             -0.3617  YZZ=             -1.0766
  YYZ=             -0.0000  XYZ=             -0.0000
 Hexadecapole moment (field-independent basis, Debye-Ang**3):
 XXXX=            -11.8474 YYYY=           -130.5710 ZZZZ=            -12.2954 XXXY=             -1.5927
 XXXZ=             -0.0000 YYYX=            -10.9259 YYYZ=             -0.0000 ZZZX=             -0.0000
 ZZZY=             -0.0000 XXYY=            -16.4993 XXZZ=             -4.5637 YYZZ=            -31.4563
 XXYZ=             -0.0000 YYXZ=             -0.0000 ZZXY=              0.4417
 N-N= 2.637459249517D+01 E-N=-1.345146689736D+02  KE= 2.689514558566D+01
 Symmetry A'   KE= 1.806688106784D+01
 Symmetry A"   KE= 8.828264517821D+00
 Leave Link  601 at Sun Dec 10 06:32:54 2023, MaxMem=   536870912 cpu:               0.1 elap:               0.0
 (Enter /usr/site/hpc/x86_64/glibc-2.17/broadwell/gaussian/g16_a.03/pgi-16.5/g16/l9999.exe)
 1\1\GINC-N044\SP\RCCSD(T)-FC\CEP-31G\H4O2\ROOT\10-Dec-2023\0\\#p CCSD(
 T)/CEP-31G\\H2O_H2O_765\\0,1\O,0,0.,-0.009833,0.\H,0,-0.799571,-0.5809
 65,0.\H,0,0.799571,-0.580965,0.\O,0,-2.155828,-1.539526,0.\H,0,-3.0749
 25,-1.19201,0.\H,0,-2.186489,-2.521649,0.\\Version=ES64L-G16RevA.03\St
 ate=1-A'\HF=-33.6613709\MP2=-33.8904529\MP3=-33.895011\MP4D=-33.899979
 8\MP4DQ=-33.9006341\MP4SDQ=-33.9027749\CCSD=-33.9036472\CCSD(T)=-33.90
 65373\RMSD=2.450e-09\PG=CS [SG(H4O2)]\\@


 NOTHING PUZZLES ME MORE THAN TIME AND SPACE; AND YET NOTHING TROUBLES ME LESS
                                                          -- CHARLES LAMB (1810)
 Job cpu time:       0 days  0 hours  0 minutes  3.4 seconds.
 Elapsed time:       0 days  0 hours  0 minutes  1.0 seconds.
 File lengths (MBytes):  RWF=     72 Int=      0 D2E=      0 Chk=      8 Scr=      8
 Normal termination of Gaussian 16 at Sun Dec 10 06:32:54 2023.
