 Entering Gaussian System, Link 0=g16
 Input=H2O_H2O_4220.com
 Output=H2O_H2O_4220.log
 Initial command:
 /usr/site/hpc/x86_64/glibc-2.17/broadwell/gaussian/g16_a.03/pgi-16.5/g16/l1.exe "/gpfs/gpfs1/scratch/c7441090/OH Coord/Gau-1275032.inp" -scrdir="/gpfs/gpfs1/scratch/c7441090/OH Coord/"
 Entering Link 1 = /usr/site/hpc/x86_64/glibc-2.17/broadwell/gaussian/g16_a.03/pgi-16.5/g16/l1.exe PID=   1275033.
  
 Copyright (c) 1988,1990,1992,1993,1995,1998,2003,2009,2016,
            Gaussian, Inc.  All Rights Reserved.
  
 This is part of the Gaussian(R) 16 program.  It is based on
 the Gaussian(R) 09 system (copyright 2009, Gaussian, Inc.),
 the Gaussian(R) 03 system (copyright 2003, Gaussian, Inc.),
 the Gaussian(R) 98 system (copyright 1998, Gaussian, Inc.),
 the Gaussian(R) 94 system (copyright 1995, Gaussian, Inc.),
 the Gaussian 92(TM) system (copyright 1992, Gaussian, Inc.),
 the Gaussian 90(TM) system (copyright 1990, Gaussian, Inc.),
 the Gaussian 88(TM) system (copyright 1988, Gaussian, Inc.),
 the Gaussian 86(TM) system (copyright 1986, Carnegie Mellon
 University), and the Gaussian 82(TM) system (copyright 1983,
 Carnegie Mellon University). Gaussian is a federally registered
 trademark of Gaussian, Inc.
  
 This software contains proprietary and confidential information,
 including trade secrets, belonging to Gaussian, Inc.
  
 This software is provided under written license and may be
 used, copied, transmitted, or stored only in accord with that
 written license.
  
 The following legend is applicable only to US Government
 contracts under FAR:
  
                    RESTRICTED RIGHTS LEGEND
  
 Use, reproduction and disclosure by the US Government is
 subject to restrictions as set forth in subparagraphs (a)
 and (c) of the Commercial Computer Software - Restricted
 Rights clause in FAR 52.227-19.
  
 Gaussian, Inc.
 340 Quinnipiac St., Bldg. 40, Wallingford CT 06492
  
  
 ---------------------------------------------------------------
 Warning -- This program may not be used in any manner that
 competes with the business of Gaussian, Inc. or will provide
 assistance to any competitor of Gaussian, Inc.  The licensee
 of this program is prohibited from giving any competitor of
 Gaussian, Inc. access to this program.  By using this program,
 the user acknowledges that Gaussian, Inc. is engaged in the
 business of creating and licensing software in the field of
 computational chemistry and represents and warrants to the
 licensee that it is not a competitor of Gaussian, Inc. and that
 it will not use this program in any manner prohibited above.
 ---------------------------------------------------------------
  

 Cite this work as:
 Gaussian 16, Revision A.03,
 M. J. Frisch, G. W. Trucks, H. B. Schlegel, G. E. Scuseria, 
 M. A. Robb, J. R. Cheeseman, G. Scalmani, V. Barone, 
 G. A. Petersson, H. Nakatsuji, X. Li, M. Caricato, A. V. Marenich, 
 J. Bloino, B. G. Janesko, R. Gomperts, B. Mennucci, H. P. Hratchian, 
 J. V. Ortiz, A. F. Izmaylov, J. L. Sonnenberg, D. Williams-Young, 
 F. Ding, F. Lipparini, F. Egidi, J. Goings, B. Peng, A. Petrone, 
 T. Henderson, D. Ranasinghe, V. G. Zakrzewski, J. Gao, N. Rega, 
 G. Zheng, W. Liang, M. Hada, M. Ehara, K. Toyota, R. Fukuda, 
 J. Hasegawa, M. Ishida, T. Nakajima, Y. Honda, O. Kitao, H. Nakai, 
 T. Vreven, K. Throssell, J. A. Montgomery, Jr., J. E. Peralta, 
 F. Ogliaro, M. J. Bearpark, J. J. Heyd, E. N. Brothers, K. N. Kudin, 
 V. N. Staroverov, T. A. Keith, R. Kobayashi, J. Normand, 
 K. Raghavachari, A. P. Rendell, J. C. Burant, S. S. Iyengar, 
 J. Tomasi, M. Cossi, J. M. Millam, M. Klene, C. Adamo, R. Cammi, 
 J. W. Ochterski, R. L. Martin, K. Morokuma, O. Farkas, 
 J. B. Foresman, and D. J. Fox, Gaussian, Inc., Wallingford CT, 2016.
 
 ******************************************
 Gaussian 16:  ES64L-G16RevA.03 25-Dec-2016
                10-Dec-2023 
 ******************************************
 %NProcShared=4
 Will use up to    4 processors via shared memory.
 %Mem=4GB
 %Chk=H2O_H2O_4220.chk
 ------------------
 #p CCSD(T)/CEP-31G
 ------------------
 1/38=1,172=1/1;
 2/12=2,17=6,18=5,40=1/2;
 3/5=9,6=1,11=9,25=1,30=1/1,2,3;
 4//1;
 5/5=2,38=5/2;
 8/6=4,9=120000,10=1/1,4;
 9/5=7,14=2/13;
 6/7=2,8=2,9=2,10=2/1;
 99/5=1,9=1/99;
 Leave Link    1 at Sun Dec 10 06:48:56 2023, MaxMem=   536870912 cpu:               0.2 elap:               0.1
 (Enter /usr/site/hpc/x86_64/glibc-2.17/broadwell/gaussian/g16_a.03/pgi-16.5/g16/l101.exe)
 ------------
 H2O_H2O_4220
 ------------
 Symbolic Z-matrix:
 Charge =  0 Multiplicity = 1
 O                     0.       -0.00983   0. 
 H                    -0.79957  -0.58097   0. 
 H                     0.79957  -0.58097   0. 
 O                    -4.39674  -3.13634   0. 
 H                    -5.15535  -2.51183   0. 
 H                    -4.74146  -4.05649   0. 
 
 ITRead=  0  0  0  0  0  0
 MicOpt= -1 -1 -1 -1 -1 -1
 NAtoms=      6 NQM=        6 NQMF=       0 NMMI=      0 NMMIF=      0
                NMic=       0 NMicF=      0.
                    Isotopes and Nuclear Properties:
 (Nuclear quadrupole moments (NQMom) in fm**2, nuclear magnetic moments (NMagM)
  in nuclear magnetons)

  Atom         1           2           3           4           5           6
 IAtWgt=          16           1           1          16           1           1
 AtmWgt=  15.9949146   1.0078250   1.0078250  15.9949146   1.0078250   1.0078250
 NucSpn=           0           1           1           0           1           1
 AtZEff=  -0.0000000  -0.0000000  -0.0000000  -0.0000000  -0.0000000  -0.0000000
 NQMom=    0.0000000   0.0000000   0.0000000   0.0000000   0.0000000   0.0000000
 NMagM=    0.0000000   2.7928460   2.7928460   0.0000000   2.7928460   2.7928460
 AtZNuc=   8.0000000   1.0000000   1.0000000   8.0000000   1.0000000   1.0000000
 Leave Link  101 at Sun Dec 10 06:48:56 2023, MaxMem=   536870912 cpu:               0.3 elap:               0.1
 (Enter /usr/site/hpc/x86_64/glibc-2.17/broadwell/gaussian/g16_a.03/pgi-16.5/g16/l202.exe)
                          Input orientation:                          
 ---------------------------------------------------------------------
 Center     Atomic      Atomic             Coordinates (Angstroms)
 Number     Number       Type             X           Y           Z
 ---------------------------------------------------------------------
      1          8           0        0.000000   -0.009833    0.000000
      2          1           0       -0.799571   -0.580965    0.000000
      3          1           0        0.799571   -0.580965    0.000000
      4          8           0       -4.396738   -3.136340    0.000000
      5          1           0       -5.155353   -2.511833    0.000000
      6          1           0       -4.741465   -4.056487    0.000000
 ---------------------------------------------------------------------
                    Distance matrix (angstroms):
                    1          2          3          4          5
     1  O    0.000000
     2  H    0.982601   0.000000
     3  H    0.982601   1.599142   0.000000
     4  O    5.395030   4.412432   5.790645   0.000000
     5  H    5.730416   4.764566   6.260141   0.982602   0.000000
     6  H    6.233530   5.255262   6.540821   0.982602   1.599143
                    6
     6  H    0.000000
 Stoichiometry    H4O2
 Framework group  CS[SG(H4O2)]
 Deg. of freedom     9
 Full point group                 CS      NOp   2
 Largest Abelian subgroup         CS      NOp   2
 Largest concise Abelian subgroup C1      NOp   1
                         Standard orientation:                         
 ---------------------------------------------------------------------
 Center     Atomic      Atomic             Coordinates (Angstroms)
 Number     Number       Type             X           Y           Z
 ---------------------------------------------------------------------
      1          8           0        0.026622    2.784139   -0.000000
      2          1           0        0.024536    1.801539   -0.000000
      3          1           0       -0.902193    3.104777    0.000000
      4          8           0        0.026622   -2.610892   -0.000000
      5          1           0        0.975200   -2.867221   -0.000000
      6          1           0       -0.523487   -3.425071    0.000000
 ---------------------------------------------------------------------
 Rotational constants (GHZ):         250.1203181           1.8991260           1.8848149
 Leave Link  202 at Sun Dec 10 06:48:56 2023, MaxMem=   536870912 cpu:               0.0 elap:               0.0
 (Enter /usr/site/hpc/x86_64/glibc-2.17/broadwell/gaussian/g16_a.03/pgi-16.5/g16/l301.exe)
 Standard basis: CEP-31G (6D, 10F)
 Ernie: Thresh=  0.10000D-02 Tol=  0.10000D-05 Strict=F.
 There are    20 symmetry adapted cartesian basis functions of A'  symmetry.
 There are     4 symmetry adapted cartesian basis functions of A"  symmetry.
 There are    20 symmetry adapted basis functions of A'  symmetry.
 There are     4 symmetry adapted basis functions of A"  symmetry.
    24 basis functions,    48 primitive gaussians,    24 cartesian basis functions
     8 alpha electrons        8 beta electrons
       nuclear repulsion energy        19.8265535664 Hartrees.
 IExCor=    0 DFT=F Ex=HF Corr=None ExCW=0 ScaHFX=  1.000000
 ScaDFX=  1.000000  1.000000  1.000000  1.000000 ScalE2=  1.000000  1.000000
 IRadAn=      5 IRanWt=     -1 IRanGd=            0 ICorTp=0 IEmpDi=  4
 NAtoms=    6 NActive=    6 NUniq=    6 SFac= 1.00D+00 NAtFMM=   60 NAOKFM=F Big=F
 Integral buffers will be    131072 words long.
 Raffenetti 1 integral format.
 Two-electron integral symmetry is turned on.
 Leave Link  301 at Sun Dec 10 06:48:57 2023, MaxMem=   536870912 cpu:               0.2 elap:               0.1
 (Enter /usr/site/hpc/x86_64/glibc-2.17/broadwell/gaussian/g16_a.03/pgi-16.5/g16/l302.exe)
 NPDir=0 NMtPBC=     1 NCelOv=     1 NCel=       1 NClECP=     1 NCelD=      1
         NCelK=      1 NCelE2=     1 NClLst=     1 CellRange=     0.0.
 One-electron integrals computed using PRISM.
 One-electron integral symmetry used in STVInt
   2 Symmetry operations used in ECPInt.
 ECPInt:  NShTT=      78 NPrTT=     318 LenC2=      79 LenP2D=     256.
 LDataN:  DoStor=T MaxTD1= 2 Len=   12
 NBasis=    24 RedAO= T EigKep=  3.84D-02  NBF=    20     4
 NBsUse=    24 1.00D-06 EigRej= -1.00D+00 NBFU=    20     4
 Leave Link  302 at Sun Dec 10 06:48:57 2023, MaxMem=   536870912 cpu:               0.3 elap:               0.1
 (Enter /usr/site/hpc/x86_64/glibc-2.17/broadwell/gaussian/g16_a.03/pgi-16.5/g16/l303.exe)
 DipDrv:  MaxL=1.
 Leave Link  303 at Sun Dec 10 06:48:57 2023, MaxMem=   536870912 cpu:               0.1 elap:               0.0
 (Enter /usr/site/hpc/x86_64/glibc-2.17/broadwell/gaussian/g16_a.03/pgi-16.5/g16/l401.exe)
 ExpMin= 1.78D-01 ExpMax= 1.92D+01 ExpMxC= 1.92D+01 IAcc=3 IRadAn=         5 AccDes= 0.00D+00
 Harris functional with IExCor=  205 and IRadAn=       5 diagonalized for initial guess.
 HarFok:  IExCor=  205 AccDes= 0.00D+00 IRadAn=         5 IDoV= 1 UseB2=F ITyADJ=14
 ICtDFT=  3500011 ScaDFX=  1.000000  1.000000  1.000000  1.000000
 FoFCou: FMM=F IPFlag=           0 FMFlag=      100000 FMFlg1=           0
         NFxFlg=           0 DoJE=T BraDBF=F KetDBF=T FulRan=T
         wScrn=  0.000000 ICntrl=       500 IOpCl=  0 I1Cent=   200000004 NGrid=           0
         NMat0=    1 NMatS0=      1 NMatT0=    0 NMatD0=    1 NMtDS0=    0 NMtDT0=    0
 Petite list used in FoFCou.
 Harris En= -34.4763658078680    
 JPrj=0 DoOrth=F DoCkMO=F.
 Initial guess orbital symmetries:
       Occupied  (A') (A') (A') (A') (A') (A') (A") (A")
       Virtual   (A') (A') (A') (A') (A") (A") (A') (A') (A') (A')
                 (A') (A') (A') (A') (A') (A')
 The electronic state of the initial guess is 1-A'.
 Leave Link  401 at Sun Dec 10 06:48:57 2023, MaxMem=   536870912 cpu:               0.4 elap:               0.1
 (Enter /usr/site/hpc/x86_64/glibc-2.17/broadwell/gaussian/g16_a.03/pgi-16.5/g16/l502.exe)
 Keep R1 ints in memory in symmetry-blocked form, NReq=851950.
 FoFCou: FMM=F IPFlag=           0 FMFlag=           0 FMFlg1=           0
         NFxFlg=           0 DoJE=F BraDBF=F KetDBF=F FulRan=T
         wScrn=  0.000000 ICntrl=       600 IOpCl=  0 I1Cent=           0 NGrid=           0
         NMat0=    1 NMatS0=    300 NMatT0=    0 NMatD0=    1 NMtDS0=    0 NMtDT0=    0
 Petite list used in FoFCou.
 Closed shell SCF:
 Using DIIS extrapolation, IDIIS=  1040.
 NGot=   536870912 LenX=   536840576 LenY=   536839559
 Requested convergence on RMS density matrix=1.00D-08 within 128 cycles.
 Requested convergence on MAX density matrix=1.00D-06.
 Requested convergence on             energy=1.00D-06.
 No special actions if energy rises.

 Cycle   1  Pass 1  IDiag  1:
 E= -33.5603904434869    
 DIIS: error= 6.83D-02 at cycle   1 NSaved=   1.
 NSaved= 1 IEnMin= 1 EnMin= -33.5603904434869     IErMin= 1 ErrMin= 6.83D-02
 ErrMax= 6.83D-02  0.00D+00 EMaxC= 1.00D-01 BMatC= 1.01D-01 BMatP= 1.01D-01
 IDIUse=3 WtCom= 3.17D-01 WtEn= 6.83D-01
 Coeff-Com:  0.100D+01
 Coeff-En:   0.100D+01
 Coeff:      0.100D+01
 Gap=     0.604 Goal=   None    Shift=    0.000
 GapD=    0.604 DampG=2.000 DampE=0.500 DampFc=1.0000 IDamp=-1.
 RMSDP=1.47D-02 MaxDP=1.17D-01              OVMax= 9.80D-02

 Cycle   2  Pass 1  IDiag  1:
 E= -33.6225542579722     Delta-E=       -0.062163814485 Rises=F Damp=F
 DIIS: error= 3.71D-02 at cycle   2 NSaved=   2.
 NSaved= 2 IEnMin= 2 EnMin= -33.6225542579722     IErMin= 2 ErrMin= 3.71D-02
 ErrMax= 3.71D-02  0.00D+00 EMaxC= 1.00D-01 BMatC= 3.78D-02 BMatP= 1.01D-01
 IDIUse=3 WtCom= 6.29D-01 WtEn= 3.71D-01
 Coeff-Com:  0.377D+00 0.623D+00
 Coeff-En:   0.110D+00 0.890D+00
 Coeff:      0.278D+00 0.722D+00
 Gap=     0.693 Goal=   None    Shift=    0.000
 RMSDP=6.36D-03 MaxDP=5.38D-02 DE=-6.22D-02 OVMax= 3.55D-02

 Cycle   3  Pass 1  IDiag  1:
 E= -33.6527929513496     Delta-E=       -0.030238693377 Rises=F Damp=F
 DIIS: error= 7.06D-03 at cycle   3 NSaved=   3.
 NSaved= 3 IEnMin= 3 EnMin= -33.6527929513496     IErMin= 3 ErrMin= 7.06D-03
 ErrMax= 7.06D-03  0.00D+00 EMaxC= 1.00D-01 BMatC= 8.73D-04 BMatP= 3.78D-02
 IDIUse=3 WtCom= 9.29D-01 WtEn= 7.06D-02
 Coeff-Com: -0.114D+00-0.175D-01 0.113D+01
 Coeff-En:   0.000D+00 0.000D+00 0.100D+01
 Coeff:     -0.106D+00-0.163D-01 0.112D+01
 Gap=     0.686 Goal=   None    Shift=    0.000
 RMSDP=1.04D-03 MaxDP=8.94D-03 DE=-3.02D-02 OVMax= 7.91D-03

 Cycle   4  Pass 1  IDiag  1:
 E= -33.6536608790104     Delta-E=       -0.000867927661 Rises=F Damp=F
 DIIS: error= 7.34D-04 at cycle   4 NSaved=   4.
 NSaved= 4 IEnMin= 4 EnMin= -33.6536608790104     IErMin= 4 ErrMin= 7.34D-04
 ErrMax= 7.34D-04  0.00D+00 EMaxC= 1.00D-01 BMatC= 5.60D-06 BMatP= 8.73D-04
 IDIUse=3 WtCom= 9.93D-01 WtEn= 7.34D-03
 Coeff-Com:  0.439D-01-0.170D-01-0.532D+00 0.151D+01
 Coeff-En:   0.000D+00 0.000D+00 0.000D+00 0.100D+01
 Coeff:      0.436D-01-0.168D-01-0.528D+00 0.150D+01
 Gap=     0.687 Goal=   None    Shift=    0.000
 RMSDP=2.32D-04 MaxDP=1.99D-03 DE=-8.68D-04 OVMax= 9.38D-04

 Cycle   5  Pass 1  IDiag  1:
 E= -33.6536734598022     Delta-E=       -0.000012580792 Rises=F Damp=F
 DIIS: error= 4.79D-05 at cycle   5 NSaved=   5.
 NSaved= 5 IEnMin= 5 EnMin= -33.6536734598022     IErMin= 5 ErrMin= 4.79D-05
 ErrMax= 4.79D-05  0.00D+00 EMaxC= 1.00D-01 BMatC= 3.48D-08 BMatP= 5.60D-06
 IDIUse=1 WtCom= 1.00D+00 WtEn= 0.00D+00
 Coeff-Com: -0.703D-02 0.307D-02 0.865D-01-0.291D+00 0.121D+01
 Coeff:     -0.703D-02 0.307D-02 0.865D-01-0.291D+00 0.121D+01
 Gap=     0.688 Goal=   None    Shift=    0.000
 RMSDP=1.50D-05 MaxDP=1.43D-04 DE=-1.26D-05 OVMax= 9.62D-05

 Cycle   6  Pass 1  IDiag  1:
 E= -33.6536735451202     Delta-E=       -0.000000085318 Rises=F Damp=F
 DIIS: error= 1.04D-05 at cycle   6 NSaved=   6.
 NSaved= 6 IEnMin= 6 EnMin= -33.6536735451202     IErMin= 6 ErrMin= 1.04D-05
 ErrMax= 1.04D-05  0.00D+00 EMaxC= 1.00D-01 BMatC= 1.94D-09 BMatP= 3.48D-08
 IDIUse=1 WtCom= 1.00D+00 WtEn= 0.00D+00
 Coeff-Com:  0.122D-02-0.431D-03-0.147D-01 0.551D-01-0.395D+00 0.135D+01
 Coeff:      0.122D-02-0.431D-03-0.147D-01 0.551D-01-0.395D+00 0.135D+01
 Gap=     0.688 Goal=   None    Shift=    0.000
 RMSDP=3.71D-06 MaxDP=2.79D-05 DE=-8.53D-08 OVMax= 3.31D-05

 Cycle   7  Pass 1  IDiag  1:
 E= -33.6536735504559     Delta-E=       -0.000000005336 Rises=F Damp=F
 DIIS: error= 2.17D-06 at cycle   7 NSaved=   7.
 NSaved= 7 IEnMin= 7 EnMin= -33.6536735504559     IErMin= 7 ErrMin= 2.17D-06
 ErrMax= 2.17D-06  0.00D+00 EMaxC= 1.00D-01 BMatC= 1.16D-10 BMatP= 1.94D-09
 IDIUse=1 WtCom= 1.00D+00 WtEn= 0.00D+00
 Coeff-Com:  0.324D-03-0.165D-03-0.404D-02 0.127D-01-0.269D-01-0.130D+00
 Coeff-Com:  0.115D+01
 Coeff:      0.324D-03-0.165D-03-0.404D-02 0.127D-01-0.269D-01-0.130D+00
 Coeff:      0.115D+01
 Gap=     0.688 Goal=   None    Shift=    0.000
 RMSDP=9.18D-07 MaxDP=7.45D-06 DE=-5.34D-09 OVMax= 8.25D-06

 Cycle   8  Pass 1  IDiag  1:
 E= -33.6536735507215     Delta-E=       -0.000000000266 Rises=F Damp=F
 DIIS: error= 6.57D-07 at cycle   8 NSaved=   8.
 NSaved= 8 IEnMin= 8 EnMin= -33.6536735507215     IErMin= 8 ErrMin= 6.57D-07
 ErrMax= 6.57D-07  0.00D+00 EMaxC= 1.00D-01 BMatC= 1.90D-11 BMatP= 1.16D-10
 IDIUse=1 WtCom= 1.00D+00 WtEn= 0.00D+00
 Coeff-Com: -0.149D-05-0.213D-04-0.329D-04-0.800D-03 0.296D-01-0.174D+00
 Coeff-Com:  0.328D+00 0.818D+00
 Coeff:     -0.149D-05-0.213D-04-0.329D-04-0.800D-03 0.296D-01-0.174D+00
 Coeff:      0.328D+00 0.818D+00
 Gap=     0.688 Goal=   None    Shift=    0.000
 RMSDP=2.79D-07 MaxDP=1.52D-06 DE=-2.66D-10 OVMax= 2.33D-06

 Cycle   9  Pass 1  IDiag  1:
 E= -33.6536735507485     Delta-E=       -0.000000000027 Rises=F Damp=F
 DIIS: error= 1.52D-07 at cycle   9 NSaved=   9.
 NSaved= 9 IEnMin= 9 EnMin= -33.6536735507485     IErMin= 9 ErrMin= 1.52D-07
 ErrMax= 1.52D-07  0.00D+00 EMaxC= 1.00D-01 BMatC= 6.26D-13 BMatP= 1.90D-11
 IDIUse=1 WtCom= 1.00D+00 WtEn= 0.00D+00
 Coeff-Com:  0.412D-05 0.599D-05-0.236D-04 0.408D-03-0.120D-01 0.734D-01
 Coeff-Com: -0.178D+00-0.286D+00 0.140D+01
 Coeff:      0.412D-05 0.599D-05-0.236D-04 0.408D-03-0.120D-01 0.734D-01
 Coeff:     -0.178D+00-0.286D+00 0.140D+01
 Gap=     0.688 Goal=   None    Shift=    0.000
 RMSDP=1.15D-07 MaxDP=5.05D-07 DE=-2.70D-11 OVMax= 7.67D-07

 Cycle  10  Pass 1  IDiag  1:
 E= -33.6536735507500     Delta-E=       -0.000000000002 Rises=F Damp=F
 DIIS: error= 8.46D-09 at cycle  10 NSaved=  10.
 NSaved=10 IEnMin=10 EnMin= -33.6536735507500     IErMin=10 ErrMin= 8.46D-09
 ErrMax= 8.46D-09  0.00D+00 EMaxC= 1.00D-01 BMatC= 2.83D-15 BMatP= 6.26D-13
 IDIUse=1 WtCom= 1.00D+00 WtEn= 0.00D+00
 Coeff-Com:  0.380D-07-0.170D-05-0.693D-05-0.543D-04 0.267D-02-0.171D-01
 Coeff-Com:  0.425D-01 0.642D-01-0.378D+00 0.129D+01
 Coeff:      0.380D-07-0.170D-05-0.693D-05-0.543D-04 0.267D-02-0.171D-01
 Coeff:      0.425D-01 0.642D-01-0.378D+00 0.129D+01
 Gap=     0.688 Goal=   None    Shift=    0.000
 RMSDP=1.18D-08 MaxDP=5.61D-08 DE=-1.58D-12 OVMax= 6.92D-08

 Cycle  11  Pass 1  IDiag  1:
 E= -33.6536735507501     Delta-E=       -0.000000000000 Rises=F Damp=F
 DIIS: error= 3.93D-10 at cycle  11 NSaved=  11.
 NSaved=11 IEnMin=11 EnMin= -33.6536735507501     IErMin=11 ErrMin= 3.93D-10
 ErrMax= 3.93D-10  0.00D+00 EMaxC= 1.00D-01 BMatC= 4.01D-18 BMatP= 2.83D-15
 IDIUse=1 WtCom= 1.00D+00 WtEn= 0.00D+00
 Coeff-Com: -0.699D-07 0.294D-06 0.187D-05 0.661D-05-0.434D-03 0.283D-02
 Coeff-Com: -0.710D-02-0.106D-01 0.642D-01-0.239D+00 0.119D+01
 Coeff:     -0.699D-07 0.294D-06 0.187D-05 0.661D-05-0.434D-03 0.283D-02
 Coeff:     -0.710D-02-0.106D-01 0.642D-01-0.239D+00 0.119D+01
 Gap=     0.688 Goal=   None    Shift=    0.000
 RMSDP=2.44D-10 MaxDP=1.42D-09 DE=-8.53D-14 OVMax= 1.11D-09

 SCF Done:  E(RHF) =  -33.6536735508     A.U. after   11 cycles
            NFock= 11  Conv=0.24D-09     -V/T= 2.2569
 KE= 2.677605557191D+01 PE=-1.212591311118D+02 EE= 4.100284842271D+01
 Leave Link  502 at Sun Dec 10 06:48:57 2023, MaxMem=   536870912 cpu:               0.3 elap:               0.1
 (Enter /usr/site/hpc/x86_64/glibc-2.17/broadwell/gaussian/g16_a.03/pgi-16.5/g16/l801.exe)
 Windowed orbitals will be sorted by symmetry type.
 Range of M.O.s used for correlation:     1    24
 NBasis=    24 NAE=     8 NBE=     8 NFC=     0 NFV=     0
 NROrb=     24 NOA=     8 NOB=     8 NVA=    16 NVB=    16
 Leave Link  801 at Sun Dec 10 06:48:57 2023, MaxMem=   536870912 cpu:               0.1 elap:               0.0
 (Enter /usr/site/hpc/x86_64/glibc-2.17/broadwell/gaussian/g16_a.03/pgi-16.5/g16/l804.exe)
 Closed-shell transformation, MDV=   536870912 ITran=4 ISComp=2.
 Unit  1 TFree=       1025975 TCopy=        210600.
 Semi-Direct transformation.
 ModeAB=           4 MOrb=             8 LenV=     536742390
 LASXX=        22470 LTotXX=       22470 LenRXX=       48678
 LTotAB=       26208 MaxLAS=       56256 LenRXY=           0
 NonZer=       71148 LenScr=      524288 LnRSAI=       56256
 LnScr1=      524288 LExtra=           0 Total=      1153510
 MaxDsk=          -1 SrtSym=           T ITran=            4
 DoSDTr:  NPSUse=  4
 JobTyp=0 Pass  1:  I=   1 to   8.
 (rs|ai) integrals will be sorted in core.
 Complete sort for first half transformation.
 First half transformation complete.
 Complete sort for second half transformation.
 Second half transformation complete.
 Spin components of T(2) and E(2):
     alpha-alpha T2 =       0.9062494159D-02 E2=     -0.2589276075D-01
     alpha-beta  T2 =       0.5985023492D-01 E2=     -0.1764979259D+00
     beta-beta   T2 =       0.9062494159D-02 E2=     -0.2589276075D-01
 ANorm=    0.1038255856D+01
 E2 =    -0.2282834474D+00 EUMP2 =    -0.33881956998197D+02
 Leave Link  804 at Sun Dec 10 06:48:57 2023, MaxMem=   536870912 cpu:               0.2 elap:               0.1
 (Enter /usr/site/hpc/x86_64/glibc-2.17/broadwell/gaussian/g16_a.03/pgi-16.5/g16/l913.exe)
 CIDS:  MDV=   536870912.
 IFCWin=0 IBDFC=1 NFBD=     0     0 NFCmp=     0     0 NFFFC=     0     0
 Using DD3R+UMP44R for 1st iteration.
 Using DD4RQ for 2nd and later iterations.
 Keep R2 and R3 ints in memory in symmetry-blocked form, NReq=864558.
 FoFCou: FMM=F IPFlag=           0 FMFlag=           0 FMFlg1=           0
         NFxFlg=           0 DoJE=F BraDBF=F KetDBF=F FulRan=T
         wScrn=  0.000000 ICntrl=       600 IOpCl=  0 I1Cent=           0 NGrid=           0
         NMat0=    1 NMatS0=    300 NMatT0=    0 NMatD0=    1 NMtDS0=    0 NMtDT0=    0
 Petite list used in FoFCou.
 CIDS: In Core Option IDoMem=           1.
 CCSD(T)
 =======
 Iterations=  50 Convergence= 0.100D-06
 Produce multiple copies of IABC intergrals
 Iteration Nr.   1
 **********************
 DD1Dir will call FoFMem   1 times, MxPair=        72
 NAB=    36 NAA=     0 NBB=     0.
 MP4(R+Q)= -0.74886193D-03
 Maximum subspace dimension=  5
 A-vector RMS=  5.7472376D-03 Max=  1.3204921D-02 conv= 1.00D-05.
 RLE energy=       -0.2343251268
 E3=       -0.54119189D-02        EUMP3=      -0.33887368917D+02
 E4(DQ)=   -0.59043130D-02        UMP4(DQ)=   -0.33893273230D+02
 E4(SDQ)=  -0.79277369D-02        UMP4(SDQ)=  -0.33895296654D+02
 VARIATIONAL ENERGIES WITH THE FIRST-ORDER WAVEFUNCTION:
 DE(Corr)= -0.23416969     E(Corr)=     -33.887843243    
 NORM(A)=   0.10416762D+01
 Iteration Nr.   2
 **********************
 DD1Dir will call FoFMem   1 times, MxPair=        72
 NAB=    36 NAA=     0 NBB=     0.
 A-vector RMS=  9.8148002D-04 Max=  2.7158664D-03 conv= 1.00D-05.
 RLE energy=       -0.2420805734
 DE(Corr)= -0.24014086     E(CORR)=     -33.893814411     Delta=-5.97D-03
 NORM(A)=   0.10454556D+01
 Iteration Nr.   3
 **********************
 DD1Dir will call FoFMem   1 times, MxPair=        72
 NAB=    36 NAA=     0 NBB=     0.
 A-vector RMS=  3.7987251D-04 Max=  1.1260854D-03 conv= 1.00D-05.
 RLE energy=       -0.2426299906
 DE(Corr)= -0.24218385     E(CORR)=     -33.895857404     Delta=-2.04D-03
 NORM(A)=   0.10460136D+01
 Iteration Nr.   4
 **********************
 DD1Dir will call FoFMem   1 times, MxPair=        72
 NAB=    36 NAA=     0 NBB=     0.
 A-vector RMS=  9.1640948D-05 Max=  2.4749051D-04 conv= 1.00D-05.
 RLE energy=       -0.2426764459
 DE(Corr)= -0.24264076     E(CORR)=     -33.896314309     Delta=-4.57D-04
 NORM(A)=   0.10460867D+01
 Iteration Nr.   5
 **********************
 DD1Dir will call FoFMem   1 times, MxPair=        72
 NAB=    36 NAA=     0 NBB=     0.
 A-vector RMS=  4.0954542D-05 Max=  1.4803695D-04 conv= 1.00D-05.
 RLE energy=       -0.2426747053
 DE(Corr)= -0.24267273     E(CORR)=     -33.896346279     Delta=-3.20D-05
 NORM(A)=   0.10460969D+01
 Iteration Nr.   6
 **********************
 DD1Dir will call FoFMem   1 times, MxPair=        72
 NAB=    36 NAA=     0 NBB=     0.
 A-vector RMS=  1.1344572D-05 Max=  4.0484257D-05 conv= 1.00D-05.
 RLE energy=       -0.2426738337
 DE(Corr)= -0.24267486     E(CORR)=     -33.896348411     Delta=-2.13D-06
 NORM(A)=   0.10461003D+01
 Iteration Nr.   7
 **********************
 DD1Dir will call FoFMem   1 times, MxPair=        72
 NAB=    36 NAA=     0 NBB=     0.
 A-vector RMS=  3.3855070D-06 Max=  1.1675716D-05 conv= 1.00D-05.
 RLE energy=       -0.2426747654
 DE(Corr)= -0.24267426     E(CORR)=     -33.896347814     Delta= 5.97D-07
 NORM(A)=   0.10461017D+01
 Iteration Nr.   8
 **********************
 DD1Dir will call FoFMem   1 times, MxPair=        72
 NAB=    36 NAA=     0 NBB=     0.
 A-vector RMS=  6.9289893D-07 Max=  2.1618406D-06 conv= 1.00D-05.
 RLE energy=       -0.2426742659
 DE(Corr)= -0.24267430     E(CORR)=     -33.896347852     Delta=-3.83D-08
 NORM(A)=   0.10461018D+01
 CI/CC converged in    8 iterations to DelEn=-3.83D-08 Conv= 1.00D-07 ErrA1= 6.93D-07 Conv= 1.00D-05
 Wavefunction amplitudes converged. E(Corr)=     -33.896347852    
 Largest amplitude= 5.86D-02
 IPart=  2 IA=    2   12.50% done.
 IPart=  4 IA=    3   24.17% done.
 IPart=  3 IA=    4   35.00% done.
 IPart=  3 IA=    5   45.00% done.
 IPart=  2 IA=    6   54.17% done.
 IPart=  4 IA=    7   62.50% done.
 IPart=  1 IA=    8   70.00% done.
 IPart=  1 IA=   10   82.50% done.
 IPart=  4 IA=   12   91.67% done.
 Time for triples=        0.25 seconds.
 T4(CCSD)= -0.30822032D-02
 T5(CCSD)=  0.52529915D-03
 CCSD(T)= -0.33898904756D+02
 Discarding MO integrals.
 Leave Link  913 at Sun Dec 10 06:48:57 2023, MaxMem=   536870912 cpu:               0.8 elap:               0.2
 (Enter /usr/site/hpc/x86_64/glibc-2.17/broadwell/gaussian/g16_a.03/pgi-16.5/g16/l601.exe)
 Copying SCF densities to generalized density rwf, IOpCl= 0 IROHF=0.

 **********************************************************************

            Population analysis using the SCF density.

 **********************************************************************

 Orbital symmetries:
       Occupied  (A') (A') (A') (A') (A') (A') (A") (A")
       Virtual   (A') (A') (A') (A') (A") (A") (A') (A') (A') (A')
                 (A') (A') (A') (A') (A') (A')
 The electronic state is 1-A'.
 Alpha  occ. eigenvalues --   -1.36306  -1.34631  -0.71947  -0.70267  -0.56148
 Alpha  occ. eigenvalues --   -0.54430  -0.50906  -0.49234
 Alpha virt. eigenvalues --    0.19530   0.21308   0.29813   0.31585   0.79648
 Alpha virt. eigenvalues --    0.81277   0.82454   0.84263   0.85667   0.87367
 Alpha virt. eigenvalues --    1.16676   1.18365   1.21105   1.22920   2.56628
 Alpha virt. eigenvalues --    2.58390
          Condensed to atoms (all electrons):
               1          2          3          4          5          6
     1  O    6.219703   0.265585   0.263183  -0.000001   0.000000   0.000000
     2  H    0.265585   0.378269  -0.023235   0.000023  -0.000001  -0.000000
     3  H    0.263183  -0.023235   0.390973  -0.000000   0.000000   0.000000
     4  O   -0.000001   0.000023  -0.000000   6.218503   0.264593   0.264705
     5  H    0.000000  -0.000001   0.000000   0.264593   0.384537  -0.023351
     6  H    0.000000  -0.000000   0.000000   0.264705  -0.023351   0.385015
 Mulliken charges:
               1
     1  O   -0.748469
     2  H    0.379360
     3  H    0.369079
     4  O   -0.747822
     5  H    0.374222
     6  H    0.373631
 Sum of Mulliken charges =   0.00000
 Mulliken charges with hydrogens summed into heavy atoms:
               1
     1  O   -0.000030
     4  O    0.000030
 Electronic spatial extent (au):  <R**2>=            459.3688
 Charge=              0.0000 electrons
 Dipole moment (field-independent basis, Debye):
    X=             -1.2210    Y=             -4.0691    Z=              0.0000  Tot=              4.2483
 Quadrupole moment (field-independent basis, Debye-Ang):
   XX=             -9.5286   YY=             -5.9405   ZZ=            -14.9924
   XY=             -8.7925   XZ=             -0.0000   YZ=              0.0000
 Traceless Quadrupole moment (field-independent basis, Debye-Ang):
   XX=              0.6252   YY=              4.2134   ZZ=             -4.8386
   XY=             -8.7925   XZ=             -0.0000   YZ=              0.0000
 Octapole moment (field-independent basis, Debye-Ang**2):
  XXX=             -0.4199  YYY=            -83.0724  ZZZ=              0.0000  XYY=            -19.0599
  XXY=             -3.8782  XXZ=              0.0000  XZZ=             -0.2291  YZZ=             -0.7768
  YYZ=              0.0000  XYZ=              0.0000
 Hexadecapole moment (field-independent basis, Debye-Ang**3):
 XXXX=            -11.5696 YYYY=           -426.0936 ZZZZ=            -12.2285 XXXY=             -4.7842
 XXXZ=             -0.0000 YYYX=            -66.1246 YYYZ=              0.0000 ZZZX=              0.0000
 ZZZY=             -0.0000 XXYY=            -67.9202 XXZZ=             -4.5476 YYZZ=           -114.3362
 XXYZ=              0.0000 YYXZ=             -0.0000 ZZXY=              1.1283
 N-N= 1.982655356645D+01 E-N=-1.212591311153D+02  KE= 2.677605557191D+01
 Symmetry A'   KE= 1.789727666202D+01
 Symmetry A"   KE= 8.878778909895D+00
 Leave Link  601 at Sun Dec 10 06:48:57 2023, MaxMem=   536870912 cpu:               0.1 elap:               0.0
 (Enter /usr/site/hpc/x86_64/glibc-2.17/broadwell/gaussian/g16_a.03/pgi-16.5/g16/l9999.exe)
 1\1\GINC-N033\SP\RCCSD(T)-FC\CEP-31G\H4O2\ROOT\10-Dec-2023\0\\#p CCSD(
 T)/CEP-31G\\H2O_H2O_4220\\0,1\O,0,0.,-0.009833,0.\H,0,-0.799571,-0.580
 965,0.\H,0,0.799571,-0.580965,0.\O,0,-4.396738,-3.13634,0.\H,0,-5.1553
 53,-2.511833,0.\H,0,-4.741465,-4.056487,0.\\Version=ES64L-G16RevA.03\S
 tate=1-A'\HF=-33.6536736\MP2=-33.881957\MP3=-33.8873689\MP4D=-33.89252
 44\MP4DQ=-33.8932732\MP4SDQ=-33.8952967\CCSD=-33.8963479\CCSD(T)=-33.8
 989048\RMSD=2.441e-10\PG=CS [SG(H4O2)]\\@


 HE THAT WALD REACHE THE SWEITE ROSE
 SULD NOW AND THEN BE SCRATCHED WT THE SCHARPE BREERES.
 -- PROVERBS AND REASONS OF THE YEAR 1585
           AS REPRINTED IN PAISLEY MAGAZINE 1828.
 Job cpu time:       0 days  0 hours  0 minutes  3.2 seconds.
 Elapsed time:       0 days  0 hours  0 minutes  1.0 seconds.
 File lengths (MBytes):  RWF=     72 Int=      0 D2E=      0 Chk=      8 Scr=      8
 Normal termination of Gaussian 16 at Sun Dec 10 06:48:57 2023.
