 Entering Gaussian System, Link 0=g16
 Input=H2O_H2O_100.com
 Output=H2O_H2O_100.log
 Initial command:
 /usr/site/hpc/x86_64/glibc-2.17/broadwell/gaussian/g16_a.03/pgi-16.5/g16/l1.exe "/gpfs/gpfs1/scratch/c7441090/OH Coord/Gau-1614194.inp" -scrdir="/gpfs/gpfs1/scratch/c7441090/OH Coord/"
 Entering Link 1 = /usr/site/hpc/x86_64/glibc-2.17/broadwell/gaussian/g16_a.03/pgi-16.5/g16/l1.exe PID=   1614195.
  
 Copyright (c) 1988,1990,1992,1993,1995,1998,2003,2009,2016,
            Gaussian, Inc.  All Rights Reserved.
  
 This is part of the Gaussian(R) 16 program.  It is based on
 the Gaussian(R) 09 system (copyright 2009, Gaussian, Inc.),
 the Gaussian(R) 03 system (copyright 2003, Gaussian, Inc.),
 the Gaussian(R) 98 system (copyright 1998, Gaussian, Inc.),
 the Gaussian(R) 94 system (copyright 1995, Gaussian, Inc.),
 the Gaussian 92(TM) system (copyright 1992, Gaussian, Inc.),
 the Gaussian 90(TM) system (copyright 1990, Gaussian, Inc.),
 the Gaussian 88(TM) system (copyright 1988, Gaussian, Inc.),
 the Gaussian 86(TM) system (copyright 1986, Carnegie Mellon
 University), and the Gaussian 82(TM) system (copyright 1983,
 Carnegie Mellon University). Gaussian is a federally registered
 trademark of Gaussian, Inc.
  
 This software contains proprietary and confidential information,
 including trade secrets, belonging to Gaussian, Inc.
  
 This software is provided under written license and may be
 used, copied, transmitted, or stored only in accord with that
 written license.
  
 The following legend is applicable only to US Government
 contracts under FAR:
  
                    RESTRICTED RIGHTS LEGEND
  
 Use, reproduction and disclosure by the US Government is
 subject to restrictions as set forth in subparagraphs (a)
 and (c) of the Commercial Computer Software - Restricted
 Rights clause in FAR 52.227-19.
  
 Gaussian, Inc.
 340 Quinnipiac St., Bldg. 40, Wallingford CT 06492
  
  
 ---------------------------------------------------------------
 Warning -- This program may not be used in any manner that
 competes with the business of Gaussian, Inc. or will provide
 assistance to any competitor of Gaussian, Inc.  The licensee
 of this program is prohibited from giving any competitor of
 Gaussian, Inc. access to this program.  By using this program,
 the user acknowledges that Gaussian, Inc. is engaged in the
 business of creating and licensing software in the field of
 computational chemistry and represents and warrants to the
 licensee that it is not a competitor of Gaussian, Inc. and that
 it will not use this program in any manner prohibited above.
 ---------------------------------------------------------------
  

 Cite this work as:
 Gaussian 16, Revision A.03,
 M. J. Frisch, G. W. Trucks, H. B. Schlegel, G. E. Scuseria, 
 M. A. Robb, J. R. Cheeseman, G. Scalmani, V. Barone, 
 G. A. Petersson, H. Nakatsuji, X. Li, M. Caricato, A. V. Marenich, 
 J. Bloino, B. G. Janesko, R. Gomperts, B. Mennucci, H. P. Hratchian, 
 J. V. Ortiz, A. F. Izmaylov, J. L. Sonnenberg, D. Williams-Young, 
 F. Ding, F. Lipparini, F. Egidi, J. Goings, B. Peng, A. Petrone, 
 T. Henderson, D. Ranasinghe, V. G. Zakrzewski, J. Gao, N. Rega, 
 G. Zheng, W. Liang, M. Hada, M. Ehara, K. Toyota, R. Fukuda, 
 J. Hasegawa, M. Ishida, T. Nakajima, Y. Honda, O. Kitao, H. Nakai, 
 T. Vreven, K. Throssell, J. A. Montgomery, Jr., J. E. Peralta, 
 F. Ogliaro, M. J. Bearpark, J. J. Heyd, E. N. Brothers, K. N. Kudin, 
 V. N. Staroverov, T. A. Keith, R. Kobayashi, J. Normand, 
 K. Raghavachari, A. P. Rendell, J. C. Burant, S. S. Iyengar, 
 J. Tomasi, M. Cossi, J. M. Millam, M. Klene, C. Adamo, R. Cammi, 
 J. W. Ochterski, R. L. Martin, K. Morokuma, O. Farkas, 
 J. B. Foresman, and D. J. Fox, Gaussian, Inc., Wallingford CT, 2016.
 
 ******************************************
 Gaussian 16:  ES64L-G16RevA.03 25-Dec-2016
                10-Dec-2023 
 ******************************************
 %NProcShared=4
 Will use up to    4 processors via shared memory.
 %Mem=4GB
 %Chk=H2O_H2O_100.chk
 ------------------
 #p CCSD(T)/CEP-31G
 ------------------
 1/38=1,172=1/1;
 2/12=2,17=6,18=5,40=1/2;
 3/5=9,6=1,11=9,25=1,30=1/1,2,3;
 4//1;
 5/5=2,38=5/2;
 8/6=4,9=120000,10=1/1,4;
 9/5=7,14=2/13;
 6/7=2,8=2,9=2,10=2/1;
 99/5=1,9=1/99;
 Leave Link    1 at Sun Dec 10 06:19:59 2023, MaxMem=   536870912 cpu:               0.3 elap:               0.1
 (Enter /usr/site/hpc/x86_64/glibc-2.17/broadwell/gaussian/g16_a.03/pgi-16.5/g16/l101.exe)
 -----------
 H2O_H2O_100
 -----------
 Symbolic Z-matrix:
 Charge =  0 Multiplicity = 1
 O                     0.       -0.00983   0. 
 H                    -0.79957  -0.58097   0. 
 H                     0.79957  -0.58097   0. 
 O                    -1.7257   -1.2425    0. 
 H                    -2.52527  -1.81363   0. 
 H                    -0.92613  -1.81363   0. 
 
 ITRead=  0  0  0  0  0  0
 MicOpt= -1 -1 -1 -1 -1 -1
 NAtoms=      6 NQM=        6 NQMF=       0 NMMI=      0 NMMIF=      0
                NMic=       0 NMicF=      0.
                    Isotopes and Nuclear Properties:
 (Nuclear quadrupole moments (NQMom) in fm**2, nuclear magnetic moments (NMagM)
  in nuclear magnetons)

  Atom         1           2           3           4           5           6
 IAtWgt=          16           1           1          16           1           1
 AtmWgt=  15.9949146   1.0078250   1.0078250  15.9949146   1.0078250   1.0078250
 NucSpn=           0           1           1           0           1           1
 AtZEff=  -0.0000000  -0.0000000  -0.0000000  -0.0000000  -0.0000000  -0.0000000
 NQMom=    0.0000000   0.0000000   0.0000000   0.0000000   0.0000000   0.0000000
 NMagM=    0.0000000   2.7928460   2.7928460   0.0000000   2.7928460   2.7928460
 AtZNuc=   8.0000000   1.0000000   1.0000000   8.0000000   1.0000000   1.0000000
 Leave Link  101 at Sun Dec 10 06:19:59 2023, MaxMem=   536870912 cpu:               0.7 elap:               0.2
 (Enter /usr/site/hpc/x86_64/glibc-2.17/broadwell/gaussian/g16_a.03/pgi-16.5/g16/l202.exe)
                          Input orientation:                          
 ---------------------------------------------------------------------
 Center     Atomic      Atomic             Coordinates (Angstroms)
 Number     Number       Type             X           Y           Z
 ---------------------------------------------------------------------
      1          8           0        0.000000   -0.009833    0.000000
      2          1           0       -0.799571   -0.580965    0.000000
      3          1           0        0.799571   -0.580965    0.000000
      4          8           0       -1.725701   -1.242497    0.000000
      5          1           0       -2.525272   -1.813629    0.000000
      6          1           0       -0.926129   -1.813629    0.000000
 ---------------------------------------------------------------------
                    Distance matrix (angstroms):
                    1          2          3          4          5
     1  O    0.000000
     2  H    0.982601   0.000000
     3  H    0.982601   1.599142   0.000000
     4  O    2.120732   1.138131   2.610483   0.000000
     5  H    3.103333   2.120732   3.545989   0.982601   0.000000
     6  H    2.027657   1.239144   2.120731   0.982602   1.599143
                    6
     6  H    0.000000
 Stoichiometry    H4O2
 Framework group  CS[SG(H4O2)]
 Deg. of freedom     9
 Full point group                 CS      NOp   2
 Largest Abelian subgroup         CS      NOp   2
 Largest concise Abelian subgroup C1      NOp   1
                         Standard orientation:                         
 ---------------------------------------------------------------------
 Center     Atomic      Atomic             Coordinates (Angstroms)
 Number     Number       Type             X           Y           Z
 ---------------------------------------------------------------------
      1          8           0        0.092949   -1.126759    0.000000
      2          1           0        0.092949   -0.144158    0.000000
      3          1           0       -0.836544   -1.445426    0.000000
      4          8           0        0.092949    0.993973    0.000000
      5          1           0        0.092949    1.976574    0.000000
      6          1           0       -0.836544    0.675305    0.000000
 ---------------------------------------------------------------------
 Rotational constants (GHZ):         309.4518561          11.8596732          11.4219303
 Leave Link  202 at Sun Dec 10 06:19:59 2023, MaxMem=   536870912 cpu:               0.1 elap:               0.0
 (Enter /usr/site/hpc/x86_64/glibc-2.17/broadwell/gaussian/g16_a.03/pgi-16.5/g16/l301.exe)
 Standard basis: CEP-31G (6D, 10F)
 Ernie: Thresh=  0.10000D-02 Tol=  0.10000D-05 Strict=F.
 There are    20 symmetry adapted cartesian basis functions of A'  symmetry.
 There are     4 symmetry adapted cartesian basis functions of A"  symmetry.
 There are    20 symmetry adapted basis functions of A'  symmetry.
 There are     4 symmetry adapted basis functions of A"  symmetry.
    24 basis functions,    48 primitive gaussians,    24 cartesian basis functions
     8 alpha electrons        8 beta electrons
       nuclear repulsion energy        30.2401997298 Hartrees.
 IExCor=    0 DFT=F Ex=HF Corr=None ExCW=0 ScaHFX=  1.000000
 ScaDFX=  1.000000  1.000000  1.000000  1.000000 ScalE2=  1.000000  1.000000
 IRadAn=      5 IRanWt=     -1 IRanGd=            0 ICorTp=0 IEmpDi=  4
 NAtoms=    6 NActive=    6 NUniq=    6 SFac= 1.00D+00 NAtFMM=   60 NAOKFM=F Big=F
 Integral buffers will be    131072 words long.
 Raffenetti 1 integral format.
 Two-electron integral symmetry is turned on.
 Leave Link  301 at Sun Dec 10 06:20:00 2023, MaxMem=   536870912 cpu:               0.2 elap:               0.0
 (Enter /usr/site/hpc/x86_64/glibc-2.17/broadwell/gaussian/g16_a.03/pgi-16.5/g16/l302.exe)
 NPDir=0 NMtPBC=     1 NCelOv=     1 NCel=       1 NClECP=     1 NCelD=      1
         NCelK=      1 NCelE2=     1 NClLst=     1 CellRange=     0.0.
 One-electron integrals computed using PRISM.
 One-electron integral symmetry used in STVInt
   2 Symmetry operations used in ECPInt.
 ECPInt:  NShTT=      78 NPrTT=     318 LenC2=      79 LenP2D=     303.
 LDataN:  DoStor=T MaxTD1= 2 Len=   12
 NBasis=    24 RedAO= T EigKep=  2.35D-03  NBF=    20     4
 NBsUse=    24 1.00D-06 EigRej= -1.00D+00 NBFU=    20     4
 Leave Link  302 at Sun Dec 10 06:20:00 2023, MaxMem=   536870912 cpu:               0.3 elap:               0.1
 (Enter /usr/site/hpc/x86_64/glibc-2.17/broadwell/gaussian/g16_a.03/pgi-16.5/g16/l303.exe)
 DipDrv:  MaxL=1.
 Leave Link  303 at Sun Dec 10 06:20:00 2023, MaxMem=   536870912 cpu:               0.1 elap:               0.0
 (Enter /usr/site/hpc/x86_64/glibc-2.17/broadwell/gaussian/g16_a.03/pgi-16.5/g16/l401.exe)
 ExpMin= 1.78D-01 ExpMax= 1.92D+01 ExpMxC= 1.92D+01 IAcc=3 IRadAn=         5 AccDes= 0.00D+00
 Harris functional with IExCor=  205 and IRadAn=       5 diagonalized for initial guess.
 HarFok:  IExCor=  205 AccDes= 0.00D+00 IRadAn=         5 IDoV= 1 UseB2=F ITyADJ=14
 ICtDFT=  3500011 ScaDFX=  1.000000  1.000000  1.000000  1.000000
 FoFCou: FMM=F IPFlag=           0 FMFlag=      100000 FMFlg1=           0
         NFxFlg=           0 DoJE=T BraDBF=F KetDBF=T FulRan=T
         wScrn=  0.000000 ICntrl=       500 IOpCl=  0 I1Cent=   200000004 NGrid=           0
         NMat0=    1 NMatS0=      1 NMatT0=    0 NMatD0=    1 NMtDS0=    0 NMtDT0=    0
 Petite list used in FoFCou.
 Harris En= -34.4314259670546    
 JPrj=0 DoOrth=F DoCkMO=F.
 Initial guess orbital symmetries:
       Occupied  (A') (A') (A') (A') (A') (A') (A") (A")
       Virtual   (A') (A') (A') (A') (A") (A') (A') (A") (A') (A')
                 (A') (A') (A') (A') (A') (A')
 The electronic state of the initial guess is 1-A'.
 Leave Link  401 at Sun Dec 10 06:20:00 2023, MaxMem=   536870912 cpu:               0.4 elap:               0.1
 (Enter /usr/site/hpc/x86_64/glibc-2.17/broadwell/gaussian/g16_a.03/pgi-16.5/g16/l502.exe)
 Keep R1 ints in memory in symmetry-blocked form, NReq=852846.
 FoFCou: FMM=F IPFlag=           0 FMFlag=           0 FMFlg1=           0
         NFxFlg=           0 DoJE=F BraDBF=F KetDBF=F FulRan=T
         wScrn=  0.000000 ICntrl=       600 IOpCl=  0 I1Cent=           0 NGrid=           0
         NMat0=    1 NMatS0=    300 NMatT0=    0 NMatD0=    1 NMtDS0=    0 NMtDT0=    0
 Petite list used in FoFCou.
 Closed shell SCF:
 Using DIIS extrapolation, IDIIS=  1040.
 NGot=   536870912 LenX=   536840576 LenY=   536839559
 Requested convergence on RMS density matrix=1.00D-08 within 128 cycles.
 Requested convergence on MAX density matrix=1.00D-06.
 Requested convergence on             energy=1.00D-06.
 No special actions if energy rises.

 Cycle   1  Pass 1  IDiag  1:
 E= -33.4636130688557    
 DIIS: error= 6.17D-02 at cycle   1 NSaved=   1.
 NSaved= 1 IEnMin= 1 EnMin= -33.4636130688557     IErMin= 1 ErrMin= 6.17D-02
 ErrMax= 6.17D-02  0.00D+00 EMaxC= 1.00D-01 BMatC= 1.08D-01 BMatP= 1.08D-01
 IDIUse=3 WtCom= 3.83D-01 WtEn= 6.17D-01
 Coeff-Com:  0.100D+01
 Coeff-En:   0.100D+01
 Coeff:      0.100D+01
 Gap=     0.497 Goal=   None    Shift=    0.000
 GapD=    0.497 DampG=2.000 DampE=0.500 DampFc=1.0000 IDamp=-1.
 RMSDP=2.33D-02 MaxDP=1.49D-01              OVMax= 1.26D-01

 Cycle   2  Pass 1  IDiag  1:
 E= -33.5357468820501     Delta-E=       -0.072133813194 Rises=F Damp=F
 DIIS: error= 3.63D-02 at cycle   2 NSaved=   2.
 NSaved= 2 IEnMin= 2 EnMin= -33.5357468820501     IErMin= 2 ErrMin= 3.63D-02
 ErrMax= 3.63D-02  0.00D+00 EMaxC= 1.00D-01 BMatC= 3.83D-02 BMatP= 1.08D-01
 IDIUse=3 WtCom= 6.37D-01 WtEn= 3.63D-01
 Coeff-Com:  0.369D+00 0.631D+00
 Coeff-En:   0.494D-01 0.951D+00
 Coeff:      0.253D+00 0.747D+00
 Gap=     0.612 Goal=   None    Shift=    0.000
 RMSDP=9.23D-03 MaxDP=6.76D-02 DE=-7.21D-02 OVMax= 5.09D-02

 Cycle   3  Pass 1  IDiag  1:
 E= -33.5662751123921     Delta-E=       -0.030528230342 Rises=F Damp=F
 DIIS: error= 7.40D-03 at cycle   3 NSaved=   3.
 NSaved= 3 IEnMin= 3 EnMin= -33.5662751123921     IErMin= 3 ErrMin= 7.40D-03
 ErrMax= 7.40D-03  0.00D+00 EMaxC= 1.00D-01 BMatC= 1.33D-03 BMatP= 3.83D-02
 IDIUse=3 WtCom= 9.26D-01 WtEn= 7.40D-02
 Coeff-Com: -0.890D-01 0.418D-01 0.105D+01
 Coeff-En:   0.000D+00 0.000D+00 0.100D+01
 Coeff:     -0.824D-01 0.387D-01 0.104D+01
 Gap=     0.595 Goal=   None    Shift=    0.000
 RMSDP=2.28D-03 MaxDP=1.44D-02 DE=-3.05D-02 OVMax= 1.10D-02

 Cycle   4  Pass 1  IDiag  1:
 E= -33.5675404977578     Delta-E=       -0.001265385366 Rises=F Damp=F
 DIIS: error= 7.39D-04 at cycle   4 NSaved=   4.
 NSaved= 4 IEnMin= 4 EnMin= -33.5675404977578     IErMin= 4 ErrMin= 7.39D-04
 ErrMax= 7.39D-04  0.00D+00 EMaxC= 1.00D-01 BMatC= 2.10D-05 BMatP= 1.33D-03
 IDIUse=3 WtCom= 9.93D-01 WtEn= 7.39D-03
 Coeff-Com: -0.328D-01-0.181D-01 0.234D+00 0.817D+00
 Coeff-En:   0.000D+00 0.000D+00 0.000D+00 0.100D+01
 Coeff:     -0.325D-01-0.180D-01 0.232D+00 0.818D+00
 Gap=     0.600 Goal=   None    Shift=    0.000
 RMSDP=3.48D-04 MaxDP=2.06D-03 DE=-1.27D-03 OVMax= 1.46D-03

 Cycle   5  Pass 1  IDiag  1:
 E= -33.5675663002880     Delta-E=       -0.000025802530 Rises=F Damp=F
 DIIS: error= 2.44D-04 at cycle   5 NSaved=   5.
 NSaved= 5 IEnMin= 5 EnMin= -33.5675663002880     IErMin= 5 ErrMin= 2.44D-04
 ErrMax= 2.44D-04  0.00D+00 EMaxC= 1.00D-01 BMatC= 1.89D-06 BMatP= 2.10D-05
 IDIUse=3 WtCom= 9.98D-01 WtEn= 2.44D-03
 Coeff-Com:  0.148D-01-0.482D-02-0.167D+00-0.529D-02 0.116D+01
 Coeff-En:   0.000D+00 0.000D+00 0.000D+00 0.000D+00 0.100D+01
 Coeff:      0.148D-01-0.480D-02-0.167D+00-0.527D-02 0.116D+01
 Gap=     0.599 Goal=   None    Shift=    0.000
 RMSDP=1.66D-04 MaxDP=9.83D-04 DE=-2.58D-05 OVMax= 6.59D-04

 Cycle   6  Pass 1  IDiag  1:
 E= -33.5675696394142     Delta-E=       -0.000003339126 Rises=F Damp=F
 DIIS: error= 3.50D-05 at cycle   6 NSaved=   6.
 NSaved= 6 IEnMin= 6 EnMin= -33.5675696394142     IErMin= 6 ErrMin= 3.50D-05
 ErrMax= 3.50D-05  0.00D+00 EMaxC= 1.00D-01 BMatC= 2.28D-08 BMatP= 1.89D-06
 IDIUse=1 WtCom= 1.00D+00 WtEn= 0.00D+00
 Coeff-Com: -0.317D-02 0.137D-02 0.381D-01-0.228D-01-0.287D+00 0.127D+01
 Coeff:     -0.317D-02 0.137D-02 0.381D-01-0.228D-01-0.287D+00 0.127D+01
 Gap=     0.600 Goal=   None    Shift=    0.000
 RMSDP=1.71D-05 MaxDP=1.11D-04 DE=-3.34D-06 OVMax= 8.72D-05

 Cycle   7  Pass 1  IDiag  1:
 E= -33.5675696902310     Delta-E=       -0.000000050817 Rises=F Damp=F
 DIIS: error= 3.18D-06 at cycle   7 NSaved=   7.
 NSaved= 7 IEnMin= 7 EnMin= -33.5675696902310     IErMin= 7 ErrMin= 3.18D-06
 ErrMax= 3.18D-06  0.00D+00 EMaxC= 1.00D-01 BMatC= 3.55D-10 BMatP= 2.28D-08
 IDIUse=1 WtCom= 1.00D+00 WtEn= 0.00D+00
 Coeff-Com:  0.507D-03-0.159D-03-0.592D-02 0.412D-02 0.446D-01-0.270D+00
 Coeff-Com:  0.123D+01
 Coeff:      0.507D-03-0.159D-03-0.592D-02 0.412D-02 0.446D-01-0.270D+00
 Coeff:      0.123D+01
 Gap=     0.600 Goal=   None    Shift=    0.000
 RMSDP=2.57D-06 MaxDP=1.28D-05 DE=-5.08D-08 OVMax= 1.18D-05

 Cycle   8  Pass 1  IDiag  1:
 E= -33.5675696910637     Delta-E=       -0.000000000833 Rises=F Damp=F
 DIIS: error= 8.49D-07 at cycle   8 NSaved=   8.
 NSaved= 8 IEnMin= 8 EnMin= -33.5675696910637     IErMin= 8 ErrMin= 8.49D-07
 ErrMax= 8.49D-07  0.00D+00 EMaxC= 1.00D-01 BMatC= 1.66D-11 BMatP= 3.55D-10
 IDIUse=1 WtCom= 1.00D+00 WtEn= 0.00D+00
 Coeff-Com: -0.257D-04-0.787D-05 0.246D-03-0.434D-03-0.726D-03 0.198D-01
 Coeff-Com: -0.261D+00 0.124D+01
 Coeff:     -0.257D-04-0.787D-05 0.246D-03-0.434D-03-0.726D-03 0.198D-01
 Coeff:     -0.261D+00 0.124D+01
 Gap=     0.600 Goal=   None    Shift=    0.000
 RMSDP=6.13D-07 MaxDP=3.89D-06 DE=-8.33D-10 OVMax= 3.10D-06

 Cycle   9  Pass 1  IDiag  1:
 E= -33.5675696911051     Delta-E=       -0.000000000041 Rises=F Damp=F
 DIIS: error= 2.13D-07 at cycle   9 NSaved=   9.
 NSaved= 9 IEnMin= 9 EnMin= -33.5675696911051     IErMin= 9 ErrMin= 2.13D-07
 ErrMax= 2.13D-07  0.00D+00 EMaxC= 1.00D-01 BMatC= 9.17D-13 BMatP= 1.66D-11
 IDIUse=1 WtCom= 1.00D+00 WtEn= 0.00D+00
 Coeff-Com:  0.477D-05 0.661D-05-0.213D-04 0.837D-04-0.436D-03-0.301D-02
 Coeff-Com:  0.873D-01-0.608D+00 0.152D+01
 Coeff:      0.477D-05 0.661D-05-0.213D-04 0.837D-04-0.436D-03-0.301D-02
 Coeff:      0.873D-01-0.608D+00 0.152D+01
 Gap=     0.600 Goal=   None    Shift=    0.000
 RMSDP=1.52D-07 MaxDP=9.15D-07 DE=-4.14D-11 OVMax= 1.22D-06

 Cycle  10  Pass 1  IDiag  1:
 E= -33.5675696911082     Delta-E=       -0.000000000003 Rises=F Damp=F
 DIIS: error= 3.21D-08 at cycle  10 NSaved=  10.
 NSaved=10 IEnMin=10 EnMin= -33.5675696911082     IErMin=10 ErrMin= 3.21D-08
 ErrMax= 3.21D-08  0.00D+00 EMaxC= 1.00D-01 BMatC= 2.03D-14 BMatP= 9.17D-13
 IDIUse=1 WtCom= 1.00D+00 WtEn= 0.00D+00
 Coeff-Com: -0.428D-06-0.188D-05-0.374D-05-0.125D-04 0.193D-03 0.128D-03
 Coeff-Com: -0.175D-01 0.148D+00-0.479D+00 0.135D+01
 Coeff:     -0.428D-06-0.188D-05-0.374D-05-0.125D-04 0.193D-03 0.128D-03
 Coeff:     -0.175D-01 0.148D+00-0.479D+00 0.135D+01
 Gap=     0.600 Goal=   None    Shift=    0.000
 RMSDP=3.33D-08 MaxDP=1.99D-07 DE=-3.07D-12 OVMax= 2.17D-07

 Cycle  11  Pass 1  IDiag  1:
 E= -33.5675696911082     Delta-E=       -0.000000000000 Rises=F Damp=F
 DIIS: error= 5.48D-09 at cycle  11 NSaved=  11.
 NSaved=11 IEnMin=11 EnMin= -33.5675696911082     IErMin=11 ErrMin= 5.48D-09
 ErrMax= 5.48D-09  0.00D+00 EMaxC= 1.00D-01 BMatC= 6.85D-16 BMatP= 2.03D-14
 IDIUse=1 WtCom= 1.00D+00 WtEn= 0.00D+00
 Coeff-Com: -0.922D-07 0.460D-06 0.307D-05 0.108D-05-0.633D-04 0.870D-04
 Coeff-Com:  0.330D-02-0.327D-01 0.117D+00-0.472D+00 0.138D+01
 Coeff:     -0.922D-07 0.460D-06 0.307D-05 0.108D-05-0.633D-04 0.870D-04
 Coeff:      0.330D-02-0.327D-01 0.117D+00-0.472D+00 0.138D+01
 Gap=     0.600 Goal=   None    Shift=    0.000
 RMSDP=6.61D-09 MaxDP=3.87D-08 DE=-4.26D-14 OVMax= 4.16D-08

 SCF Done:  E(RHF) =  -33.5675696911     A.U. after   11 cycles
            NFock= 11  Conv=0.66D-08     -V/T= 2.2283
 KE= 2.732837691303D+01 PE=-1.421218509441D+02 EE= 5.098570461018D+01
 Leave Link  502 at Sun Dec 10 06:20:00 2023, MaxMem=   536870912 cpu:               0.4 elap:               0.1
 (Enter /usr/site/hpc/x86_64/glibc-2.17/broadwell/gaussian/g16_a.03/pgi-16.5/g16/l801.exe)
 Windowed orbitals will be sorted by symmetry type.
 Range of M.O.s used for correlation:     1    24
 NBasis=    24 NAE=     8 NBE=     8 NFC=     0 NFV=     0
 NROrb=     24 NOA=     8 NOB=     8 NVA=    16 NVB=    16

 **** Warning!!: The largest alpha MO coefficient is  0.12475423D+02

 Leave Link  801 at Sun Dec 10 06:20:00 2023, MaxMem=   536870912 cpu:               0.1 elap:               0.0
 (Enter /usr/site/hpc/x86_64/glibc-2.17/broadwell/gaussian/g16_a.03/pgi-16.5/g16/l804.exe)
 Closed-shell transformation, MDV=   536870912 ITran=4 ISComp=2.
 Unit  1 TFree=       1025975 TCopy=        210600.
 Semi-Direct transformation.
 ModeAB=           2 MOrb=             8 LenV=     536741360
 LASXX=        22470 LTotXX=       22470 LenRXX=       22470
 LTotAB=       26208 MaxLAS=       57600 LenRXY=       57600
 NonZer=       62208 LenScr=      524288 LnRSAI=           0
 LnScr1=           0 LExtra=           0 Total=       604358
 MaxDsk=          -1 SrtSym=           F ITran=            4
 DoSDTr:  NPSUse=  4
 JobTyp=0 Pass  1:  I=   1 to   8.
 (rs|ai) integrals will be sorted in core.
 Complete sort for first half transformation.
 First half transformation complete.
 Complete sort for second half transformation.
 Second half transformation complete.
 Spin components of T(2) and E(2):
     alpha-alpha T2 =       0.9311000877D-02 E2=     -0.2694614504D-01
     alpha-beta  T2 =       0.5831055137D-01 E2=     -0.1748947510D+00
     beta-beta   T2 =       0.9311000877D-02 E2=     -0.2694614504D-01
 ANorm=    0.1037753609D+01
 E2 =    -0.2287870411D+00 EUMP2 =    -0.33796356732210D+02
 Leave Link  804 at Sun Dec 10 06:20:00 2023, MaxMem=   536870912 cpu:               0.2 elap:               0.1
 (Enter /usr/site/hpc/x86_64/glibc-2.17/broadwell/gaussian/g16_a.03/pgi-16.5/g16/l913.exe)
 CIDS:  MDV=   536870912.
 IFCWin=0 IBDFC=1 NFBD=     0     0 NFCmp=     0     0 NFFFC=     0     0
 Using DD3R+UMP44R for 1st iteration.
 Using DD4RQ for 2nd and later iterations.
 Keep R2 and R3 ints in memory in symmetry-blocked form, NReq=865454.
 FoFCou: FMM=F IPFlag=           0 FMFlag=           0 FMFlg1=           0
         NFxFlg=           0 DoJE=F BraDBF=F KetDBF=F FulRan=T
         wScrn=  0.000000 ICntrl=       600 IOpCl=  0 I1Cent=           0 NGrid=           0
         NMat0=    1 NMatS0=    300 NMatT0=    0 NMatD0=    1 NMtDS0=    0 NMtDT0=    0
 Petite list used in FoFCou.
 CIDS: In Core Option IDoMem=           1.
 CCSD(T)
 =======
 Iterations=  50 Convergence= 0.100D-06
 Produce multiple copies of IABC intergrals
 Iteration Nr.   1
 **********************
 DD1Dir will call FoFMem   1 times, MxPair=        72
 NAB=    36 NAA=     0 NBB=     0.
 MP4(R+Q)= -0.53907635D-03
 Maximum subspace dimension=  5
 A-vector RMS=  6.7473995D-03 Max=  1.5709993D-02 conv= 1.00D-05.
 RLE energy=       -0.2324157168
 E3=       -0.33504609D-02        EUMP3=      -0.33799707193D+02
 E4(DQ)=   -0.55207415D-02        UMP4(DQ)=   -0.33805227935D+02
 E4(SDQ)=  -0.81739759D-02        UMP4(SDQ)=  -0.33807881169D+02
 VARIATIONAL ENERGIES WITH THE FIRST-ORDER WAVEFUNCTION:
 DE(Corr)= -0.23235951     E(Corr)=     -33.799929201    
 NORM(A)=   0.10405708D+01
 Iteration Nr.   2
 **********************
 DD1Dir will call FoFMem   1 times, MxPair=        72
 NAB=    36 NAA=     0 NBB=     0.
 A-vector RMS=  9.8063470D-04 Max=  2.9558532D-03 conv= 1.00D-05.
 RLE energy=       -0.2402576284
 DE(Corr)= -0.23863191     E(CORR)=     -33.806201600     Delta=-6.27D-03
 NORM(A)=   0.10443022D+01
 Iteration Nr.   3
 **********************
 DD1Dir will call FoFMem   1 times, MxPair=        72
 NAB=    36 NAA=     0 NBB=     0.
 A-vector RMS=  7.5125480D-04 Max=  3.2361708D-03 conv= 1.00D-05.
 RLE energy=       -0.2408370113
 DE(Corr)= -0.24031594     E(CORR)=     -33.807885628     Delta=-1.68D-03
 NORM(A)=   0.10449765D+01
 Iteration Nr.   4
 **********************
 DD1Dir will call FoFMem   1 times, MxPair=        72
 NAB=    36 NAA=     0 NBB=     0.
 A-vector RMS=  1.3670381D-04 Max=  9.7084179D-04 conv= 1.00D-05.
 RLE energy=       -0.2409082718
 DE(Corr)= -0.24086229     E(CORR)=     -33.808431982     Delta=-5.46D-04
 NORM(A)=   0.10450916D+01
 Iteration Nr.   5
 **********************
 DD1Dir will call FoFMem   1 times, MxPair=        72
 NAB=    36 NAA=     0 NBB=     0.
 A-vector RMS=  8.8303706D-05 Max=  4.0531438D-04 conv= 1.00D-05.
 RLE energy=       -0.2409143321
 DE(Corr)= -0.24090544     E(CORR)=     -33.808475127     Delta=-4.31D-05
 NORM(A)=   0.10451218D+01
 Iteration Nr.   6
 **********************
 DD1Dir will call FoFMem   1 times, MxPair=        72
 NAB=    36 NAA=     0 NBB=     0.
 A-vector RMS=  3.3804089D-05 Max=  1.4678131D-04 conv= 1.00D-05.
 RLE energy=       -0.2409084141
 DE(Corr)= -0.24091182     E(CORR)=     -33.808481506     Delta=-6.38D-06
 NORM(A)=   0.10451309D+01
 Iteration Nr.   7
 **********************
 DD1Dir will call FoFMem   1 times, MxPair=        72
 NAB=    36 NAA=     0 NBB=     0.
 A-vector RMS=  1.1635375D-05 Max=  4.4547489D-05 conv= 1.00D-05.
 RLE energy=       -0.2409087321
 DE(Corr)= -0.24091237     E(CORR)=     -33.808482060     Delta=-5.54D-07
 NORM(A)=   0.10451348D+01
 Iteration Nr.   8
 **********************
 DD1Dir will call FoFMem   1 times, MxPair=        72
 NAB=    36 NAA=     0 NBB=     0.
 A-vector RMS=  4.4331007D-06 Max=  2.0729653D-05 conv= 1.00D-05.
 RLE energy=       -0.2409110351
 DE(Corr)= -0.24091126     E(CORR)=     -33.808480947     Delta= 1.11D-06
 NORM(A)=   0.10451370D+01
 Iteration Nr.   9
 **********************
 DD1Dir will call FoFMem   1 times, MxPair=        72
 NAB=    36 NAA=     0 NBB=     0.
 A-vector RMS=  1.1257993D-06 Max=  3.8198147D-06 conv= 1.00D-05.
 RLE energy=       -0.2409113819
 DE(Corr)= -0.24091145     E(CORR)=     -33.808481139     Delta=-1.92D-07
 NORM(A)=   0.10451376D+01
 Iteration Nr.  10
 **********************
 DD1Dir will call FoFMem   1 times, MxPair=        72
 NAB=    36 NAA=     0 NBB=     0.
 A-vector RMS=  4.0306908D-07 Max=  1.3783339D-06 conv= 1.00D-05.
 RLE energy=       -0.2409117454
 DE(Corr)= -0.24091168     E(CORR)=     -33.808481372     Delta=-2.33D-07
 NORM(A)=   0.10451378D+01
 Iteration Nr.  11
 **********************
 DD1Dir will call FoFMem   1 times, MxPair=        72
 NAB=    36 NAA=     0 NBB=     0.
 A-vector RMS=  1.7279717D-07 Max=  6.1602830D-07 conv= 1.00D-05.
 RLE energy=       -0.2409118054
 DE(Corr)= -0.24091177     E(CORR)=     -33.808481461     Delta=-8.89D-08
 NORM(A)=   0.10451379D+01
 CI/CC converged in   11 iterations to DelEn=-8.89D-08 Conv= 1.00D-07 ErrA1= 1.73D-07 Conv= 1.00D-05
 Wavefunction amplitudes converged. E(Corr)=     -33.808481461    
 Largest amplitude= 4.68D-02
 IPart=  2 IA=    2   12.50% done.
 IPart=  3 IA=    3   24.17% done.
 IPart=  1 IA=    4   35.00% done.
 IPart=  3 IA=    5   45.00% done.
 IPart=  1 IA=    6   54.17% done.
 IPart=  2 IA=    7   62.50% done.
 IPart=  4 IA=    8   70.00% done.
 IPart=  3 IA=   10   82.50% done.
 IPart=  4 IA=   12   91.67% done.
 Time for triples=        0.29 seconds.
 T4(CCSD)= -0.39850616D-02
 T5(CCSD)=  0.66665904D-03
 CCSD(T)= -0.33811799864D+02
 Discarding MO integrals.
 Leave Link  913 at Sun Dec 10 06:20:00 2023, MaxMem=   536870912 cpu:               1.1 elap:               0.3
 (Enter /usr/site/hpc/x86_64/glibc-2.17/broadwell/gaussian/g16_a.03/pgi-16.5/g16/l601.exe)
 Copying SCF densities to generalized density rwf, IOpCl= 0 IROHF=0.

 **********************************************************************

            Population analysis using the SCF density.

 **********************************************************************

 Orbital symmetries:
       Occupied  (A') (A') (A') (A') (A") (A') (A') (A")
       Virtual   (A') (A') (A') (A') (A") (A') (A') (A") (A') (A')
                 (A') (A') (A') (A') (A') (A')
 The electronic state is 1-A'.
 Alpha  occ. eigenvalues --   -1.47313  -1.29895  -0.85771  -0.70744  -0.58711
 Alpha  occ. eigenvalues --   -0.56923  -0.47798  -0.43948
 Alpha virt. eigenvalues --    0.16005   0.22652   0.29876   0.59365   0.72863
 Alpha virt. eigenvalues --    0.76254   0.89813   0.89889   0.95517   1.10327
 Alpha virt. eigenvalues --    1.11466   1.21712   1.26886   1.50764   2.91445
 Alpha virt. eigenvalues --    4.70329
          Condensed to atoms (all electrons):
               1          2          3          4          5          6
     1  O    6.170260   0.454293   0.252625  -0.246591   0.003739   0.014512
     2  H    0.454293   0.650769  -0.065622  -0.213620   0.014194  -0.013272
     3  H    0.252625  -0.065622   0.486605   0.016065  -0.000174   0.004876
     4  O   -0.246591  -0.213620   0.016065   6.664248   0.243321   0.227478
     5  H    0.003739   0.014194  -0.000174   0.243321   0.262126  -0.008923
     6  H    0.014512  -0.013272   0.004876   0.227478  -0.008923   0.400187
 Mulliken charges:
               1
     1  O   -0.648838
     2  H    0.173258
     3  H    0.305624
     4  O   -0.690902
     5  H    0.485716
     6  H    0.375142
 Sum of Mulliken charges =   0.00000
 Mulliken charges with hydrogens summed into heavy atoms:
               1
     1  O   -0.169956
     4  O    0.169956
 Electronic spatial extent (au):  <R**2>=            104.2887
 Charge=              0.0000 electrons
 Dipole moment (field-independent basis, Debye):
    X=             -3.8646    Y=              4.5305    Z=              0.0000  Tot=              5.9549
 Quadrupole moment (field-independent basis, Debye-Ang):
   XX=            -11.3272   YY=            -10.6144   ZZ=            -14.8745
   XY=              2.0557   XZ=              0.0000   YZ=              0.0000
 Traceless Quadrupole moment (field-independent basis, Debye-Ang):
   XX=              0.9448   YY=              1.6576   ZZ=             -2.6024
   XY=              2.0557   XZ=              0.0000   YZ=              0.0000
 Octapole moment (field-independent basis, Debye-Ang**2):
  XXX=             -3.4166  YYY=             20.1188  ZZZ=              0.0000  XYY=             -5.1783
  XXY=              0.5904  XXZ=              0.0000  XZZ=             -0.6870  YZZ=              1.1975
  YYZ=              0.0000  XYZ=              0.0000
 Hexadecapole moment (field-independent basis, Debye-Ang**3):
 XXXX=            -13.1333 YYYY=            -78.5215 ZZZZ=            -12.1350 XXXY=              0.2423
 XXXZ=              0.0000 YYYX=              7.3001 YYYZ=              0.0000 ZZZX=              0.0000
 ZZZY=              0.0000 XXYY=            -18.0957 XXZZ=             -4.5471 YYZZ=            -21.7201
 XXYZ=              0.0000 YYXZ=              0.0000 ZZXY=             -0.1193
 N-N= 3.024019972982D+01 E-N=-1.421218509671D+02  KE= 2.732837691303D+01
 Symmetry A'   KE= 1.847141500594D+01
 Symmetry A"   KE= 8.856961907090D+00
 Leave Link  601 at Sun Dec 10 06:20:00 2023, MaxMem=   536870912 cpu:               0.2 elap:               0.0
 (Enter /usr/site/hpc/x86_64/glibc-2.17/broadwell/gaussian/g16_a.03/pgi-16.5/g16/l9999.exe)
 1\1\GINC-N044\SP\RCCSD(T)-FC\CEP-31G\H4O2\ROOT\10-Dec-2023\0\\#p CCSD(
 T)/CEP-31G\\H2O_H2O_100\\0,1\O,0,0.,-0.009833,0.\H,0,-0.799571,-0.5809
 65,0.\H,0,0.799571,-0.580965,0.\O,0,-1.725701,-1.242497,0.\H,0,-2.5252
 72,-1.813629,0.\H,0,-0.926129,-1.813629,0.\\Version=ES64L-G16RevA.03\S
 tate=1-A'\HF=-33.5675697\MP2=-33.7963567\MP3=-33.7997072\MP4D=-33.8046
 889\MP4DQ=-33.8052279\MP4SDQ=-33.8078812\CCSD=-33.8084815\CCSD(T)=-33.
 8117999\RMSD=6.611e-09\PG=CS [SG(H4O2)]\\@


 I DO NOT DEFINE TIME, SPACE, PLACE, AND MOTION, AS BEING WELL KNOWN TO ALL.
                                            -- NEWTON (1642-1726), PRINCIPIA
 Job cpu time:       0 days  0 hours  0 minutes  4.2 seconds.
 Elapsed time:       0 days  0 hours  0 minutes  1.2 seconds.
 File lengths (MBytes):  RWF=     72 Int=      0 D2E=      0 Chk=      8 Scr=      8
 Normal termination of Gaussian 16 at Sun Dec 10 06:20:00 2023.
