 Entering Gaussian System, Link 0=g16
 Input=H2O_H2O_561.com
 Output=H2O_H2O_561.log
 Initial command:
 /usr/site/hpc/x86_64/glibc-2.17/broadwell/gaussian/g16_a.03/pgi-16.5/g16/l1.exe "/gpfs/gpfs1/scratch/c7441090/OH Coord/Gau-1635923.inp" -scrdir="/gpfs/gpfs1/scratch/c7441090/OH Coord/"
 Entering Link 1 = /usr/site/hpc/x86_64/glibc-2.17/broadwell/gaussian/g16_a.03/pgi-16.5/g16/l1.exe PID=   1635924.
  
 Copyright (c) 1988,1990,1992,1993,1995,1998,2003,2009,2016,
            Gaussian, Inc.  All Rights Reserved.
  
 This is part of the Gaussian(R) 16 program.  It is based on
 the Gaussian(R) 09 system (copyright 2009, Gaussian, Inc.),
 the Gaussian(R) 03 system (copyright 2003, Gaussian, Inc.),
 the Gaussian(R) 98 system (copyright 1998, Gaussian, Inc.),
 the Gaussian(R) 94 system (copyright 1995, Gaussian, Inc.),
 the Gaussian 92(TM) system (copyright 1992, Gaussian, Inc.),
 the Gaussian 90(TM) system (copyright 1990, Gaussian, Inc.),
 the Gaussian 88(TM) system (copyright 1988, Gaussian, Inc.),
 the Gaussian 86(TM) system (copyright 1986, Carnegie Mellon
 University), and the Gaussian 82(TM) system (copyright 1983,
 Carnegie Mellon University). Gaussian is a federally registered
 trademark of Gaussian, Inc.
  
 This software contains proprietary and confidential information,
 including trade secrets, belonging to Gaussian, Inc.
  
 This software is provided under written license and may be
 used, copied, transmitted, or stored only in accord with that
 written license.
  
 The following legend is applicable only to US Government
 contracts under FAR:
  
                    RESTRICTED RIGHTS LEGEND
  
 Use, reproduction and disclosure by the US Government is
 subject to restrictions as set forth in subparagraphs (a)
 and (c) of the Commercial Computer Software - Restricted
 Rights clause in FAR 52.227-19.
  
 Gaussian, Inc.
 340 Quinnipiac St., Bldg. 40, Wallingford CT 06492
  
  
 ---------------------------------------------------------------
 Warning -- This program may not be used in any manner that
 competes with the business of Gaussian, Inc. or will provide
 assistance to any competitor of Gaussian, Inc.  The licensee
 of this program is prohibited from giving any competitor of
 Gaussian, Inc. access to this program.  By using this program,
 the user acknowledges that Gaussian, Inc. is engaged in the
 business of creating and licensing software in the field of
 computational chemistry and represents and warrants to the
 licensee that it is not a competitor of Gaussian, Inc. and that
 it will not use this program in any manner prohibited above.
 ---------------------------------------------------------------
  

 Cite this work as:
 Gaussian 16, Revision A.03,
 M. J. Frisch, G. W. Trucks, H. B. Schlegel, G. E. Scuseria, 
 M. A. Robb, J. R. Cheeseman, G. Scalmani, V. Barone, 
 G. A. Petersson, H. Nakatsuji, X. Li, M. Caricato, A. V. Marenich, 
 J. Bloino, B. G. Janesko, R. Gomperts, B. Mennucci, H. P. Hratchian, 
 J. V. Ortiz, A. F. Izmaylov, J. L. Sonnenberg, D. Williams-Young, 
 F. Ding, F. Lipparini, F. Egidi, J. Goings, B. Peng, A. Petrone, 
 T. Henderson, D. Ranasinghe, V. G. Zakrzewski, J. Gao, N. Rega, 
 G. Zheng, W. Liang, M. Hada, M. Ehara, K. Toyota, R. Fukuda, 
 J. Hasegawa, M. Ishida, T. Nakajima, Y. Honda, O. Kitao, H. Nakai, 
 T. Vreven, K. Throssell, J. A. Montgomery, Jr., J. E. Peralta, 
 F. Ogliaro, M. J. Bearpark, J. J. Heyd, E. N. Brothers, K. N. Kudin, 
 V. N. Staroverov, T. A. Keith, R. Kobayashi, J. Normand, 
 K. Raghavachari, A. P. Rendell, J. C. Burant, S. S. Iyengar, 
 J. Tomasi, M. Cossi, J. M. Millam, M. Klene, C. Adamo, R. Cammi, 
 J. W. Ochterski, R. L. Martin, K. Morokuma, O. Farkas, 
 J. B. Foresman, and D. J. Fox, Gaussian, Inc., Wallingford CT, 2016.
 
 ******************************************
 Gaussian 16:  ES64L-G16RevA.03 25-Dec-2016
                10-Dec-2023 
 ******************************************
 %NProcShared=4
 Will use up to    4 processors via shared memory.
 %Mem=4GB
 %Chk=H2O_H2O_561.chk
 ------------------
 #p CCSD(T)/CEP-31G
 ------------------
 1/38=1,172=1/1;
 2/12=2,17=6,18=5,40=1/2;
 3/5=9,6=1,11=9,25=1,30=1/1,2,3;
 4//1;
 5/5=2,38=5/2;
 8/6=4,9=120000,10=1/1,4;
 9/5=7,14=2/13;
 6/7=2,8=2,9=2,10=2/1;
 99/5=1,9=1/99;
 Leave Link    1 at Sun Dec 10 06:29:04 2023, MaxMem=   536870912 cpu:               0.2 elap:               0.1
 (Enter /usr/site/hpc/x86_64/glibc-2.17/broadwell/gaussian/g16_a.03/pgi-16.5/g16/l101.exe)
 -----------
 H2O_H2O_561
 -----------
 Symbolic Z-matrix:
 Charge =  0 Multiplicity = 1
 O                     0.       -0.00983   0. 
 H                    -0.79957  -0.58097   0. 
 H                     0.79957  -0.58097   0. 
 O                    -2.0243   -1.44872   0. 
 H                    -3.00203  -1.35092   0. 
 H                    -1.79973  -2.40531   0. 
 
 ITRead=  0  0  0  0  0  0
 MicOpt= -1 -1 -1 -1 -1 -1
 NAtoms=      6 NQM=        6 NQMF=       0 NMMI=      0 NMMIF=      0
                NMic=       0 NMicF=      0.
                    Isotopes and Nuclear Properties:
 (Nuclear quadrupole moments (NQMom) in fm**2, nuclear magnetic moments (NMagM)
  in nuclear magnetons)

  Atom         1           2           3           4           5           6
 IAtWgt=          16           1           1          16           1           1
 AtmWgt=  15.9949146   1.0078250   1.0078250  15.9949146   1.0078250   1.0078250
 NucSpn=           0           1           1           0           1           1
 AtZEff=  -0.0000000  -0.0000000  -0.0000000  -0.0000000  -0.0000000  -0.0000000
 NQMom=    0.0000000   0.0000000   0.0000000   0.0000000   0.0000000   0.0000000
 NMagM=    0.0000000   2.7928460   2.7928460   0.0000000   2.7928460   2.7928460
 AtZNuc=   8.0000000   1.0000000   1.0000000   8.0000000   1.0000000   1.0000000
 Leave Link  101 at Sun Dec 10 06:29:04 2023, MaxMem=   536870912 cpu:               0.3 elap:               0.1
 (Enter /usr/site/hpc/x86_64/glibc-2.17/broadwell/gaussian/g16_a.03/pgi-16.5/g16/l202.exe)
                          Input orientation:                          
 ---------------------------------------------------------------------
 Center     Atomic      Atomic             Coordinates (Angstroms)
 Number     Number       Type             X           Y           Z
 ---------------------------------------------------------------------
      1          8           0        0.000000   -0.009833    0.000000
      2          1           0       -0.799571   -0.580965    0.000000
      3          1           0        0.799571   -0.580965    0.000000
      4          8           0       -2.024304   -1.448718    0.000000
      5          1           0       -3.002027   -1.350923    0.000000
      6          1           0       -1.799728   -2.405311    0.000000
 ---------------------------------------------------------------------
                    Distance matrix (angstroms):
                    1          2          3          4          5
     1  O    0.000000
     2  H    0.982601   0.000000
     3  H    0.982601   1.599142   0.000000
     4  O    2.483585   1.500988   2.954195   0.000000
     5  H    3.287961   2.333163   3.878786   0.982602   0.000000
     6  H    2.996220   2.080517   3.175625   0.982601   1.599143
                    6
     6  H    0.000000
 Stoichiometry    H4O2
 Framework group  CS[SG(H4O2)]
 Deg. of freedom     9
 Full point group                 CS      NOp   2
 Largest Abelian subgroup         CS      NOp   2
 Largest concise Abelian subgroup C1      NOp   1
                         Standard orientation:                         
 ---------------------------------------------------------------------
 Center     Atomic      Atomic             Coordinates (Angstroms)
 Number     Number       Type             X           Y           Z
 ---------------------------------------------------------------------
      1          8           0        0.059734    1.330453    0.000000
      2          1           0        0.057457    0.347854    0.000000
      3          1           0       -0.869019    1.651272    0.000000
      4          8           0        0.059734   -1.153133   -0.000000
      5          1           0        0.705895   -1.893390   -0.000000
      6          1           0       -0.850070   -1.524297   -0.000000
 ---------------------------------------------------------------------
 Rotational constants (GHZ):         246.2312288           8.6563151           8.3623353
 Leave Link  202 at Sun Dec 10 06:29:04 2023, MaxMem=   536870912 cpu:               0.0 elap:               0.0
 (Enter /usr/site/hpc/x86_64/glibc-2.17/broadwell/gaussian/g16_a.03/pgi-16.5/g16/l301.exe)
 Standard basis: CEP-31G (6D, 10F)
 Ernie: Thresh=  0.10000D-02 Tol=  0.10000D-05 Strict=F.
 There are    20 symmetry adapted cartesian basis functions of A'  symmetry.
 There are     4 symmetry adapted cartesian basis functions of A"  symmetry.
 There are    20 symmetry adapted basis functions of A'  symmetry.
 There are     4 symmetry adapted basis functions of A"  symmetry.
    24 basis functions,    48 primitive gaussians,    24 cartesian basis functions
     8 alpha electrons        8 beta electrons
       nuclear repulsion energy        27.2571277493 Hartrees.
 IExCor=    0 DFT=F Ex=HF Corr=None ExCW=0 ScaHFX=  1.000000
 ScaDFX=  1.000000  1.000000  1.000000  1.000000 ScalE2=  1.000000  1.000000
 IRadAn=      5 IRanWt=     -1 IRanGd=            0 ICorTp=0 IEmpDi=  4
 NAtoms=    6 NActive=    6 NUniq=    6 SFac= 1.00D+00 NAtFMM=   60 NAOKFM=F Big=F
 Integral buffers will be    131072 words long.
 Raffenetti 1 integral format.
 Two-electron integral symmetry is turned on.
 Leave Link  301 at Sun Dec 10 06:29:04 2023, MaxMem=   536870912 cpu:               0.2 elap:               0.1
 (Enter /usr/site/hpc/x86_64/glibc-2.17/broadwell/gaussian/g16_a.03/pgi-16.5/g16/l302.exe)
 NPDir=0 NMtPBC=     1 NCelOv=     1 NCel=       1 NClECP=     1 NCelD=      1
         NCelK=      1 NCelE2=     1 NClLst=     1 CellRange=     0.0.
 One-electron integrals computed using PRISM.
 One-electron integral symmetry used in STVInt
   2 Symmetry operations used in ECPInt.
 ECPInt:  NShTT=      78 NPrTT=     318 LenC2=      79 LenP2D=     297.
 LDataN:  DoStor=T MaxTD1= 2 Len=   12
 NBasis=    24 RedAO= T EigKep=  8.89D-03  NBF=    20     4
 NBsUse=    24 1.00D-06 EigRej= -1.00D+00 NBFU=    20     4
 Leave Link  302 at Sun Dec 10 06:29:04 2023, MaxMem=   536870912 cpu:               0.3 elap:               0.1
 (Enter /usr/site/hpc/x86_64/glibc-2.17/broadwell/gaussian/g16_a.03/pgi-16.5/g16/l303.exe)
 DipDrv:  MaxL=1.
 Leave Link  303 at Sun Dec 10 06:29:04 2023, MaxMem=   536870912 cpu:               0.1 elap:               0.0
 (Enter /usr/site/hpc/x86_64/glibc-2.17/broadwell/gaussian/g16_a.03/pgi-16.5/g16/l401.exe)
 ExpMin= 1.78D-01 ExpMax= 1.92D+01 ExpMxC= 1.92D+01 IAcc=3 IRadAn=         5 AccDes= 0.00D+00
 Harris functional with IExCor=  205 and IRadAn=       5 diagonalized for initial guess.
 HarFok:  IExCor=  205 AccDes= 0.00D+00 IRadAn=         5 IDoV= 1 UseB2=F ITyADJ=14
 ICtDFT=  3500011 ScaDFX=  1.000000  1.000000  1.000000  1.000000
 FoFCou: FMM=F IPFlag=           0 FMFlag=      100000 FMFlg1=           0
         NFxFlg=           0 DoJE=T BraDBF=F KetDBF=T FulRan=T
         wScrn=  0.000000 ICntrl=       500 IOpCl=  0 I1Cent=   200000004 NGrid=           0
         NMat0=    1 NMatS0=      1 NMatT0=    0 NMatD0=    1 NMtDS0=    0 NMtDT0=    0
 Petite list used in FoFCou.
 Harris En= -34.4884148098930    
 JPrj=0 DoOrth=F DoCkMO=F.
 Initial guess orbital symmetries:
       Occupied  (A') (A') (A') (A') (A') (A') (A") (A")
       Virtual   (A') (A') (A') (A') (A") (A') (A') (A") (A') (A')
                 (A') (A') (A') (A') (A') (A')
 The electronic state of the initial guess is 1-A'.
 Leave Link  401 at Sun Dec 10 06:29:04 2023, MaxMem=   536870912 cpu:               0.4 elap:               0.1
 (Enter /usr/site/hpc/x86_64/glibc-2.17/broadwell/gaussian/g16_a.03/pgi-16.5/g16/l502.exe)
 Keep R1 ints in memory in symmetry-blocked form, NReq=852729.
 FoFCou: FMM=F IPFlag=           0 FMFlag=           0 FMFlg1=           0
         NFxFlg=           0 DoJE=F BraDBF=F KetDBF=F FulRan=T
         wScrn=  0.000000 ICntrl=       600 IOpCl=  0 I1Cent=           0 NGrid=           0
         NMat0=    1 NMatS0=    300 NMatT0=    0 NMatD0=    1 NMtDS0=    0 NMtDT0=    0
 Petite list used in FoFCou.
 Closed shell SCF:
 Using DIIS extrapolation, IDIIS=  1040.
 NGot=   536870912 LenX=   536840576 LenY=   536839559
 Requested convergence on RMS density matrix=1.00D-08 within 128 cycles.
 Requested convergence on MAX density matrix=1.00D-06.
 Requested convergence on             energy=1.00D-06.
 No special actions if energy rises.

 Cycle   1  Pass 1  IDiag  1:
 E= -33.5644461350883    
 DIIS: error= 5.91D-02 at cycle   1 NSaved=   1.
 NSaved= 1 IEnMin= 1 EnMin= -33.5644461350883     IErMin= 1 ErrMin= 5.91D-02
 ErrMax= 5.91D-02  0.00D+00 EMaxC= 1.00D-01 BMatC= 9.56D-02 BMatP= 9.56D-02
 IDIUse=3 WtCom= 4.09D-01 WtEn= 5.91D-01
 Coeff-Com:  0.100D+01
 Coeff-En:   0.100D+01
 Coeff:      0.100D+01
 Gap=     0.525 Goal=   None    Shift=    0.000
 GapD=    0.525 DampG=2.000 DampE=0.500 DampFc=1.0000 IDamp=-1.
 RMSDP=1.75D-02 MaxDP=1.34D-01              OVMax= 1.06D-01

 Cycle   2  Pass 1  IDiag  1:
 E= -33.6273556162223     Delta-E=       -0.062909481134 Rises=F Damp=F
 DIIS: error= 3.35D-02 at cycle   2 NSaved=   2.
 NSaved= 2 IEnMin= 2 EnMin= -33.6273556162223     IErMin= 2 ErrMin= 3.35D-02
 ErrMax= 3.35D-02  0.00D+00 EMaxC= 1.00D-01 BMatC= 3.26D-02 BMatP= 9.56D-02
 IDIUse=3 WtCom= 6.65D-01 WtEn= 3.35D-01
 Coeff-Com:  0.365D+00 0.635D+00
 Coeff-En:   0.420D-01 0.958D+00
 Coeff:      0.257D+00 0.743D+00
 Gap=     0.619 Goal=   None    Shift=    0.000
 RMSDP=6.49D-03 MaxDP=5.92D-02 DE=-6.29D-02 OVMax= 3.73D-02

 Cycle   3  Pass 1  IDiag  1:
 E= -33.6531918192910     Delta-E=       -0.025836203069 Rises=F Damp=F
 DIIS: error= 6.68D-03 at cycle   3 NSaved=   3.
 NSaved= 3 IEnMin= 3 EnMin= -33.6531918192910     IErMin= 3 ErrMin= 6.68D-03
 ErrMax= 6.68D-03  0.00D+00 EMaxC= 1.00D-01 BMatC= 9.67D-04 BMatP= 3.26D-02
 IDIUse=3 WtCom= 9.33D-01 WtEn= 6.68D-02
 Coeff-Com: -0.987D-01 0.141D-01 0.108D+01
 Coeff-En:   0.000D+00 0.000D+00 0.100D+01
 Coeff:     -0.921D-01 0.132D-01 0.108D+01
 Gap=     0.608 Goal=   None    Shift=    0.000
 RMSDP=1.40D-03 MaxDP=1.11D-02 DE=-2.58D-02 OVMax= 8.88D-03

 Cycle   4  Pass 1  IDiag  1:
 E= -33.6541314038255     Delta-E=       -0.000939584534 Rises=F Damp=F
 DIIS: error= 5.68D-04 at cycle   4 NSaved=   4.
 NSaved= 4 IEnMin= 4 EnMin= -33.6541314038255     IErMin= 4 ErrMin= 5.68D-04
 ErrMax= 5.68D-04  0.00D+00 EMaxC= 1.00D-01 BMatC= 8.10D-06 BMatP= 9.67D-04
 IDIUse=3 WtCom= 9.94D-01 WtEn= 5.68D-03
 Coeff-Com: -0.867D-02-0.227D-01-0.772D-02 0.104D+01
 Coeff-En:   0.000D+00 0.000D+00 0.000D+00 0.100D+01
 Coeff:     -0.862D-02-0.226D-01-0.768D-02 0.104D+01
 Gap=     0.611 Goal=   None    Shift=    0.000
 RMSDP=2.30D-04 MaxDP=1.86D-03 DE=-9.40D-04 OVMax= 1.12D-03

 Cycle   5  Pass 1  IDiag  1:
 E= -33.6541446186757     Delta-E=       -0.000013214850 Rises=F Damp=F
 DIIS: error= 1.72D-04 at cycle   5 NSaved=   5.
 NSaved= 5 IEnMin= 5 EnMin= -33.6541446186757     IErMin= 5 ErrMin= 1.72D-04
 ErrMax= 1.72D-04  0.00D+00 EMaxC= 1.00D-01 BMatC= 1.35D-06 BMatP= 8.10D-06
 IDIUse=3 WtCom= 9.98D-01 WtEn= 1.72D-03
 Coeff-Com:  0.129D-01-0.668D-02-0.161D+00 0.257D+00 0.898D+00
 Coeff-En:   0.000D+00 0.000D+00 0.000D+00 0.000D+00 0.100D+01
 Coeff:      0.129D-01-0.667D-02-0.161D+00 0.257D+00 0.898D+00
 Gap=     0.611 Goal=   None    Shift=    0.000
 RMSDP=8.01D-05 MaxDP=5.58D-04 DE=-1.32D-05 OVMax= 4.44D-04

 Cycle   6  Pass 1  IDiag  1:
 E= -33.6541464242011     Delta-E=       -0.000001805525 Rises=F Damp=F
 DIIS: error= 3.75D-05 at cycle   6 NSaved=   6.
 NSaved= 6 IEnMin= 6 EnMin= -33.6541464242011     IErMin= 6 ErrMin= 3.75D-05
 ErrMax= 3.75D-05  0.00D+00 EMaxC= 1.00D-01 BMatC= 2.29D-08 BMatP= 1.35D-06
 IDIUse=1 WtCom= 1.00D+00 WtEn= 0.00D+00
 Coeff-Com: -0.331D-02 0.225D-02 0.439D-01-0.112D+00-0.227D+00 0.130D+01
 Coeff:     -0.331D-02 0.225D-02 0.439D-01-0.112D+00-0.227D+00 0.130D+01
 Gap=     0.611 Goal=   None    Shift=    0.000
 RMSDP=1.66D-05 MaxDP=1.45D-04 DE=-1.81D-06 OVMax= 9.90D-05

 Cycle   7  Pass 1  IDiag  1:
 E= -33.6541464802023     Delta-E=       -0.000000056001 Rises=F Damp=F
 DIIS: error= 5.14D-06 at cycle   7 NSaved=   7.
 NSaved= 7 IEnMin= 7 EnMin= -33.6541464802023     IErMin= 7 ErrMin= 5.14D-06
 ErrMax= 5.14D-06  0.00D+00 EMaxC= 1.00D-01 BMatC= 5.83D-10 BMatP= 2.29D-08
 IDIUse=1 WtCom= 1.00D+00 WtEn= 0.00D+00
 Coeff-Com:  0.942D-03-0.623D-03-0.125D-01 0.351D-01 0.614D-01-0.459D+00
 Coeff-Com:  0.137D+01
 Coeff:      0.942D-03-0.623D-03-0.125D-01 0.351D-01 0.614D-01-0.459D+00
 Coeff:      0.137D+01
 Gap=     0.611 Goal=   None    Shift=    0.000
 RMSDP=2.67D-06 MaxDP=1.47D-05 DE=-5.60D-08 OVMax= 2.28D-05

 Cycle   8  Pass 1  IDiag  1:
 E= -33.6541464818218     Delta-E=       -0.000000001620 Rises=F Damp=F
 DIIS: error= 9.94D-07 at cycle   8 NSaved=   8.
 NSaved= 8 IEnMin= 8 EnMin= -33.6541464818218     IErMin= 8 ErrMin= 9.94D-07
 ErrMax= 9.94D-07  0.00D+00 EMaxC= 1.00D-01 BMatC= 2.39D-11 BMatP= 5.83D-10
 IDIUse=1 WtCom= 1.00D+00 WtEn= 0.00D+00
 Coeff-Com: -0.692D-04 0.243D-04 0.839D-03-0.287D-02-0.227D-02 0.399D-01
 Coeff-Com: -0.279D+00 0.124D+01
 Coeff:     -0.692D-04 0.243D-04 0.839D-03-0.287D-02-0.227D-02 0.399D-01
 Coeff:     -0.279D+00 0.124D+01
 Gap=     0.611 Goal=   None    Shift=    0.000
 RMSDP=4.83D-07 MaxDP=3.05D-06 DE=-1.62D-09 OVMax= 4.51D-06

 Cycle   9  Pass 1  IDiag  1:
 E= -33.6541464818836     Delta-E=       -0.000000000062 Rises=F Damp=F
 DIIS: error= 2.06D-07 at cycle   9 NSaved=   9.
 NSaved= 9 IEnMin= 9 EnMin= -33.6541464818836     IErMin= 9 ErrMin= 2.06D-07
 ErrMax= 2.06D-07  0.00D+00 EMaxC= 1.00D-01 BMatC= 1.05D-12 BMatP= 2.39D-11
 IDIUse=1 WtCom= 1.00D+00 WtEn= 0.00D+00
 Coeff-Com:  0.997D-05 0.340D-05-0.878D-04 0.303D-03-0.328D-03-0.348D-02
 Coeff-Com:  0.598D-01-0.461D+00 0.141D+01
 Coeff:      0.997D-05 0.340D-05-0.878D-04 0.303D-03-0.328D-03-0.348D-02
 Coeff:      0.598D-01-0.461D+00 0.141D+01
 Gap=     0.611 Goal=   None    Shift=    0.000
 RMSDP=1.40D-07 MaxDP=7.12D-07 DE=-6.18D-11 OVMax= 1.22D-06

 Cycle  10  Pass 1  IDiag  1:
 E= -33.6541464818868     Delta-E=       -0.000000000003 Rises=F Damp=F
 DIIS: error= 2.95D-08 at cycle  10 NSaved=  10.
 NSaved=10 IEnMin=10 EnMin= -33.6541464818868     IErMin=10 ErrMin= 2.95D-08
 ErrMax= 2.95D-08  0.00D+00 EMaxC= 1.00D-01 BMatC= 1.95D-14 BMatP= 1.05D-12
 IDIUse=1 WtCom= 1.00D+00 WtEn= 0.00D+00
 Coeff-Com: -0.153D-06-0.246D-05-0.862D-05 0.208D-04 0.234D-03-0.465D-03
 Coeff-Com: -0.912D-02 0.101D+00-0.415D+00 0.132D+01
 Coeff:     -0.153D-06-0.246D-05-0.862D-05 0.208D-04 0.234D-03-0.465D-03
 Coeff:     -0.912D-02 0.101D+00-0.415D+00 0.132D+01
 Gap=     0.611 Goal=   None    Shift=    0.000
 RMSDP=2.15D-08 MaxDP=1.29D-07 DE=-3.17D-12 OVMax= 1.70D-07

 Cycle  11  Pass 1  IDiag  1:
 E= -33.6541464818870     Delta-E=       -0.000000000000 Rises=F Damp=F
 DIIS: error= 3.95D-09 at cycle  11 NSaved=  11.
 NSaved=11 IEnMin=11 EnMin= -33.6541464818870     IErMin=11 ErrMin= 3.95D-09
 ErrMax= 3.95D-09  0.00D+00 EMaxC= 1.00D-01 BMatC= 3.13D-16 BMatP= 1.95D-14
 IDIUse=1 WtCom= 1.00D+00 WtEn= 0.00D+00
 Coeff-Com: -0.112D-06 0.657D-06 0.392D-05-0.108D-04-0.668D-04 0.193D-03
 Coeff-Com:  0.177D-02-0.233D-01 0.103D+00-0.413D+00 0.133D+01
 Coeff:     -0.112D-06 0.657D-06 0.392D-05-0.108D-04-0.668D-04 0.193D-03
 Coeff:      0.177D-02-0.233D-01 0.103D+00-0.413D+00 0.133D+01
 Gap=     0.611 Goal=   None    Shift=    0.000
 RMSDP=2.99D-09 MaxDP=2.19D-08 DE=-1.56D-13 OVMax= 2.35D-08

 SCF Done:  E(RHF) =  -33.6541464819     A.U. after   11 cycles
            NFock= 11  Conv=0.30D-08     -V/T= 2.2482
 KE= 2.696276777674D+01 PE=-1.362979881985D+02 EE= 4.842394619054D+01
 Leave Link  502 at Sun Dec 10 06:29:04 2023, MaxMem=   536870912 cpu:               0.3 elap:               0.1
 (Enter /usr/site/hpc/x86_64/glibc-2.17/broadwell/gaussian/g16_a.03/pgi-16.5/g16/l801.exe)
 Windowed orbitals will be sorted by symmetry type.
 Range of M.O.s used for correlation:     1    24
 NBasis=    24 NAE=     8 NBE=     8 NFC=     0 NFV=     0
 NROrb=     24 NOA=     8 NOB=     8 NVA=    16 NVB=    16
 Leave Link  801 at Sun Dec 10 06:29:04 2023, MaxMem=   536870912 cpu:               0.1 elap:               0.0
 (Enter /usr/site/hpc/x86_64/glibc-2.17/broadwell/gaussian/g16_a.03/pgi-16.5/g16/l804.exe)
 Closed-shell transformation, MDV=   536870912 ITran=4 ISComp=2.
 Unit  1 TFree=       1025975 TCopy=        210600.
 Semi-Direct transformation.
 ModeAB=           2 MOrb=             8 LenV=     536741510
 LASXX=        22470 LTotXX=       22470 LenRXX=       22470
 LTotAB=       26208 MaxLAS=       57600 LenRXY=       57600
 NonZer=       62208 LenScr=      524288 LnRSAI=           0
 LnScr1=           0 LExtra=           0 Total=       604358
 MaxDsk=          -1 SrtSym=           F ITran=            4
 DoSDTr:  NPSUse=  4
 JobTyp=0 Pass  1:  I=   1 to   8.
 (rs|ai) integrals will be sorted in core.
 Complete sort for first half transformation.
 First half transformation complete.
 Complete sort for second half transformation.
 Second half transformation complete.
 Spin components of T(2) and E(2):
     alpha-alpha T2 =       0.9222378877D-02 E2=     -0.2663740836D-01
     alpha-beta  T2 =       0.5873181024D-01 E2=     -0.1757224088D+00
     beta-beta   T2 =       0.9222378877D-02 E2=     -0.2663740836D-01
 ANorm=    0.1037871171D+01
 E2 =    -0.2289972255D+00 EUMP2 =    -0.33883143707382D+02
 Leave Link  804 at Sun Dec 10 06:29:04 2023, MaxMem=   536870912 cpu:               0.2 elap:               0.1
 (Enter /usr/site/hpc/x86_64/glibc-2.17/broadwell/gaussian/g16_a.03/pgi-16.5/g16/l913.exe)
 CIDS:  MDV=   536870912.
 IFCWin=0 IBDFC=1 NFBD=     0     0 NFCmp=     0     0 NFFFC=     0     0
 Using DD3R+UMP44R for 1st iteration.
 Using DD4RQ for 2nd and later iterations.
 Keep R2 and R3 ints in memory in symmetry-blocked form, NReq=865337.
 FoFCou: FMM=F IPFlag=           0 FMFlag=           0 FMFlg1=           0
         NFxFlg=           0 DoJE=F BraDBF=F KetDBF=F FulRan=T
         wScrn=  0.000000 ICntrl=       600 IOpCl=  0 I1Cent=           0 NGrid=           0
         NMat0=    1 NMatS0=    300 NMatT0=    0 NMatD0=    1 NMtDS0=    0 NMtDT0=    0
 Petite list used in FoFCou.
 CIDS: In Core Option IDoMem=           1.
 CCSD(T)
 =======
 Iterations=  50 Convergence= 0.100D-06
 Produce multiple copies of IABC intergrals
 Iteration Nr.   1
 **********************
 DD1Dir will call FoFMem   1 times, MxPair=        72
 NAB=    36 NAA=     0 NBB=     0.
 MP4(R+Q)= -0.63514612D-03
 Maximum subspace dimension=  5
 A-vector RMS=  5.9896135D-03 Max=  1.3256799D-02 conv= 1.00D-05.
 RLE energy=       -0.2336675695
 E3=       -0.42215247D-02        EUMP3=      -0.33887365232D+02
 E4(DQ)=   -0.55652217D-02        UMP4(DQ)=   -0.33892930454D+02
 E4(SDQ)=  -0.77688682D-02        UMP4(SDQ)=  -0.33895134100D+02
 VARIATIONAL ENERGIES WITH THE FIRST-ORDER WAVEFUNCTION:
 DE(Corr)= -0.23357457     E(Corr)=     -33.887721053    
 NORM(A)=   0.10407934D+01
 Iteration Nr.   2
 **********************
 DD1Dir will call FoFMem   1 times, MxPair=        72
 NAB=    36 NAA=     0 NBB=     0.
 A-vector RMS=  9.4840683D-04 Max=  2.3793674D-03 conv= 1.00D-05.
 RLE energy=       -0.2412174257
 DE(Corr)= -0.23945848     E(CORR)=     -33.893604964     Delta=-5.88D-03
 NORM(A)=   0.10443821D+01
 Iteration Nr.   3
 **********************
 DD1Dir will call FoFMem   1 times, MxPair=        72
 NAB=    36 NAA=     0 NBB=     0.
 A-vector RMS=  4.3915228D-04 Max=  1.4940064D-03 conv= 1.00D-05.
 RLE energy=       -0.2417499550
 DE(Corr)= -0.24130329     E(CORR)=     -33.895449768     Delta=-1.84D-03
 NORM(A)=   0.10449259D+01
 Iteration Nr.   4
 **********************
 DD1Dir will call FoFMem   1 times, MxPair=        72
 NAB=    36 NAA=     0 NBB=     0.
 A-vector RMS=  9.2137035D-05 Max=  3.4015061D-04 conv= 1.00D-05.
 RLE energy=       -0.2417994155
 DE(Corr)= -0.24176566     E(CORR)=     -33.895912145     Delta=-4.62D-04
 NORM(A)=   0.10449928D+01
 Iteration Nr.   5
 **********************
 DD1Dir will call FoFMem   1 times, MxPair=        72
 NAB=    36 NAA=     0 NBB=     0.
 A-vector RMS=  5.4431695D-05 Max=  2.4557801D-04 conv= 1.00D-05.
 RLE energy=       -0.2418008611
 DE(Corr)= -0.24179651     E(CORR)=     -33.895942989     Delta=-3.08D-05
 NORM(A)=   0.10450034D+01
 Iteration Nr.   6
 **********************
 DD1Dir will call FoFMem   1 times, MxPair=        72
 NAB=    36 NAA=     0 NBB=     0.
 A-vector RMS=  1.8106764D-05 Max=  7.5607331D-05 conv= 1.00D-05.
 RLE energy=       -0.2417964679
 DE(Corr)= -0.24179984     E(CORR)=     -33.895946324     Delta=-3.33D-06
 NORM(A)=   0.10450055D+01
 Iteration Nr.   7
 **********************
 DD1Dir will call FoFMem   1 times, MxPair=        72
 NAB=    36 NAA=     0 NBB=     0.
 A-vector RMS=  7.4827948D-06 Max=  2.4517388D-05 conv= 1.00D-05.
 RLE energy=       -0.2417981517
 DE(Corr)= -0.24179985     E(CORR)=     -33.895946327     Delta=-3.66D-09
 NORM(A)=   0.10450075D+01
 Iteration Nr.   8
 **********************
 DD1Dir will call FoFMem   1 times, MxPair=        72
 NAB=    36 NAA=     0 NBB=     0.
 A-vector RMS=  2.9563913D-06 Max=  1.3238198D-05 conv= 1.00D-05.
 RLE energy=       -0.2417990609
 DE(Corr)= -0.24179923     E(CORR)=     -33.895945710     Delta= 6.18D-07
 NORM(A)=   0.10450086D+01
 Iteration Nr.   9
 **********************
 DD1Dir will call FoFMem   1 times, MxPair=        72
 NAB=    36 NAA=     0 NBB=     0.
 A-vector RMS=  5.9354981D-07 Max=  2.0605207D-06 conv= 1.00D-05.
 RLE energy=       -0.2417993901
 DE(Corr)= -0.24179942     E(CORR)=     -33.895945901     Delta=-1.91D-07
 NORM(A)=   0.10450090D+01
 Iteration Nr.  10
 **********************
 DD1Dir will call FoFMem   1 times, MxPair=        72
 NAB=    36 NAA=     0 NBB=     0.
 A-vector RMS=  1.9466902D-07 Max=  7.6591374D-07 conv= 1.00D-05.
 RLE energy=       -0.2417996055
 DE(Corr)= -0.24179957     E(CORR)=     -33.895946047     Delta=-1.46D-07
 NORM(A)=   0.10450091D+01
 Iteration Nr.  11
 **********************
 DD1Dir will call FoFMem   1 times, MxPair=        72
 NAB=    36 NAA=     0 NBB=     0.
 A-vector RMS=  6.2197126D-08 Max=  2.3762198D-07 conv= 1.00D-05.
 RLE energy=       -0.2417996578
 DE(Corr)= -0.24179964     E(CORR)=     -33.895946121     Delta=-7.44D-08
 NORM(A)=   0.10450092D+01
 CI/CC converged in   11 iterations to DelEn=-7.44D-08 Conv= 1.00D-07 ErrA1= 6.22D-08 Conv= 1.00D-05
 Wavefunction amplitudes converged. E(Corr)=     -33.895946121    
 Largest amplitude= 4.84D-02
 IPart=  4 IA=    2   12.50% done.
 IPart=  3 IA=    3   24.17% done.
 IPart=  2 IA=    4   35.00% done.
 IPart=  2 IA=    5   45.00% done.
 IPart=  3 IA=    6   54.17% done.
 IPart=  1 IA=    7   62.50% done.
 IPart=  4 IA=    8   70.00% done.
 IPart=  1 IA=   10   82.50% done.
 IPart=  4 IA=   12   91.67% done.
 Time for triples=        0.30 seconds.
 T4(CCSD)= -0.35348343D-02
 T5(CCSD)=  0.55531067D-03
 CCSD(T)= -0.33898925645D+02
 Discarding MO integrals.
 Leave Link  913 at Sun Dec 10 06:29:05 2023, MaxMem=   536870912 cpu:               1.1 elap:               0.3
 (Enter /usr/site/hpc/x86_64/glibc-2.17/broadwell/gaussian/g16_a.03/pgi-16.5/g16/l601.exe)
 Copying SCF densities to generalized density rwf, IOpCl= 0 IROHF=0.

 **********************************************************************

            Population analysis using the SCF density.

 **********************************************************************

 Orbital symmetries:
       Occupied  (A') (A') (A') (A') (A') (A") (A') (A")
       Virtual   (A') (A') (A') (A') (A") (A') (A') (A") (A') (A')
                 (A') (A') (A') (A') (A') (A')
 The electronic state is 1-A'.
 Alpha  occ. eigenvalues --   -1.40892  -1.29683  -0.76341  -0.70871  -0.58431
 Alpha  occ. eigenvalues --   -0.55444  -0.48572  -0.44132
 Alpha virt. eigenvalues --    0.16973   0.26646   0.28083   0.53528   0.74052
 Alpha virt. eigenvalues --    0.74793   0.85357   0.88897   0.96428   1.03485
 Alpha virt. eigenvalues --    1.14647   1.18255   1.23770   1.36350   2.68221
 Alpha virt. eigenvalues --    3.84052
          Condensed to atoms (all electrons):
               1          2          3          4          5          6
     1  O    6.232810   0.331584   0.261200  -0.059132   0.000676   0.001042
     2  H    0.331584   0.382937  -0.039284  -0.109708   0.005895   0.006810
     3  H    0.261200  -0.039284   0.442342   0.006874   0.000009  -0.000369
     4  O   -0.059132  -0.109708   0.006874   6.462473   0.274211   0.259132
     5  H    0.000676   0.005895   0.000009   0.274211   0.295658  -0.021140
     6  H    0.001042   0.006810  -0.000369   0.259132  -0.021140   0.348179
 Mulliken charges:
               1
     1  O   -0.768179
     2  H    0.421766
     3  H    0.329228
     4  O   -0.833850
     5  H    0.444691
     6  H    0.406345
 Sum of Mulliken charges =   0.00000
 Mulliken charges with hydrogens summed into heavy atoms:
               1
     1  O   -0.017186
     4  O    0.017186
 Electronic spatial extent (au):  <R**2>=            130.3552
 Charge=              0.0000 electrons
 Dipole moment (field-independent basis, Debye):
    X=             -2.5185    Y=             -4.9917    Z=             -0.0000  Tot=              5.5911
 Quadrupole moment (field-independent basis, Debye-Ang):
   XX=             -9.6204   YY=             -9.5995   ZZ=            -15.0073
   XY=             -3.6564   XZ=             -0.0000   YZ=              0.0000
 Traceless Quadrupole moment (field-independent basis, Debye-Ang):
   XX=              1.7886   YY=              1.8096   ZZ=             -3.5983
   XY=             -3.6564   XZ=             -0.0000   YZ=              0.0000
 Octapole moment (field-independent basis, Debye-Ang**2):
  XXX=             -2.5491  YYY=            -21.8174  ZZZ=             -0.0000  XYY=             -5.0970
  XXY=             -3.6633  XXZ=             -0.0000  XZZ=             -0.4610  YZZ=             -1.1399
  YYZ=             -0.0000  XYZ=             -0.0000
 Hexadecapole moment (field-independent basis, Debye-Ang**3):
 XXXX=            -12.1449 YYYY=           -116.6851 ZZZZ=            -12.2883 XXXY=             -0.4316
 XXXZ=              0.0000 YYYX=            -13.4879 YYYZ=             -0.0000 ZZZX=              0.0000
 ZZZY=             -0.0000 XXYY=            -15.8242 XXZZ=             -4.5715 YYZZ=            -28.3855
 XXYZ=             -0.0000 YYXZ=             -0.0000 ZZXY=              0.3089
 N-N= 2.725712774930D+01 E-N=-1.362979882059D+02  KE= 2.696276777674D+01
 Symmetry A'   KE= 1.814117852874D+01
 Symmetry A"   KE= 8.821589247999D+00
 Leave Link  601 at Sun Dec 10 06:29:05 2023, MaxMem=   536870912 cpu:               0.1 elap:               0.0
 (Enter /usr/site/hpc/x86_64/glibc-2.17/broadwell/gaussian/g16_a.03/pgi-16.5/g16/l9999.exe)
 1\1\GINC-N044\SP\RCCSD(T)-FC\CEP-31G\H4O2\ROOT\10-Dec-2023\0\\#p CCSD(
 T)/CEP-31G\\H2O_H2O_561\\0,1\O,0,0.,-0.009833,0.\H,0,-0.799571,-0.5809
 65,0.\H,0,0.799571,-0.580965,0.\O,0,-2.024304,-1.448718,0.\H,0,-3.0020
 27,-1.350923,0.\H,0,-1.799728,-2.405311,0.\\Version=ES64L-G16RevA.03\S
 tate=1-A'\HF=-33.6541465\MP2=-33.8831437\MP3=-33.8873652\MP4D=-33.8922
 953\MP4DQ=-33.8929305\MP4SDQ=-33.8951341\CCSD=-33.8959461\CCSD(T)=-33.
 8989256\RMSD=2.987e-09\PG=CS [SG(H4O2)]\\@


 QUHEN THE CAUSS IS TAKEN AWAY THE EFFECT WANISHETH.
 -- PROVERBS AND REASONS OF THE YEAR 1585
           AS REPRINTED IN PAISLEY MAGAZINE 1828.
 Job cpu time:       0 days  0 hours  0 minutes  3.6 seconds.
 Elapsed time:       0 days  0 hours  0 minutes  1.1 seconds.
 File lengths (MBytes):  RWF=     72 Int=      0 D2E=      0 Chk=      8 Scr=      8
 Normal termination of Gaussian 16 at Sun Dec 10 06:29:05 2023.
