 Entering Gaussian System, Link 0=g16
 Input=H2O_H2O_4058.com
 Output=H2O_H2O_4058.log
 Initial command:
 /usr/site/hpc/x86_64/glibc-2.17/broadwell/gaussian/g16_a.03/pgi-16.5/g16/l1.exe "/gpfs/gpfs1/scratch/c7441090/OH Coord/Gau-1261045.inp" -scrdir="/gpfs/gpfs1/scratch/c7441090/OH Coord/"
 Entering Link 1 = /usr/site/hpc/x86_64/glibc-2.17/broadwell/gaussian/g16_a.03/pgi-16.5/g16/l1.exe PID=   1261046.
  
 Copyright (c) 1988,1990,1992,1993,1995,1998,2003,2009,2016,
            Gaussian, Inc.  All Rights Reserved.
  
 This is part of the Gaussian(R) 16 program.  It is based on
 the Gaussian(R) 09 system (copyright 2009, Gaussian, Inc.),
 the Gaussian(R) 03 system (copyright 2003, Gaussian, Inc.),
 the Gaussian(R) 98 system (copyright 1998, Gaussian, Inc.),
 the Gaussian(R) 94 system (copyright 1995, Gaussian, Inc.),
 the Gaussian 92(TM) system (copyright 1992, Gaussian, Inc.),
 the Gaussian 90(TM) system (copyright 1990, Gaussian, Inc.),
 the Gaussian 88(TM) system (copyright 1988, Gaussian, Inc.),
 the Gaussian 86(TM) system (copyright 1986, Carnegie Mellon
 University), and the Gaussian 82(TM) system (copyright 1983,
 Carnegie Mellon University). Gaussian is a federally registered
 trademark of Gaussian, Inc.
  
 This software contains proprietary and confidential information,
 including trade secrets, belonging to Gaussian, Inc.
  
 This software is provided under written license and may be
 used, copied, transmitted, or stored only in accord with that
 written license.
  
 The following legend is applicable only to US Government
 contracts under FAR:
  
                    RESTRICTED RIGHTS LEGEND
  
 Use, reproduction and disclosure by the US Government is
 subject to restrictions as set forth in subparagraphs (a)
 and (c) of the Commercial Computer Software - Restricted
 Rights clause in FAR 52.227-19.
  
 Gaussian, Inc.
 340 Quinnipiac St., Bldg. 40, Wallingford CT 06492
  
  
 ---------------------------------------------------------------
 Warning -- This program may not be used in any manner that
 competes with the business of Gaussian, Inc. or will provide
 assistance to any competitor of Gaussian, Inc.  The licensee
 of this program is prohibited from giving any competitor of
 Gaussian, Inc. access to this program.  By using this program,
 the user acknowledges that Gaussian, Inc. is engaged in the
 business of creating and licensing software in the field of
 computational chemistry and represents and warrants to the
 licensee that it is not a competitor of Gaussian, Inc. and that
 it will not use this program in any manner prohibited above.
 ---------------------------------------------------------------
  

 Cite this work as:
 Gaussian 16, Revision A.03,
 M. J. Frisch, G. W. Trucks, H. B. Schlegel, G. E. Scuseria, 
 M. A. Robb, J. R. Cheeseman, G. Scalmani, V. Barone, 
 G. A. Petersson, H. Nakatsuji, X. Li, M. Caricato, A. V. Marenich, 
 J. Bloino, B. G. Janesko, R. Gomperts, B. Mennucci, H. P. Hratchian, 
 J. V. Ortiz, A. F. Izmaylov, J. L. Sonnenberg, D. Williams-Young, 
 F. Ding, F. Lipparini, F. Egidi, J. Goings, B. Peng, A. Petrone, 
 T. Henderson, D. Ranasinghe, V. G. Zakrzewski, J. Gao, N. Rega, 
 G. Zheng, W. Liang, M. Hada, M. Ehara, K. Toyota, R. Fukuda, 
 J. Hasegawa, M. Ishida, T. Nakajima, Y. Honda, O. Kitao, H. Nakai, 
 T. Vreven, K. Throssell, J. A. Montgomery, Jr., J. E. Peralta, 
 F. Ogliaro, M. J. Bearpark, J. J. Heyd, E. N. Brothers, K. N. Kudin, 
 V. N. Staroverov, T. A. Keith, R. Kobayashi, J. Normand, 
 K. Raghavachari, A. P. Rendell, J. C. Burant, S. S. Iyengar, 
 J. Tomasi, M. Cossi, J. M. Millam, M. Klene, C. Adamo, R. Cammi, 
 J. W. Ochterski, R. L. Martin, K. Morokuma, O. Farkas, 
 J. B. Foresman, and D. J. Fox, Gaussian, Inc., Wallingford CT, 2016.
 
 ******************************************
 Gaussian 16:  ES64L-G16RevA.03 25-Dec-2016
                10-Dec-2023 
 ******************************************
 %NProcShared=4
 Will use up to    4 processors via shared memory.
 %Mem=4GB
 %Chk=H2O_H2O_4058.chk
 ------------------
 #p CCSD(T)/CEP-31G
 ------------------
 1/38=1,172=1/1;
 2/12=2,17=6,18=5,40=1/2;
 3/5=9,6=1,11=9,25=1,30=1/1,2,3;
 4//1;
 5/5=2,38=5/2;
 8/6=4,9=120000,10=1/1,4;
 9/5=7,14=2/13;
 6/7=2,8=2,9=2,10=2/1;
 99/5=1,9=1/99;
 Leave Link    1 at Sun Dec 10 06:46:01 2023, MaxMem=   536870912 cpu:               0.2 elap:               0.1
 (Enter /usr/site/hpc/x86_64/glibc-2.17/broadwell/gaussian/g16_a.03/pgi-16.5/g16/l101.exe)
 ------------
 H2O_H2O_4058
 ------------
 Symbolic Z-matrix:
 Charge =  0 Multiplicity = 1
 O                     0.       -0.00983   0. 
 H                    -0.79957  -0.58097   0. 
 H                     0.79957  -0.58097   0. 
 O                    -4.29478  -3.07276   0. 
 H                    -5.2728   -3.16759   0. 
 H                    -3.8879   -3.96716   0. 
 
 ITRead=  0  0  0  0  0  0
 MicOpt= -1 -1 -1 -1 -1 -1
 NAtoms=      6 NQM=        6 NQMF=       0 NMMI=      0 NMMIF=      0
                NMic=       0 NMicF=      0.
                    Isotopes and Nuclear Properties:
 (Nuclear quadrupole moments (NQMom) in fm**2, nuclear magnetic moments (NMagM)
  in nuclear magnetons)

  Atom         1           2           3           4           5           6
 IAtWgt=          16           1           1          16           1           1
 AtmWgt=  15.9949146   1.0078250   1.0078250  15.9949146   1.0078250   1.0078250
 NucSpn=           0           1           1           0           1           1
 AtZEff=  -0.0000000  -0.0000000  -0.0000000  -0.0000000  -0.0000000  -0.0000000
 NQMom=    0.0000000   0.0000000   0.0000000   0.0000000   0.0000000   0.0000000
 NMagM=    0.0000000   2.7928460   2.7928460   0.0000000   2.7928460   2.7928460
 AtZNuc=   8.0000000   1.0000000   1.0000000   8.0000000   1.0000000   1.0000000
 Leave Link  101 at Sun Dec 10 06:46:01 2023, MaxMem=   536870912 cpu:               0.3 elap:               0.1
 (Enter /usr/site/hpc/x86_64/glibc-2.17/broadwell/gaussian/g16_a.03/pgi-16.5/g16/l202.exe)
                          Input orientation:                          
 ---------------------------------------------------------------------
 Center     Atomic      Atomic             Coordinates (Angstroms)
 Number     Number       Type             X           Y           Z
 ---------------------------------------------------------------------
      1          8           0        0.000000   -0.009833    0.000000
      2          1           0       -0.799571   -0.580965    0.000000
      3          1           0        0.799571   -0.580965    0.000000
      4          8           0       -4.294783   -3.072757    0.000000
      5          1           0       -5.272798   -3.167586    0.000000
      6          1           0       -3.887900   -3.967158    0.000000
 ---------------------------------------------------------------------
                    Distance matrix (angstroms):
                    1          2          3          4          5
     1  O    0.000000
     2  H    0.982601   0.000000
     3  H    0.982601   1.599142   0.000000
     4  O    5.275099   4.292497   5.671108   0.000000
     5  H    6.146040   5.167240   6.600324   0.982602   0.000000
     6  H    5.547629   4.583021   5.782619   0.982602   1.599143
                    6
     6  H    0.000000
 Stoichiometry    H4O2
 Framework group  CS[SG(H4O2)]
 Deg. of freedom     9
 Full point group                 CS      NOp   2
 Largest Abelian subgroup         CS      NOp   2
 Largest concise Abelian subgroup C1      NOp   1
                         Standard orientation:                         
 ---------------------------------------------------------------------
 Center     Atomic      Atomic             Coordinates (Angstroms)
 Number     Number       Type             X           Y           Z
 ---------------------------------------------------------------------
      1          8           0        0.070188    2.722680    0.000000
      2          1           0        0.069456    1.740079    0.000000
      3          1           0       -0.859067    3.042039   -0.000000
      4          8           0        0.070188   -2.552418    0.000000
      5          1           0        0.560855   -3.403742    0.000000
      6          1           0       -0.894251   -2.740473   -0.000000
 ---------------------------------------------------------------------
 Rotational constants (GHZ):         255.0243168           1.9868659           1.9715061
 Leave Link  202 at Sun Dec 10 06:46:01 2023, MaxMem=   536870912 cpu:               0.0 elap:               0.0
 (Enter /usr/site/hpc/x86_64/glibc-2.17/broadwell/gaussian/g16_a.03/pgi-16.5/g16/l301.exe)
 Standard basis: CEP-31G (6D, 10F)
 Ernie: Thresh=  0.10000D-02 Tol=  0.10000D-05 Strict=F.
 There are    20 symmetry adapted cartesian basis functions of A'  symmetry.
 There are     4 symmetry adapted cartesian basis functions of A"  symmetry.
 There are    20 symmetry adapted basis functions of A'  symmetry.
 There are     4 symmetry adapted basis functions of A"  symmetry.
    24 basis functions,    48 primitive gaussians,    24 cartesian basis functions
     8 alpha electrons        8 beta electrons
       nuclear repulsion energy        19.9763701202 Hartrees.
 IExCor=    0 DFT=F Ex=HF Corr=None ExCW=0 ScaHFX=  1.000000
 ScaDFX=  1.000000  1.000000  1.000000  1.000000 ScalE2=  1.000000  1.000000
 IRadAn=      5 IRanWt=     -1 IRanGd=            0 ICorTp=0 IEmpDi=  4
 NAtoms=    6 NActive=    6 NUniq=    6 SFac= 1.00D+00 NAtFMM=   60 NAOKFM=F Big=F
 Integral buffers will be    131072 words long.
 Raffenetti 1 integral format.
 Two-electron integral symmetry is turned on.
 Leave Link  301 at Sun Dec 10 06:46:01 2023, MaxMem=   536870912 cpu:               0.2 elap:               0.1
 (Enter /usr/site/hpc/x86_64/glibc-2.17/broadwell/gaussian/g16_a.03/pgi-16.5/g16/l302.exe)
 NPDir=0 NMtPBC=     1 NCelOv=     1 NCel=       1 NClECP=     1 NCelD=      1
         NCelK=      1 NCelE2=     1 NClLst=     1 CellRange=     0.0.
 One-electron integrals computed using PRISM.
 One-electron integral symmetry used in STVInt
   2 Symmetry operations used in ECPInt.
 ECPInt:  NShTT=      78 NPrTT=     318 LenC2=      79 LenP2D=     257.
 LDataN:  DoStor=T MaxTD1= 2 Len=   12
 NBasis=    24 RedAO= T EigKep=  3.84D-02  NBF=    20     4
 NBsUse=    24 1.00D-06 EigRej= -1.00D+00 NBFU=    20     4
 Leave Link  302 at Sun Dec 10 06:46:01 2023, MaxMem=   536870912 cpu:               0.3 elap:               0.1
 (Enter /usr/site/hpc/x86_64/glibc-2.17/broadwell/gaussian/g16_a.03/pgi-16.5/g16/l303.exe)
 DipDrv:  MaxL=1.
 Leave Link  303 at Sun Dec 10 06:46:01 2023, MaxMem=   536870912 cpu:               0.1 elap:               0.0
 (Enter /usr/site/hpc/x86_64/glibc-2.17/broadwell/gaussian/g16_a.03/pgi-16.5/g16/l401.exe)
 ExpMin= 1.78D-01 ExpMax= 1.92D+01 ExpMxC= 1.92D+01 IAcc=3 IRadAn=         5 AccDes= 0.00D+00
 Harris functional with IExCor=  205 and IRadAn=       5 diagonalized for initial guess.
 HarFok:  IExCor=  205 AccDes= 0.00D+00 IRadAn=         5 IDoV= 1 UseB2=F ITyADJ=14
 ICtDFT=  3500011 ScaDFX=  1.000000  1.000000  1.000000  1.000000
 FoFCou: FMM=F IPFlag=           0 FMFlag=      100000 FMFlg1=           0
         NFxFlg=           0 DoJE=T BraDBF=F KetDBF=T FulRan=T
         wScrn=  0.000000 ICntrl=       500 IOpCl=  0 I1Cent=   200000004 NGrid=           0
         NMat0=    1 NMatS0=      1 NMatT0=    0 NMatD0=    1 NMtDS0=    0 NMtDT0=    0
 Petite list used in FoFCou.
 Harris En= -34.4763659420420    
 JPrj=0 DoOrth=F DoCkMO=F.
 Initial guess orbital symmetries:
       Occupied  (A') (A') (A') (A') (A') (A') (A") (A")
       Virtual   (A') (A') (A') (A') (A") (A") (A') (A') (A') (A')
                 (A') (A') (A') (A') (A') (A')
 The electronic state of the initial guess is 1-A'.
 Leave Link  401 at Sun Dec 10 06:46:01 2023, MaxMem=   536870912 cpu:               0.4 elap:               0.1
 (Enter /usr/site/hpc/x86_64/glibc-2.17/broadwell/gaussian/g16_a.03/pgi-16.5/g16/l502.exe)
 Keep R1 ints in memory in symmetry-blocked form, NReq=852021.
 FoFCou: FMM=F IPFlag=           0 FMFlag=           0 FMFlg1=           0
         NFxFlg=           0 DoJE=F BraDBF=F KetDBF=F FulRan=T
         wScrn=  0.000000 ICntrl=       600 IOpCl=  0 I1Cent=           0 NGrid=           0
         NMat0=    1 NMatS0=    300 NMatT0=    0 NMatD0=    1 NMtDS0=    0 NMtDT0=    0
 Petite list used in FoFCou.
 Closed shell SCF:
 Using DIIS extrapolation, IDIIS=  1040.
 NGot=   536870912 LenX=   536840576 LenY=   536839559
 Requested convergence on RMS density matrix=1.00D-08 within 128 cycles.
 Requested convergence on MAX density matrix=1.00D-06.
 Requested convergence on             energy=1.00D-06.
 No special actions if energy rises.

 Cycle   1  Pass 1  IDiag  1:
 E= -33.5595556050296    
 DIIS: error= 6.85D-02 at cycle   1 NSaved=   1.
 NSaved= 1 IEnMin= 1 EnMin= -33.5595556050296     IErMin= 1 ErrMin= 6.85D-02
 ErrMax= 6.85D-02  0.00D+00 EMaxC= 1.00D-01 BMatC= 1.02D-01 BMatP= 1.02D-01
 IDIUse=3 WtCom= 3.15D-01 WtEn= 6.85D-01
 Coeff-Com:  0.100D+01
 Coeff-En:   0.100D+01
 Coeff:      0.100D+01
 Gap=     0.603 Goal=   None    Shift=    0.000
 GapD=    0.603 DampG=2.000 DampE=0.500 DampFc=1.0000 IDamp=-1.
 RMSDP=1.47D-02 MaxDP=1.17D-01              OVMax= 9.83D-02

 Cycle   2  Pass 1  IDiag  1:
 E= -33.6219178543409     Delta-E=       -0.062362249311 Rises=F Damp=F
 DIIS: error= 3.71D-02 at cycle   2 NSaved=   2.
 NSaved= 2 IEnMin= 2 EnMin= -33.6219178543409     IErMin= 2 ErrMin= 3.71D-02
 ErrMax= 3.71D-02  0.00D+00 EMaxC= 1.00D-01 BMatC= 3.79D-02 BMatP= 1.02D-01
 IDIUse=3 WtCom= 6.29D-01 WtEn= 3.71D-01
 Coeff-Com:  0.377D+00 0.623D+00
 Coeff-En:   0.110D+00 0.890D+00
 Coeff:      0.277D+00 0.723D+00
 Gap=     0.692 Goal=   None    Shift=    0.000
 RMSDP=6.37D-03 MaxDP=5.40D-02 DE=-6.24D-02 OVMax= 3.56D-02

 Cycle   3  Pass 1  IDiag  1:
 E= -33.6522430107322     Delta-E=       -0.030325156391 Rises=F Damp=F
 DIIS: error= 7.09D-03 at cycle   3 NSaved=   3.
 NSaved= 3 IEnMin= 3 EnMin= -33.6522430107322     IErMin= 3 ErrMin= 7.09D-03
 ErrMax= 7.09D-03  0.00D+00 EMaxC= 1.00D-01 BMatC= 8.82D-04 BMatP= 3.79D-02
 IDIUse=3 WtCom= 9.29D-01 WtEn= 7.09D-02
 Coeff-Com: -0.114D+00-0.169D-01 0.113D+01
 Coeff-En:   0.000D+00 0.000D+00 0.100D+01
 Coeff:     -0.106D+00-0.157D-01 0.112D+01
 Gap=     0.685 Goal=   None    Shift=    0.000
 RMSDP=1.05D-03 MaxDP=8.96D-03 DE=-3.03D-02 OVMax= 7.96D-03

 Cycle   4  Pass 1  IDiag  1:
 E= -33.6531208694476     Delta-E=       -0.000877858715 Rises=F Damp=F
 DIIS: error= 7.41D-04 at cycle   4 NSaved=   4.
 NSaved= 4 IEnMin= 4 EnMin= -33.6531208694476     IErMin= 4 ErrMin= 7.41D-04
 ErrMax= 7.41D-04  0.00D+00 EMaxC= 1.00D-01 BMatC= 5.70D-06 BMatP= 8.82D-04
 IDIUse=3 WtCom= 9.93D-01 WtEn= 7.41D-03
 Coeff-Com:  0.439D-01-0.172D-01-0.530D+00 0.150D+01
 Coeff-En:   0.000D+00 0.000D+00 0.000D+00 0.100D+01
 Coeff:      0.435D-01-0.171D-01-0.526D+00 0.150D+01
 Gap=     0.686 Goal=   None    Shift=    0.000
 RMSDP=2.33D-04 MaxDP=1.99D-03 DE=-8.78D-04 OVMax= 9.46D-04

 Cycle   5  Pass 1  IDiag  1:
 E= -33.6531336261308     Delta-E=       -0.000012756683 Rises=F Damp=F
 DIIS: error= 4.87D-05 at cycle   5 NSaved=   5.
 NSaved= 5 IEnMin= 5 EnMin= -33.6531336261308     IErMin= 5 ErrMin= 4.87D-05
 ErrMax= 4.87D-05  0.00D+00 EMaxC= 1.00D-01 BMatC= 3.60D-08 BMatP= 5.70D-06
 IDIUse=1 WtCom= 1.00D+00 WtEn= 0.00D+00
 Coeff-Com: -0.707D-02 0.313D-02 0.867D-01-0.293D+00 0.121D+01
 Coeff:     -0.707D-02 0.313D-02 0.867D-01-0.293D+00 0.121D+01
 Gap=     0.686 Goal=   None    Shift=    0.000
 RMSDP=1.53D-05 MaxDP=1.43D-04 DE=-1.28D-05 OVMax= 9.70D-05

 Cycle   6  Pass 1  IDiag  1:
 E= -33.6531337149863     Delta-E=       -0.000000088855 Rises=F Damp=F
 DIIS: error= 1.05D-05 at cycle   6 NSaved=   6.
 NSaved= 6 IEnMin= 6 EnMin= -33.6531337149863     IErMin= 6 ErrMin= 1.05D-05
 ErrMax= 1.05D-05  0.00D+00 EMaxC= 1.00D-01 BMatC= 1.99D-09 BMatP= 3.60D-08
 IDIUse=1 WtCom= 1.00D+00 WtEn= 0.00D+00
 Coeff-Com:  0.131D-02-0.470D-03-0.157D-01 0.588D-01-0.410D+00 0.137D+01
 Coeff:      0.131D-02-0.470D-03-0.157D-01 0.588D-01-0.410D+00 0.137D+01
 Gap=     0.686 Goal=   None    Shift=    0.000
 RMSDP=3.80D-06 MaxDP=2.91D-05 DE=-8.89D-08 OVMax= 3.29D-05

 Cycle   7  Pass 1  IDiag  1:
 E= -33.6531337205209     Delta-E=       -0.000000005535 Rises=F Damp=F
 DIIS: error= 2.13D-06 at cycle   7 NSaved=   7.
 NSaved= 7 IEnMin= 7 EnMin= -33.6531337205209     IErMin= 7 ErrMin= 2.13D-06
 ErrMax= 2.13D-06  0.00D+00 EMaxC= 1.00D-01 BMatC= 9.46D-11 BMatP= 1.99D-09
 IDIUse=1 WtCom= 1.00D+00 WtEn= 0.00D+00
 Coeff-Com:  0.873D-04-0.884D-04-0.121D-02 0.208D-02 0.494D-01-0.382D+00
 Coeff-Com:  0.133D+01
 Coeff:      0.873D-04-0.884D-04-0.121D-02 0.208D-02 0.494D-01-0.382D+00
 Coeff:      0.133D+01
 Gap=     0.686 Goal=   None    Shift=    0.000
 RMSDP=1.01D-06 MaxDP=6.10D-06 DE=-5.53D-09 OVMax= 8.37D-06

 Cycle   8  Pass 1  IDiag  1:
 E= -33.6531337207826     Delta-E=       -0.000000000262 Rises=F Damp=F
 DIIS: error= 3.93D-07 at cycle   8 NSaved=   8.
 NSaved= 8 IEnMin= 8 EnMin= -33.6531337207826     IErMin= 8 ErrMin= 3.93D-07
 ErrMax= 3.93D-07  0.00D+00 EMaxC= 1.00D-01 BMatC= 6.71D-12 BMatP= 9.46D-11
 IDIUse=1 WtCom= 1.00D+00 WtEn= 0.00D+00
 Coeff-Com:  0.653D-06-0.173D-04-0.481D-04-0.535D-03 0.214D-01-0.126D+00
 Coeff-Com:  0.295D+00 0.810D+00
 Coeff:      0.653D-06-0.173D-04-0.481D-04-0.535D-03 0.214D-01-0.126D+00
 Coeff:      0.295D+00 0.810D+00
 Gap=     0.686 Goal=   None    Shift=    0.000
 RMSDP=1.66D-07 MaxDP=8.79D-07 DE=-2.62D-10 OVMax= 1.30D-06

 Cycle   9  Pass 1  IDiag  1:
 E= -33.6531337207920     Delta-E=       -0.000000000009 Rises=F Damp=F
 DIIS: error= 1.50D-07 at cycle   9 NSaved=   9.
 NSaved= 9 IEnMin= 9 EnMin= -33.6531337207920     IErMin= 9 ErrMin= 1.50D-07
 ErrMax= 1.50D-07  0.00D+00 EMaxC= 1.00D-01 BMatC= 6.65D-13 BMatP= 6.71D-12
 IDIUse=1 WtCom= 1.00D+00 WtEn= 0.00D+00
 Coeff-Com:  0.377D-05 0.648D-05-0.162D-04 0.389D-03-0.118D-01 0.731D-01
 Coeff-Com: -0.231D+00-0.403D-01 0.121D+01
 Coeff:      0.377D-05 0.648D-05-0.162D-04 0.389D-03-0.118D-01 0.731D-01
 Coeff:     -0.231D+00-0.403D-01 0.121D+01
 Gap=     0.686 Goal=   None    Shift=    0.000
 RMSDP=1.04D-07 MaxDP=4.27D-07 DE=-9.39D-12 OVMax= 7.22D-07

 Cycle  10  Pass 1  IDiag  1:
 E= -33.6531337207934     Delta-E=       -0.000000000001 Rises=F Damp=F
 DIIS: error= 8.61D-09 at cycle  10 NSaved=  10.
 NSaved=10 IEnMin=10 EnMin= -33.6531337207934     IErMin=10 ErrMin= 8.61D-09
 ErrMax= 8.61D-09  0.00D+00 EMaxC= 1.00D-01 BMatC= 2.95D-15 BMatP= 6.65D-13
 IDIUse=1 WtCom= 1.00D+00 WtEn= 0.00D+00
 Coeff-Com:  0.103D-06-0.175D-05-0.816D-05-0.484D-04 0.253D-02-0.165D-01
 Coeff-Com:  0.531D-01-0.297D-02-0.312D+00 0.128D+01
 Coeff:      0.103D-06-0.175D-05-0.816D-05-0.484D-04 0.253D-02-0.165D-01
 Coeff:      0.531D-01-0.297D-02-0.312D+00 0.128D+01
 Gap=     0.686 Goal=   None    Shift=    0.000
 RMSDP=1.19D-08 MaxDP=5.70D-08 DE=-1.46D-12 OVMax= 6.97D-08

 Cycle  11  Pass 1  IDiag  1:
 E= -33.6531337207934     Delta-E=        0.000000000000 Rises=F Damp=F
 DIIS: error= 4.27D-10 at cycle  11 NSaved=  11.
 NSaved=11 IEnMin=10 EnMin= -33.6531337207934     IErMin=11 ErrMin= 4.27D-10
 ErrMax= 4.27D-10  0.00D+00 EMaxC= 1.00D-01 BMatC= 5.25D-18 BMatP= 2.95D-15
 IDIUse=1 WtCom= 1.00D+00 WtEn= 0.00D+00
 Coeff-Com: -0.738D-07 0.291D-06 0.195D-05 0.565D-05-0.402D-03 0.266D-02
 Coeff-Com: -0.864D-02 0.762D-03 0.515D-01-0.235D+00 0.119D+01
 Coeff:     -0.738D-07 0.291D-06 0.195D-05 0.565D-05-0.402D-03 0.266D-02
 Coeff:     -0.864D-02 0.762D-03 0.515D-01-0.235D+00 0.119D+01
 Gap=     0.686 Goal=   None    Shift=    0.000
 RMSDP=3.04D-10 MaxDP=1.71D-09 DE= 0.00D+00 OVMax= 1.56D-09

 SCF Done:  E(RHF) =  -33.6531337208     A.U. after   11 cycles
            NFock= 11  Conv=0.30D-09     -V/T= 2.2569
 KE= 2.677508572022D+01 PE=-1.215509456592D+02 EE= 4.114635609798D+01
 Leave Link  502 at Sun Dec 10 06:46:02 2023, MaxMem=   536870912 cpu:               0.3 elap:               0.1
 (Enter /usr/site/hpc/x86_64/glibc-2.17/broadwell/gaussian/g16_a.03/pgi-16.5/g16/l801.exe)
 Windowed orbitals will be sorted by symmetry type.
 Range of M.O.s used for correlation:     1    24
 NBasis=    24 NAE=     8 NBE=     8 NFC=     0 NFV=     0
 NROrb=     24 NOA=     8 NOB=     8 NVA=    16 NVB=    16
 Leave Link  801 at Sun Dec 10 06:46:02 2023, MaxMem=   536870912 cpu:               0.1 elap:               0.0
 (Enter /usr/site/hpc/x86_64/glibc-2.17/broadwell/gaussian/g16_a.03/pgi-16.5/g16/l804.exe)
 Closed-shell transformation, MDV=   536870912 ITran=4 ISComp=2.
 Unit  1 TFree=       1025975 TCopy=        210600.
 Semi-Direct transformation.
 ModeAB=           4 MOrb=             8 LenV=     536742390
 LASXX=        22470 LTotXX=       22470 LenRXX=       48678
 LTotAB=       26208 MaxLAS=       56256 LenRXY=           0
 NonZer=       71148 LenScr=      524288 LnRSAI=       56256
 LnScr1=      524288 LExtra=           0 Total=      1153510
 MaxDsk=          -1 SrtSym=           T ITran=            4
 DoSDTr:  NPSUse=  4
 JobTyp=0 Pass  1:  I=   1 to   8.
 (rs|ai) integrals will be sorted in core.
 Complete sort for first half transformation.
 First half transformation complete.
 Complete sort for second half transformation.
 Second half transformation complete.
 Spin components of T(2) and E(2):
     alpha-alpha T2 =       0.9064685994D-02 E2=     -0.2589384297D-01
     alpha-beta  T2 =       0.5987589909D-01 E2=     -0.1765279160D+00
     beta-beta   T2 =       0.9064685994D-02 E2=     -0.2589384297D-01
 ANorm=    0.1038270327D+01
 E2 =    -0.2283156019D+00 EUMP2 =    -0.33881449322733D+02
 Leave Link  804 at Sun Dec 10 06:46:02 2023, MaxMem=   536870912 cpu:               0.2 elap:               0.1
 (Enter /usr/site/hpc/x86_64/glibc-2.17/broadwell/gaussian/g16_a.03/pgi-16.5/g16/l913.exe)
 CIDS:  MDV=   536870912.
 IFCWin=0 IBDFC=1 NFBD=     0     0 NFCmp=     0     0 NFFFC=     0     0
 Using DD3R+UMP44R for 1st iteration.
 Using DD4RQ for 2nd and later iterations.
 Keep R2 and R3 ints in memory in symmetry-blocked form, NReq=864629.
 FoFCou: FMM=F IPFlag=           0 FMFlag=           0 FMFlg1=           0
         NFxFlg=           0 DoJE=F BraDBF=F KetDBF=F FulRan=T
         wScrn=  0.000000 ICntrl=       600 IOpCl=  0 I1Cent=           0 NGrid=           0
         NMat0=    1 NMatS0=    300 NMatT0=    0 NMatD0=    1 NMtDS0=    0 NMtDT0=    0
 Petite list used in FoFCou.
 CIDS: In Core Option IDoMem=           1.
 CCSD(T)
 =======
 Iterations=  50 Convergence= 0.100D-06
 Produce multiple copies of IABC intergrals
 Iteration Nr.   1
 **********************
 DD1Dir will call FoFMem   1 times, MxPair=        72
 NAB=    36 NAA=     0 NBB=     0.
 MP4(R+Q)= -0.74617470D-03
 Maximum subspace dimension=  5
 A-vector RMS=  5.7516565D-03 Max=  1.3209967D-02 conv= 1.00D-05.
 RLE energy=       -0.2343631606
 E3=       -0.54202181D-02        EUMP3=      -0.33886869541D+02
 E4(DQ)=   -0.59059581D-02        UMP4(DQ)=   -0.33892775499D+02
 E4(SDQ)=  -0.79312324D-02        UMP4(SDQ)=  -0.33894800773D+02
 VARIATIONAL ENERGIES WITH THE FIRST-ORDER WAVEFUNCTION:
 DE(Corr)= -0.23420745     E(Corr)=     -33.887341169    
 NORM(A)=   0.10416957D+01
 Iteration Nr.   2
 **********************
 DD1Dir will call FoFMem   1 times, MxPair=        72
 NAB=    36 NAA=     0 NBB=     0.
 A-vector RMS=  9.8211375D-04 Max=  2.7029195D-03 conv= 1.00D-05.
 RLE energy=       -0.2421244776
 DE(Corr)= -0.24018376     E(CORR)=     -33.893317477     Delta=-5.98D-03
 NORM(A)=   0.10454799D+01
 Iteration Nr.   3
 **********************
 DD1Dir will call FoFMem   1 times, MxPair=        72
 NAB=    36 NAA=     0 NBB=     0.
 A-vector RMS=  3.8123127D-04 Max=  1.1230168D-03 conv= 1.00D-05.
 RLE energy=       -0.2426742647
 DE(Corr)= -0.24222757     E(CORR)=     -33.895361290     Delta=-2.04D-03
 NORM(A)=   0.10460391D+01
 Iteration Nr.   4
 **********************
 DD1Dir will call FoFMem   1 times, MxPair=        72
 NAB=    36 NAA=     0 NBB=     0.
 A-vector RMS=  9.2089748D-05 Max=  2.4939731D-04 conv= 1.00D-05.
 RLE energy=       -0.2427208874
 DE(Corr)= -0.24268510     E(CORR)=     -33.895818823     Delta=-4.58D-04
 NORM(A)=   0.10461126D+01
 Iteration Nr.   5
 **********************
 DD1Dir will call FoFMem   1 times, MxPair=        72
 NAB=    36 NAA=     0 NBB=     0.
 A-vector RMS=  4.1180404D-05 Max=  1.4728516D-04 conv= 1.00D-05.
 RLE energy=       -0.2427191536
 DE(Corr)= -0.24271715     E(CORR)=     -33.895850869     Delta=-3.20D-05
 NORM(A)=   0.10461230D+01
 Iteration Nr.   6
 **********************
 DD1Dir will call FoFMem   1 times, MxPair=        72
 NAB=    36 NAA=     0 NBB=     0.
 A-vector RMS=  1.1472888D-05 Max=  4.1102648D-05 conv= 1.00D-05.
 RLE energy=       -0.2427182344
 DE(Corr)= -0.24271930     E(CORR)=     -33.895853020     Delta=-2.15D-06
 NORM(A)=   0.10461264D+01
 Iteration Nr.   7
 **********************
 DD1Dir will call FoFMem   1 times, MxPair=        72
 NAB=    36 NAA=     0 NBB=     0.
 A-vector RMS=  3.4369538D-06 Max=  1.1532129D-05 conv= 1.00D-05.
 RLE energy=       -0.2427191799
 DE(Corr)= -0.24271870     E(CORR)=     -33.895852418     Delta= 6.02D-07
 NORM(A)=   0.10461278D+01
 Iteration Nr.   8
 **********************
 DD1Dir will call FoFMem   1 times, MxPair=        72
 NAB=    36 NAA=     0 NBB=     0.
 A-vector RMS=  7.4901963D-07 Max=  2.3766985D-06 conv= 1.00D-05.
 RLE energy=       -0.2427186742
 DE(Corr)= -0.24271872     E(CORR)=     -33.895852446     Delta=-2.81D-08
 NORM(A)=   0.10461279D+01
 CI/CC converged in    8 iterations to DelEn=-2.81D-08 Conv= 1.00D-07 ErrA1= 7.49D-07 Conv= 1.00D-05
 Wavefunction amplitudes converged. E(Corr)=     -33.895852446    
 Largest amplitude= 5.86D-02
 IPart=  4 IA=    2   12.50% done.
 IPart=  2 IA=    3   24.17% done.
 IPart=  3 IA=    4   35.00% done.
 IPart=  3 IA=    5   45.00% done.
 IPart=  2 IA=    6   54.17% done.
 IPart=  4 IA=    7   62.50% done.
 IPart=  1 IA=    8   70.00% done.
 IPart=  3 IA=   10   82.50% done.
 IPart=  1 IA=   12   91.67% done.
 Time for triples=        0.26 seconds.
 T4(CCSD)= -0.30847666D-02
 T5(CCSD)=  0.52568019D-03
 CCSD(T)= -0.33898411532D+02
 Discarding MO integrals.
 Leave Link  913 at Sun Dec 10 06:46:02 2023, MaxMem=   536870912 cpu:               0.9 elap:               0.2
 (Enter /usr/site/hpc/x86_64/glibc-2.17/broadwell/gaussian/g16_a.03/pgi-16.5/g16/l601.exe)
 Copying SCF densities to generalized density rwf, IOpCl= 0 IROHF=0.

 **********************************************************************

            Population analysis using the SCF density.

 **********************************************************************

 Orbital symmetries:
       Occupied  (A') (A') (A') (A') (A') (A') (A") (A")
       Virtual   (A') (A') (A') (A') (A") (A") (A') (A') (A') (A')
                 (A') (A') (A') (A') (A') (A')
 The electronic state is 1-A'.
 Alpha  occ. eigenvalues --   -1.36372  -1.34660  -0.72017  -0.70280  -0.56186
 Alpha  occ. eigenvalues --   -0.54430  -0.50962  -0.49250
 Alpha virt. eigenvalues --    0.19400   0.21282   0.29708   0.31541   0.79598
 Alpha virt. eigenvalues --    0.81269   0.82435   0.84281   0.85602   0.87451
 Alpha virt. eigenvalues --    1.16587   1.18315   1.21010   1.22948   2.56551
 Alpha virt. eigenvalues --    2.58400
          Condensed to atoms (all electrons):
               1          2          3          4          5          6
     1  O    6.218680   0.265581   0.262151  -0.000003   0.000000   0.000000
     2  H    0.265581   0.378000  -0.023314   0.000038  -0.000000  -0.000001
     3  H    0.262151  -0.023314   0.394496  -0.000000   0.000000   0.000000
     4  O   -0.000003   0.000038  -0.000000   6.217365   0.265674   0.263115
     5  H    0.000000  -0.000000   0.000000   0.265674   0.382094  -0.023375
     6  H    0.000000  -0.000001   0.000000   0.263115  -0.023375   0.389632
 Mulliken charges:
               1
     1  O   -0.746410
     2  H    0.379696
     3  H    0.366667
     4  O   -0.746190
     5  H    0.375607
     6  H    0.370629
 Sum of Mulliken charges =   0.00000
 Mulliken charges with hydrogens summed into heavy atoms:
               1
     1  O   -0.000047
     4  O    0.000047
 Electronic spatial extent (au):  <R**2>=            440.6189
 Charge=              0.0000 electrons
 Dipole moment (field-independent basis, Debye):
    X=             -3.2212    Y=             -4.0088    Z=             -0.0000  Tot=              5.1426
 Quadrupole moment (field-independent basis, Debye-Ang):
   XX=            -10.0251   YY=             -6.3255   ZZ=            -14.9912
   XY=             -4.9075   XZ=              0.0000   YZ=             -0.0000
 Traceless Quadrupole moment (field-independent basis, Debye-Ang):
   XX=              0.4222   YY=              4.1217   ZZ=             -4.5439
   XY=             -4.9075   XZ=              0.0000   YZ=             -0.0000
 Octapole moment (field-independent basis, Debye-Ang**2):
  XXX=             -3.5352  YYY=            -79.1295  ZZZ=             -0.0000  XYY=            -23.6016
  XXY=             -3.5937  XXZ=             -0.0000  XZZ=             -0.6043  YZZ=             -0.7657
  YYZ=             -0.0000  XYZ=             -0.0000
 Hexadecapole moment (field-independent basis, Debye-Ang**3):
 XXXX=            -12.2564 YYYY=           -408.6656 ZZZZ=            -12.2260 XXXY=              0.0867
 XXXZ=              0.0000 YYYX=            -68.9477 YYYZ=             -0.0000 ZZZX=             -0.0000
 ZZZY=              0.0000 XXYY=            -69.0192 XXZZ=             -4.5575 YYZZ=           -109.4626
 XXYZ=             -0.0000 YYXZ=              0.0000 ZZXY=              0.4363
 N-N= 1.997637012017D+01 E-N=-1.215509456623D+02  KE= 2.677508572022D+01
 Symmetry A'   KE= 1.789472846744D+01
 Symmetry A"   KE= 8.880357252787D+00
 Leave Link  601 at Sun Dec 10 06:46:02 2023, MaxMem=   536870912 cpu:               0.1 elap:               0.0
 (Enter /usr/site/hpc/x86_64/glibc-2.17/broadwell/gaussian/g16_a.03/pgi-16.5/g16/l9999.exe)
 1\1\GINC-N033\SP\RCCSD(T)-FC\CEP-31G\H4O2\ROOT\10-Dec-2023\0\\#p CCSD(
 T)/CEP-31G\\H2O_H2O_4058\\0,1\O,0,0.,-0.009833,0.\H,0,-0.799571,-0.580
 965,0.\H,0,0.799571,-0.580965,0.\O,0,-4.294783,-3.072757,0.\H,0,-5.272
 798,-3.167586,0.\H,0,-3.8879,-3.967158,0.\\Version=ES64L-G16RevA.03\St
 ate=1-A'\HF=-33.6531337\MP2=-33.8814493\MP3=-33.8868695\MP4D=-33.89202
 93\MP4DQ=-33.8927755\MP4SDQ=-33.8948008\CCSD=-33.8958524\CCSD(T)=-33.8
 984115\RMSD=3.042e-10\PG=CS [SG(H4O2)]\\@


 ABOVE ALL I AM AN OPTIMIST FOR NUMBER THEORY,
 AND I HOLD THE HOPE THAT WE MAY NOT BE FAR FROM
 A TIME WHEN IRREFUTABLE ARITHMETIC WILL CELEBRATE
 ITS TRIUMPHS IN PHYSICS AND CHEMISTRY.
   -- HERMANN MINKOWSKI, 1905
 Job cpu time:       0 days  0 hours  0 minutes  3.3 seconds.
 Elapsed time:       0 days  0 hours  0 minutes  1.0 seconds.
 File lengths (MBytes):  RWF=     72 Int=      0 D2E=      0 Chk=      8 Scr=      8
 Normal termination of Gaussian 16 at Sun Dec 10 06:46:02 2023.
