 Entering Gaussian System, Link 0=g16
 Input=H2O_H2O_1991.com
 Output=H2O_H2O_1991.log
 Initial command:
 /usr/site/hpc/x86_64/glibc-2.17/broadwell/gaussian/g16_a.03/pgi-16.5/g16/l1.exe "/gpfs/gpfs1/scratch/c7441090/OH Coord/Gau-1703233.inp" -scrdir="/gpfs/gpfs1/scratch/c7441090/OH Coord/"
 Entering Link 1 = /usr/site/hpc/x86_64/glibc-2.17/broadwell/gaussian/g16_a.03/pgi-16.5/g16/l1.exe PID=   1703234.
  
 Copyright (c) 1988,1990,1992,1993,1995,1998,2003,2009,2016,
            Gaussian, Inc.  All Rights Reserved.
  
 This is part of the Gaussian(R) 16 program.  It is based on
 the Gaussian(R) 09 system (copyright 2009, Gaussian, Inc.),
 the Gaussian(R) 03 system (copyright 2003, Gaussian, Inc.),
 the Gaussian(R) 98 system (copyright 1998, Gaussian, Inc.),
 the Gaussian(R) 94 system (copyright 1995, Gaussian, Inc.),
 the Gaussian 92(TM) system (copyright 1992, Gaussian, Inc.),
 the Gaussian 90(TM) system (copyright 1990, Gaussian, Inc.),
 the Gaussian 88(TM) system (copyright 1988, Gaussian, Inc.),
 the Gaussian 86(TM) system (copyright 1986, Carnegie Mellon
 University), and the Gaussian 82(TM) system (copyright 1983,
 Carnegie Mellon University). Gaussian is a federally registered
 trademark of Gaussian, Inc.
  
 This software contains proprietary and confidential information,
 including trade secrets, belonging to Gaussian, Inc.
  
 This software is provided under written license and may be
 used, copied, transmitted, or stored only in accord with that
 written license.
  
 The following legend is applicable only to US Government
 contracts under FAR:
  
                    RESTRICTED RIGHTS LEGEND
  
 Use, reproduction and disclosure by the US Government is
 subject to restrictions as set forth in subparagraphs (a)
 and (c) of the Commercial Computer Software - Restricted
 Rights clause in FAR 52.227-19.
  
 Gaussian, Inc.
 340 Quinnipiac St., Bldg. 40, Wallingford CT 06492
  
  
 ---------------------------------------------------------------
 Warning -- This program may not be used in any manner that
 competes with the business of Gaussian, Inc. or will provide
 assistance to any competitor of Gaussian, Inc.  The licensee
 of this program is prohibited from giving any competitor of
 Gaussian, Inc. access to this program.  By using this program,
 the user acknowledges that Gaussian, Inc. is engaged in the
 business of creating and licensing software in the field of
 computational chemistry and represents and warrants to the
 licensee that it is not a competitor of Gaussian, Inc. and that
 it will not use this program in any manner prohibited above.
 ---------------------------------------------------------------
  

 Cite this work as:
 Gaussian 16, Revision A.03,
 M. J. Frisch, G. W. Trucks, H. B. Schlegel, G. E. Scuseria, 
 M. A. Robb, J. R. Cheeseman, G. Scalmani, V. Barone, 
 G. A. Petersson, H. Nakatsuji, X. Li, M. Caricato, A. V. Marenich, 
 J. Bloino, B. G. Janesko, R. Gomperts, B. Mennucci, H. P. Hratchian, 
 J. V. Ortiz, A. F. Izmaylov, J. L. Sonnenberg, D. Williams-Young, 
 F. Ding, F. Lipparini, F. Egidi, J. Goings, B. Peng, A. Petrone, 
 T. Henderson, D. Ranasinghe, V. G. Zakrzewski, J. Gao, N. Rega, 
 G. Zheng, W. Liang, M. Hada, M. Ehara, K. Toyota, R. Fukuda, 
 J. Hasegawa, M. Ishida, T. Nakajima, Y. Honda, O. Kitao, H. Nakai, 
 T. Vreven, K. Throssell, J. A. Montgomery, Jr., J. E. Peralta, 
 F. Ogliaro, M. J. Bearpark, J. J. Heyd, E. N. Brothers, K. N. Kudin, 
 V. N. Staroverov, T. A. Keith, R. Kobayashi, J. Normand, 
 K. Raghavachari, A. P. Rendell, J. C. Burant, S. S. Iyengar, 
 J. Tomasi, M. Cossi, J. M. Millam, M. Klene, C. Adamo, R. Cammi, 
 J. W. Ochterski, R. L. Martin, K. Morokuma, O. Farkas, 
 J. B. Foresman, and D. J. Fox, Gaussian, Inc., Wallingford CT, 2016.
 
 ******************************************
 Gaussian 16:  ES64L-G16RevA.03 25-Dec-2016
                10-Dec-2023 
 ******************************************
 %NProcShared=4
 Will use up to    4 processors via shared memory.
 %Mem=4GB
 %Chk=H2O_H2O_1991.chk
 ------------------
 #p CCSD(T)/CEP-31G
 ------------------
 1/38=1,172=1/1;
 2/12=2,17=6,18=5,40=1/2;
 3/5=9,6=1,11=9,25=1,30=1/1,2,3;
 4//1;
 5/5=2,38=5/2;
 8/6=4,9=120000,10=1/1,4;
 9/5=7,14=2/13;
 6/7=2,8=2,9=2,10=2/1;
 99/5=1,9=1/99;
 Leave Link    1 at Sun Dec 10 06:56:26 2023, MaxMem=   536870912 cpu:               0.2 elap:               0.1
 (Enter /usr/site/hpc/x86_64/glibc-2.17/broadwell/gaussian/g16_a.03/pgi-16.5/g16/l101.exe)
 ------------
 H2O_H2O_1991
 ------------
 Symbolic Z-matrix:
 Charge =  0 Multiplicity = 1
 O                     0.       -0.00983   0. 
 H                    -0.79957  -0.58097   0. 
 H                     0.79957  -0.58097   0. 
 O                    -2.95138  -2.107     0. 
 H                    -3.84578  -1.70012   0. 
 H                    -3.04621  -3.08501   0. 
 
 ITRead=  0  0  0  0  0  0
 MicOpt= -1 -1 -1 -1 -1 -1
 NAtoms=      6 NQM=        6 NQMF=       0 NMMI=      0 NMMIF=      0
                NMic=       0 NMicF=      0.
                    Isotopes and Nuclear Properties:
 (Nuclear quadrupole moments (NQMom) in fm**2, nuclear magnetic moments (NMagM)
  in nuclear magnetons)

  Atom         1           2           3           4           5           6
 IAtWgt=          16           1           1          16           1           1
 AtmWgt=  15.9949146   1.0078250   1.0078250  15.9949146   1.0078250   1.0078250
 NucSpn=           0           1           1           0           1           1
 AtZEff=  -0.0000000  -0.0000000  -0.0000000  -0.0000000  -0.0000000  -0.0000000
 NQMom=    0.0000000   0.0000000   0.0000000   0.0000000   0.0000000   0.0000000
 NMagM=    0.0000000   2.7928460   2.7928460   0.0000000   2.7928460   2.7928460
 AtZNuc=   8.0000000   1.0000000   1.0000000   8.0000000   1.0000000   1.0000000
 Leave Link  101 at Sun Dec 10 06:56:26 2023, MaxMem=   536870912 cpu:               0.3 elap:               0.1
 (Enter /usr/site/hpc/x86_64/glibc-2.17/broadwell/gaussian/g16_a.03/pgi-16.5/g16/l202.exe)
                          Input orientation:                          
 ---------------------------------------------------------------------
 Center     Atomic      Atomic             Coordinates (Angstroms)
 Number     Number       Type             X           Y           Z
 ---------------------------------------------------------------------
      1          8           0        0.000000   -0.009833    0.000000
      2          1           0       -0.799571   -0.580965    0.000000
      3          1           0        0.799571   -0.580965    0.000000
      4          8           0       -2.951384   -2.107000    0.000000
      5          1           0       -3.845784   -1.700117    0.000000
      6          1           0       -3.046213   -3.085015    0.000000
 ---------------------------------------------------------------------
                    Distance matrix (angstroms):
                    1          2          3          4          5
     1  O    0.000000
     2  H    0.982601   0.000000
     3  H    0.982601   1.599142   0.000000
     4  O    3.620604   2.638007   4.049500   0.000000
     5  H    4.200847   3.245291   4.778266   0.982601   0.000000
     6  H    4.328528   3.364174   4.589153   0.982602   1.599142
                    6
     6  H    0.000000
 Stoichiometry    H4O2
 Framework group  CS[SG(H4O2)]
 Deg. of freedom     9
 Full point group                 CS      NOp   2
 Largest Abelian subgroup         CS      NOp   2
 Largest concise Abelian subgroup C1      NOp   1
                         Standard orientation:                         
 ---------------------------------------------------------------------
 Center     Atomic      Atomic             Coordinates (Angstroms)
 Number     Number       Type             X           Y           Z
 ---------------------------------------------------------------------
      1          8           0        0.041185    1.900244    0.000000
      2          1           0        0.038756    0.917646    0.000000
      3          1           0       -0.887517    2.221208    0.000000
      4          8           0        0.041185   -1.720360   -0.000000
      5          1           0        0.890926   -2.213763   -0.000000
      6          1           0       -0.701129   -2.364158   -0.000000
 ---------------------------------------------------------------------
 Rotational constants (GHZ):         241.4035024           4.1604598           4.0899714
 Leave Link  202 at Sun Dec 10 06:56:26 2023, MaxMem=   536870912 cpu:               0.1 elap:               0.0
 (Enter /usr/site/hpc/x86_64/glibc-2.17/broadwell/gaussian/g16_a.03/pgi-16.5/g16/l301.exe)
 Standard basis: CEP-31G (6D, 10F)
 Ernie: Thresh=  0.10000D-02 Tol=  0.10000D-05 Strict=F.
 There are    20 symmetry adapted cartesian basis functions of A'  symmetry.
 There are     4 symmetry adapted cartesian basis functions of A"  symmetry.
 There are    20 symmetry adapted basis functions of A'  symmetry.
 There are     4 symmetry adapted basis functions of A"  symmetry.
    24 basis functions,    48 primitive gaussians,    24 cartesian basis functions
     8 alpha electrons        8 beta electrons
       nuclear repulsion energy        22.8720130818 Hartrees.
 IExCor=    0 DFT=F Ex=HF Corr=None ExCW=0 ScaHFX=  1.000000
 ScaDFX=  1.000000  1.000000  1.000000  1.000000 ScalE2=  1.000000  1.000000
 IRadAn=      5 IRanWt=     -1 IRanGd=            0 ICorTp=0 IEmpDi=  4
 NAtoms=    6 NActive=    6 NUniq=    6 SFac= 1.00D+00 NAtFMM=   60 NAOKFM=F Big=F
 Integral buffers will be    131072 words long.
 Raffenetti 1 integral format.
 Two-electron integral symmetry is turned on.
 Leave Link  301 at Sun Dec 10 06:56:26 2023, MaxMem=   536870912 cpu:               0.2 elap:               0.1
 (Enter /usr/site/hpc/x86_64/glibc-2.17/broadwell/gaussian/g16_a.03/pgi-16.5/g16/l302.exe)
 NPDir=0 NMtPBC=     1 NCelOv=     1 NCel=       1 NClECP=     1 NCelD=      1
         NCelK=      1 NCelE2=     1 NClLst=     1 CellRange=     0.0.
 One-electron integrals computed using PRISM.
 One-electron integral symmetry used in STVInt
   2 Symmetry operations used in ECPInt.
 ECPInt:  NShTT=      78 NPrTT=     318 LenC2=      79 LenP2D=     284.
 LDataN:  DoStor=T MaxTD1= 2 Len=   12
 NBasis=    24 RedAO= T EigKep=  3.32D-02  NBF=    20     4
 NBsUse=    24 1.00D-06 EigRej= -1.00D+00 NBFU=    20     4
 Leave Link  302 at Sun Dec 10 06:56:27 2023, MaxMem=   536870912 cpu:               0.3 elap:               0.1
 (Enter /usr/site/hpc/x86_64/glibc-2.17/broadwell/gaussian/g16_a.03/pgi-16.5/g16/l303.exe)
 DipDrv:  MaxL=1.
 Leave Link  303 at Sun Dec 10 06:56:27 2023, MaxMem=   536870912 cpu:               0.1 elap:               0.0
 (Enter /usr/site/hpc/x86_64/glibc-2.17/broadwell/gaussian/g16_a.03/pgi-16.5/g16/l401.exe)
 ExpMin= 1.78D-01 ExpMax= 1.92D+01 ExpMxC= 1.92D+01 IAcc=3 IRadAn=         5 AccDes= 0.00D+00
 Harris functional with IExCor=  205 and IRadAn=       5 diagonalized for initial guess.
 HarFok:  IExCor=  205 AccDes= 0.00D+00 IRadAn=         5 IDoV= 1 UseB2=F ITyADJ=14
 ICtDFT=  3500011 ScaDFX=  1.000000  1.000000  1.000000  1.000000
 FoFCou: FMM=F IPFlag=           0 FMFlag=      100000 FMFlg1=           0
         NFxFlg=           0 DoJE=T BraDBF=F KetDBF=T FulRan=T
         wScrn=  0.000000 ICntrl=       500 IOpCl=  0 I1Cent=   200000004 NGrid=           0
         NMat0=    1 NMatS0=      1 NMatT0=    0 NMatD0=    1 NMtDS0=    0 NMtDT0=    0
 Petite list used in FoFCou.
 Harris En= -34.4783182258816    
 JPrj=0 DoOrth=F DoCkMO=F.
 Initial guess orbital symmetries:
       Occupied  (A') (A') (A') (A') (A') (A') (A") (A")
       Virtual   (A') (A') (A') (A') (A") (A') (A") (A') (A') (A')
                 (A') (A') (A') (A') (A') (A')
 The electronic state of the initial guess is 1-A'.
 Leave Link  401 at Sun Dec 10 06:56:27 2023, MaxMem=   536870912 cpu:               0.4 elap:               0.1
 (Enter /usr/site/hpc/x86_64/glibc-2.17/broadwell/gaussian/g16_a.03/pgi-16.5/g16/l502.exe)
 Keep R1 ints in memory in symmetry-blocked form, NReq=852433.
 FoFCou: FMM=F IPFlag=           0 FMFlag=           0 FMFlg1=           0
         NFxFlg=           0 DoJE=F BraDBF=F KetDBF=F FulRan=T
         wScrn=  0.000000 ICntrl=       600 IOpCl=  0 I1Cent=           0 NGrid=           0
         NMat0=    1 NMatS0=    300 NMatT0=    0 NMatD0=    1 NMtDS0=    0 NMtDT0=    0
 Petite list used in FoFCou.
 Closed shell SCF:
 Using DIIS extrapolation, IDIIS=  1040.
 NGot=   536870912 LenX=   536840576 LenY=   536839559
 Requested convergence on RMS density matrix=1.00D-08 within 128 cycles.
 Requested convergence on MAX density matrix=1.00D-06.
 Requested convergence on             energy=1.00D-06.
 No special actions if energy rises.

 Cycle   1  Pass 1  IDiag  1:
 E= -33.5695199902270    
 DIIS: error= 6.27D-02 at cycle   1 NSaved=   1.
 NSaved= 1 IEnMin= 1 EnMin= -33.5695199902270     IErMin= 1 ErrMin= 6.27D-02
 ErrMax= 6.27D-02  0.00D+00 EMaxC= 1.00D-01 BMatC= 9.81D-02 BMatP= 9.81D-02
 IDIUse=3 WtCom= 3.73D-01 WtEn= 6.27D-01
 Coeff-Com:  0.100D+01
 Coeff-En:   0.100D+01
 Coeff:      0.100D+01
 Gap=     0.591 Goal=   None    Shift=    0.000
 GapD=    0.591 DampG=2.000 DampE=0.500 DampFc=1.0000 IDamp=-1.
 RMSDP=1.44D-02 MaxDP=1.18D-01              OVMax= 9.61D-02

 Cycle   2  Pass 1  IDiag  1:
 E= -33.6293296565496     Delta-E=       -0.059809666323 Rises=F Damp=F
 DIIS: error= 3.60D-02 at cycle   2 NSaved=   2.
 NSaved= 2 IEnMin= 2 EnMin= -33.6293296565496     IErMin= 2 ErrMin= 3.60D-02
 ErrMax= 3.60D-02  0.00D+00 EMaxC= 1.00D-01 BMatC= 3.58D-02 BMatP= 9.81D-02
 IDIUse=3 WtCom= 6.40D-01 WtEn= 3.60D-01
 Coeff-Com:  0.374D+00 0.626D+00
 Coeff-En:   0.105D+00 0.895D+00
 Coeff:      0.277D+00 0.723D+00
 Gap=     0.664 Goal=   None    Shift=    0.000
 RMSDP=6.17D-03 MaxDP=5.27D-02 DE=-5.98D-02 OVMax= 3.47D-02

 Cycle   3  Pass 1  IDiag  1:
 E= -33.6579874259625     Delta-E=       -0.028657769413 Rises=F Damp=F
 DIIS: error= 6.45D-03 at cycle   3 NSaved=   3.
 NSaved= 3 IEnMin= 3 EnMin= -33.6579874259625     IErMin= 3 ErrMin= 6.45D-03
 ErrMax= 6.45D-03  0.00D+00 EMaxC= 1.00D-01 BMatC= 8.19D-04 BMatP= 3.58D-02
 IDIUse=3 WtCom= 9.36D-01 WtEn= 6.45D-02
 Coeff-Com: -0.111D+00-0.172D-01 0.113D+01
 Coeff-En:   0.000D+00 0.000D+00 0.100D+01
 Coeff:     -0.104D+00-0.161D-01 0.112D+01
 Gap=     0.657 Goal=   None    Shift=    0.000
 RMSDP=9.98D-04 MaxDP=8.86D-03 DE=-2.87D-02 OVMax= 7.60D-03

 Cycle   4  Pass 1  IDiag  1:
 E= -33.6587914192205     Delta-E=       -0.000803993258 Rises=F Damp=F
 DIIS: error= 6.57D-04 at cycle   4 NSaved=   4.
 NSaved= 4 IEnMin= 4 EnMin= -33.6587914192205     IErMin= 4 ErrMin= 6.57D-04
 ErrMax= 6.57D-04  0.00D+00 EMaxC= 1.00D-01 BMatC= 4.86D-06 BMatP= 8.19D-04
 IDIUse=3 WtCom= 9.93D-01 WtEn= 6.57D-03
 Coeff-Com:  0.416D-01-0.161D-01-0.516D+00 0.149D+01
 Coeff-En:   0.000D+00 0.000D+00 0.000D+00 0.100D+01
 Coeff:      0.413D-01-0.160D-01-0.512D+00 0.149D+01
 Gap=     0.659 Goal=   None    Shift=    0.000
 RMSDP=2.22D-04 MaxDP=1.79D-03 DE=-8.04D-04 OVMax= 1.00D-03

 Cycle   5  Pass 1  IDiag  1:
 E= -33.6588026718273     Delta-E=       -0.000011252607 Rises=F Damp=F
 DIIS: error= 5.07D-05 at cycle   5 NSaved=   5.
 NSaved= 5 IEnMin= 5 EnMin= -33.6588026718273     IErMin= 5 ErrMin= 5.07D-05
 ErrMax= 5.07D-05  0.00D+00 EMaxC= 1.00D-01 BMatC= 4.57D-08 BMatP= 4.86D-06
 IDIUse=1 WtCom= 1.00D+00 WtEn= 0.00D+00
 Coeff-Com: -0.191D-02 0.104D-02 0.252D-01-0.123D+00 0.110D+01
 Coeff:     -0.191D-02 0.104D-02 0.252D-01-0.123D+00 0.110D+01
 Gap=     0.659 Goal=   None    Shift=    0.000
 RMSDP=1.59D-05 MaxDP=1.83D-04 DE=-1.13D-05 OVMax= 1.10D-04

 Cycle   6  Pass 1  IDiag  1:
 E= -33.6588027577818     Delta-E=       -0.000000085954 Rises=F Damp=F
 DIIS: error= 1.58D-05 at cycle   6 NSaved=   6.
 NSaved= 6 IEnMin= 6 EnMin= -33.6588027577818     IErMin= 6 ErrMin= 1.58D-05
 ErrMax= 1.58D-05  0.00D+00 EMaxC= 1.00D-01 BMatC= 8.62D-09 BMatP= 4.57D-08
 IDIUse=1 WtCom= 1.00D+00 WtEn= 0.00D+00
 Coeff-Com: -0.323D-02 0.136D-02 0.406D-01-0.131D+00 0.299D+00 0.793D+00
 Coeff:     -0.323D-02 0.136D-02 0.406D-01-0.131D+00 0.299D+00 0.793D+00
 Gap=     0.659 Goal=   None    Shift=    0.000
 RMSDP=4.05D-06 MaxDP=3.98D-05 DE=-8.60D-08 OVMax= 3.68D-05

 Cycle   7  Pass 1  IDiag  1:
 E= -33.6588027683708     Delta-E=       -0.000000010589 Rises=F Damp=F
 DIIS: error= 4.87D-06 at cycle   7 NSaved=   7.
 NSaved= 7 IEnMin= 7 EnMin= -33.6588027683708     IErMin= 7 ErrMin= 4.87D-06
 ErrMax= 4.87D-06  0.00D+00 EMaxC= 1.00D-01 BMatC= 4.97D-10 BMatP= 8.62D-09
 IDIUse=1 WtCom= 1.00D+00 WtEn= 0.00D+00
 Coeff-Com:  0.883D-03-0.344D-03-0.111D-01 0.388D-01-0.165D+00-0.162D+00
 Coeff-Com:  0.130D+01
 Coeff:      0.883D-03-0.344D-03-0.111D-01 0.388D-01-0.165D+00-0.162D+00
 Coeff:      0.130D+01
 Gap=     0.659 Goal=   None    Shift=    0.000
 RMSDP=1.94D-06 MaxDP=1.82D-05 DE=-1.06D-08 OVMax= 1.72D-05

 Cycle   8  Pass 1  IDiag  1:
 E= -33.6588027696747     Delta-E=       -0.000000001304 Rises=F Damp=F
 DIIS: error= 9.62D-07 at cycle   8 NSaved=   8.
 NSaved= 8 IEnMin= 8 EnMin= -33.6588027696747     IErMin= 8 ErrMin= 9.62D-07
 ErrMax= 9.62D-07  0.00D+00 EMaxC= 1.00D-01 BMatC= 1.91D-11 BMatP= 4.97D-10
 IDIUse=1 WtCom= 1.00D+00 WtEn= 0.00D+00
 Coeff-Com: -0.385D-05-0.205D-04 0.356D-06-0.618D-03 0.206D-01-0.526D-02
 Coeff-Com: -0.302D+00 0.129D+01
 Coeff:     -0.385D-05-0.205D-04 0.356D-06-0.618D-03 0.206D-01-0.526D-02
 Coeff:     -0.302D+00 0.129D+01
 Gap=     0.659 Goal=   None    Shift=    0.000
 RMSDP=4.46D-07 MaxDP=3.15D-06 DE=-1.30D-09 OVMax= 3.77D-06

 Cycle   9  Pass 1  IDiag  1:
 E= -33.6588027697274     Delta-E=       -0.000000000053 Rises=F Damp=F
 DIIS: error= 1.33D-07 at cycle   9 NSaved=   9.
 NSaved= 9 IEnMin= 9 EnMin= -33.6588027697274     IErMin= 9 ErrMin= 1.33D-07
 ErrMax= 1.33D-07  0.00D+00 EMaxC= 1.00D-01 BMatC= 5.32D-13 BMatP= 1.91D-11
 IDIUse=1 WtCom= 1.00D+00 WtEn= 0.00D+00
 Coeff-Com:  0.562D-05 0.507D-05-0.457D-04 0.295D-03-0.697D-02 0.268D-02
 Coeff-Com:  0.104D+00-0.516D+00 0.142D+01
 Coeff:      0.562D-05 0.507D-05-0.457D-04 0.295D-03-0.697D-02 0.268D-02
 Coeff:      0.104D+00-0.516D+00 0.142D+01
 Gap=     0.659 Goal=   None    Shift=    0.000
 RMSDP=1.04D-07 MaxDP=4.70D-07 DE=-5.27D-11 OVMax= 7.03D-07

 Cycle  10  Pass 1  IDiag  1:
 E= -33.6588027697289     Delta-E=       -0.000000000001 Rises=F Damp=F
 DIIS: error= 1.17D-08 at cycle  10 NSaved=  10.
 NSaved=10 IEnMin=10 EnMin= -33.6588027697289     IErMin=10 ErrMin= 1.17D-08
 ErrMax= 1.17D-08  0.00D+00 EMaxC= 1.00D-01 BMatC= 6.11D-15 BMatP= 5.32D-13
 IDIUse=1 WtCom= 1.00D+00 WtEn= 0.00D+00
 Coeff-Com:  0.389D-06-0.159D-05-0.997D-05 0.114D-04 0.114D-02-0.908D-03
 Coeff-Com: -0.193D-01 0.103D+00-0.373D+00 0.129D+01
 Coeff:      0.389D-06-0.159D-05-0.997D-05 0.114D-04 0.114D-02-0.908D-03
 Coeff:     -0.193D-01 0.103D+00-0.373D+00 0.129D+01
 Gap=     0.659 Goal=   None    Shift=    0.000
 RMSDP=1.46D-08 MaxDP=7.17D-08 DE=-1.49D-12 OVMax= 9.19D-08

 Cycle  11  Pass 1  IDiag  1:
 E= -33.6588027697289     Delta-E=        0.000000000000 Rises=F Damp=F
 DIIS: error= 9.69D-10 at cycle  11 NSaved=  11.
 NSaved=11 IEnMin=10 EnMin= -33.6588027697289     IErMin=11 ErrMin= 9.69D-10
 ErrMax= 9.69D-10  0.00D+00 EMaxC= 1.00D-01 BMatC= 3.03D-17 BMatP= 6.11D-15
 IDIUse=1 WtCom= 1.00D+00 WtEn= 0.00D+00
 Coeff-Com: -0.859D-07 0.302D-06 0.198D-05-0.283D-05-0.216D-03 0.175D-03
 Coeff-Com:  0.373D-02-0.201D-01 0.742D-01-0.296D+00 0.124D+01
 Coeff:     -0.859D-07 0.302D-06 0.198D-05-0.283D-05-0.216D-03 0.175D-03
 Coeff:      0.373D-02-0.201D-01 0.742D-01-0.296D+00 0.124D+01
 Gap=     0.659 Goal=   None    Shift=    0.000
 RMSDP=8.84D-10 MaxDP=5.10D-09 DE= 7.11D-15 OVMax= 5.50D-09

 SCF Done:  E(RHF) =  -33.6588027697     A.U. after   11 cycles
            NFock= 11  Conv=0.88D-09     -V/T= 2.2566
 KE= 2.678608534957D+01 PE=-1.273984881799D+02 EE= 4.408158697885D+01
 Leave Link  502 at Sun Dec 10 06:56:27 2023, MaxMem=   536870912 cpu:               0.3 elap:               0.1
 (Enter /usr/site/hpc/x86_64/glibc-2.17/broadwell/gaussian/g16_a.03/pgi-16.5/g16/l801.exe)
 Windowed orbitals will be sorted by symmetry type.
 Range of M.O.s used for correlation:     1    24
 NBasis=    24 NAE=     8 NBE=     8 NFC=     0 NFV=     0
 NROrb=     24 NOA=     8 NOB=     8 NVA=    16 NVB=    16
 Leave Link  801 at Sun Dec 10 06:56:27 2023, MaxMem=   536870912 cpu:               0.1 elap:               0.0
 (Enter /usr/site/hpc/x86_64/glibc-2.17/broadwell/gaussian/g16_a.03/pgi-16.5/g16/l804.exe)
 Closed-shell transformation, MDV=   536870912 ITran=4 ISComp=2.
 Unit  1 TFree=       1025975 TCopy=        210600.
 Semi-Direct transformation.
 ModeAB=           2 MOrb=             8 LenV=     536741835
 LASXX=        22470 LTotXX=       22470 LenRXX=       22470
 LTotAB=       26208 MaxLAS=       57600 LenRXY=       57600
 NonZer=       62208 LenScr=      524288 LnRSAI=           0
 LnScr1=           0 LExtra=           0 Total=       604358
 MaxDsk=          -1 SrtSym=           F ITran=            4
 DoSDTr:  NPSUse=  4
 JobTyp=0 Pass  1:  I=   1 to   8.
 (rs|ai) integrals will be sorted in core.
 Complete sort for first half transformation.
 First half transformation complete.
 Complete sort for second half transformation.
 Second half transformation complete.
 Spin components of T(2) and E(2):
     alpha-alpha T2 =       0.9076598313D-02 E2=     -0.2600987349D-01
     alpha-beta  T2 =       0.5966095469D-01 E2=     -0.1765630582D+00
     beta-beta   T2 =       0.9076598313D-02 E2=     -0.2600987349D-01
 ANorm=    0.1038178285D+01
 E2 =    -0.2285828052D+00 EUMP2 =    -0.33887385574927D+02
 Leave Link  804 at Sun Dec 10 06:56:27 2023, MaxMem=   536870912 cpu:               0.2 elap:               0.1
 (Enter /usr/site/hpc/x86_64/glibc-2.17/broadwell/gaussian/g16_a.03/pgi-16.5/g16/l913.exe)
 CIDS:  MDV=   536870912.
 IFCWin=0 IBDFC=1 NFBD=     0     0 NFCmp=     0     0 NFFFC=     0     0
 Using DD3R+UMP44R for 1st iteration.
 Using DD4RQ for 2nd and later iterations.
 Keep R2 and R3 ints in memory in symmetry-blocked form, NReq=865041.
 FoFCou: FMM=F IPFlag=           0 FMFlag=           0 FMFlg1=           0
         NFxFlg=           0 DoJE=F BraDBF=F KetDBF=F FulRan=T
         wScrn=  0.000000 ICntrl=       600 IOpCl=  0 I1Cent=           0 NGrid=           0
         NMat0=    1 NMatS0=    300 NMatT0=    0 NMatD0=    1 NMtDS0=    0 NMtDT0=    0
 Petite list used in FoFCou.
 CIDS: In Core Option IDoMem=           1.
 CCSD(T)
 =======
 Iterations=  50 Convergence= 0.100D-06
 Produce multiple copies of IABC intergrals
 Iteration Nr.   1
 **********************
 DD1Dir will call FoFMem   1 times, MxPair=        72
 NAB=    36 NAA=     0 NBB=     0.
 MP4(R+Q)= -0.74526492D-03
 Maximum subspace dimension=  5
 A-vector RMS=  5.8424043D-03 Max=  1.2898658D-02 conv= 1.00D-05.
 RLE energy=       -0.2344815876
 E3=       -0.52824516D-02        EUMP3=      -0.33892668027D+02
 E4(DQ)=   -0.58668290D-02        UMP4(DQ)=   -0.33898534856D+02
 E4(SDQ)=  -0.79399267D-02        UMP4(SDQ)=  -0.33900607953D+02
 VARIATIONAL ENERGIES WITH THE FIRST-ORDER WAVEFUNCTION:
 DE(Corr)= -0.23433354     E(Corr)=     -33.893136309    
 NORM(A)=   0.10415633D+01
 Iteration Nr.   2
 **********************
 DD1Dir will call FoFMem   1 times, MxPair=        72
 NAB=    36 NAA=     0 NBB=     0.
 A-vector RMS=  9.7165233D-04 Max=  2.7140361D-03 conv= 1.00D-05.
 RLE energy=       -0.2422334619
 DE(Corr)= -0.24031268     E(CORR)=     -33.899115449     Delta=-5.98D-03
 NORM(A)=   0.10453344D+01
 Iteration Nr.   3
 **********************
 DD1Dir will call FoFMem   1 times, MxPair=        72
 NAB=    36 NAA=     0 NBB=     0.
 A-vector RMS=  3.8256399D-04 Max=  8.4988177D-04 conv= 1.00D-05.
 RLE energy=       -0.2427816792
 DE(Corr)= -0.24233372     E(CORR)=     -33.901136489     Delta=-2.02D-03
 NORM(A)=   0.10458892D+01
 Iteration Nr.   4
 **********************
 DD1Dir will call FoFMem   1 times, MxPair=        72
 NAB=    36 NAA=     0 NBB=     0.
 A-vector RMS=  9.0223925D-05 Max=  2.3807621D-04 conv= 1.00D-05.
 RLE energy=       -0.2428288612
 DE(Corr)= -0.24279382     E(CORR)=     -33.901596594     Delta=-4.60D-04
 NORM(A)=   0.10459580D+01
 Iteration Nr.   5
 **********************
 DD1Dir will call FoFMem   1 times, MxPair=        72
 NAB=    36 NAA=     0 NBB=     0.
 A-vector RMS=  3.9004056D-05 Max=  1.1067592D-04 conv= 1.00D-05.
 RLE energy=       -0.2428281107
 DE(Corr)= -0.24282544     E(CORR)=     -33.901628210     Delta=-3.16D-05
 NORM(A)=   0.10459666D+01
 Iteration Nr.   6
 **********************
 DD1Dir will call FoFMem   1 times, MxPair=        72
 NAB=    36 NAA=     0 NBB=     0.
 A-vector RMS=  1.3916174D-05 Max=  4.9303499D-05 conv= 1.00D-05.
 RLE energy=       -0.2428254798
 DE(Corr)= -0.24282795     E(CORR)=     -33.901630716     Delta=-2.51D-06
 NORM(A)=   0.10459688D+01
 Iteration Nr.   7
 **********************
 DD1Dir will call FoFMem   1 times, MxPair=        72
 NAB=    36 NAA=     0 NBB=     0.
 A-vector RMS=  4.6224467D-06 Max=  1.3565406D-05 conv= 1.00D-05.
 RLE energy=       -0.2428272791
 DE(Corr)= -0.24282751     E(CORR)=     -33.901630278     Delta= 4.37D-07
 NORM(A)=   0.10459705D+01
 Iteration Nr.   8
 **********************
 DD1Dir will call FoFMem   1 times, MxPair=        72
 NAB=    36 NAA=     0 NBB=     0.
 A-vector RMS=  1.4894765D-06 Max=  5.5866525D-06 conv= 1.00D-05.
 RLE energy=       -0.2428271273
 DE(Corr)= -0.24282726     E(CORR)=     -33.901630031     Delta= 2.47D-07
 NORM(A)=   0.10459708D+01
 Iteration Nr.   9
 **********************
 DD1Dir will call FoFMem   1 times, MxPair=        72
 NAB=    36 NAA=     0 NBB=     0.
 A-vector RMS=  3.9337081D-07 Max=  2.4291022D-06 conv= 1.00D-05.
 RLE energy=       -0.2428273196
 DE(Corr)= -0.24282736     E(CORR)=     -33.901630134     Delta=-1.03D-07
 NORM(A)=   0.10459710D+01
 Iteration Nr.  10
 **********************
 DD1Dir will call FoFMem   1 times, MxPair=        72
 NAB=    36 NAA=     0 NBB=     0.
 A-vector RMS=  1.1804990D-07 Max=  7.9512023D-07 conv= 1.00D-05.
 RLE energy=       -0.2428274434
 DE(Corr)= -0.24282742     E(CORR)=     -33.901630191     Delta=-5.75D-08
 NORM(A)=   0.10459711D+01
 CI/CC converged in   10 iterations to DelEn=-5.75D-08 Conv= 1.00D-07 ErrA1= 1.18D-07 Conv= 1.00D-05
 Wavefunction amplitudes converged. E(Corr)=     -33.901630191    
 Largest amplitude= 5.44D-02
 IPart=  2 IA=    2   12.50% done.
 IPart=  4 IA=    3   24.17% done.
 IPart=  3 IA=    4   35.00% done.
 IPart=  3 IA=    5   45.00% done.
 IPart=  4 IA=    6   54.17% done.
 IPart=  2 IA=    7   62.50% done.
 IPart=  1 IA=    8   70.00% done.
 IPart=  2 IA=   10   82.50% done.
 IPart=  3 IA=   12   91.67% done.
 Time for triples=        0.27 seconds.
 T4(CCSD)= -0.31529877D-02
 T5(CCSD)=  0.53771488D-03
 CCSD(T)= -0.33904245464D+02
 Discarding MO integrals.
 Leave Link  913 at Sun Dec 10 06:56:27 2023, MaxMem=   536870912 cpu:               1.0 elap:               0.3
 (Enter /usr/site/hpc/x86_64/glibc-2.17/broadwell/gaussian/g16_a.03/pgi-16.5/g16/l601.exe)
 Copying SCF densities to generalized density rwf, IOpCl= 0 IROHF=0.

 **********************************************************************

            Population analysis using the SCF density.

 **********************************************************************

 Orbital symmetries:
       Occupied  (A') (A') (A') (A') (A') (A') (A") (A")
       Virtual   (A') (A') (A') (A') (A") (A') (A") (A') (A') (A')
                 (A') (A') (A') (A') (A') (A')
 The electronic state is 1-A'.
 Alpha  occ. eigenvalues --   -1.37381  -1.33051  -0.73028  -0.68716  -0.57623
 Alpha  occ. eigenvalues --   -0.52902  -0.52048  -0.47712
 Alpha virt. eigenvalues --    0.18171   0.24037   0.29016   0.35349   0.78262
 Alpha virt. eigenvalues --    0.82766   0.83013   0.86180   0.88513   0.90507
 Alpha virt. eigenvalues --    1.15732   1.20054   1.20566   1.32594   2.51654
 Alpha virt. eigenvalues --    2.81258
          Condensed to atoms (all electrons):
               1          2          3          4          5          6
     1  O    6.238430   0.271371   0.261628  -0.000789   0.000024   0.000018
     2  H    0.271371   0.342611  -0.022676   0.001590   0.000003   0.000007
     3  H    0.261628  -0.022676   0.399693   0.000069  -0.000000  -0.000002
     4  O   -0.000789   0.001590   0.000069   6.229270   0.268189   0.266447
     5  H    0.000024   0.000003  -0.000000   0.268189   0.369185  -0.022958
     6  H    0.000018   0.000007  -0.000002   0.266447  -0.022958   0.374968
 Mulliken charges:
               1
     1  O   -0.770683
     2  H    0.407093
     3  H    0.361287
     4  O   -0.764775
     5  H    0.385557
     6  H    0.381520
 Sum of Mulliken charges =  -0.00000
 Mulliken charges with hydrogens summed into heavy atoms:
               1
     1  O   -0.002302
     4  O    0.002302
 Electronic spatial extent (au):  <R**2>=            230.0539
 Charge=             -0.0000 electrons
 Dipole moment (field-independent basis, Debye):
    X=             -1.8548    Y=             -4.4308    Z=             -0.0000  Tot=              4.8033
 Quadrupole moment (field-independent basis, Debye-Ang):
   XX=             -9.3980   YY=             -7.4809   ZZ=            -15.0026
   XY=             -5.3849   XZ=             -0.0000   YZ=              0.0000
 Traceless Quadrupole moment (field-independent basis, Debye-Ang):
   XX=              1.2292   YY=              3.1463   ZZ=             -4.3754
   XY=             -5.3849   XZ=             -0.0000   YZ=              0.0000
 Octapole moment (field-independent basis, Debye-Ang**2):
  XXX=             -1.3325  YYY=            -39.2252  ZZZ=             -0.0000  XYY=            -11.1196
  XXY=             -3.9888  XXZ=             -0.0000  XZZ=             -0.3469  YZZ=             -0.8859
  YYZ=             -0.0000  XYZ=             -0.0000
 Hexadecapole moment (field-independent basis, Debye-Ang**3):
 XXXX=            -11.8709 YYYY=           -216.8641 ZZZZ=            -12.2479 XXXY=             -2.4630
 XXXZ=             -0.0000 YYYX=            -23.3704 YYYZ=             -0.0000 ZZZX=              0.0000
 ZZZY=             -0.0000 XXYY=            -29.6321 XXZZ=             -4.5601 YYZZ=            -54.2919
 XXYZ=             -0.0000 YYXZ=             -0.0000 ZZXY=              0.6116
 N-N= 2.287201308178D+01 E-N=-1.273984881792D+02  KE= 2.678608534957D+01
 Symmetry A'   KE= 1.791786188780D+01
 Symmetry A"   KE= 8.868223461772D+00
 Leave Link  601 at Sun Dec 10 06:56:27 2023, MaxMem=   536870912 cpu:               0.1 elap:               0.0
 (Enter /usr/site/hpc/x86_64/glibc-2.17/broadwell/gaussian/g16_a.03/pgi-16.5/g16/l9999.exe)
 1\1\GINC-N044\SP\RCCSD(T)-FC\CEP-31G\H4O2\ROOT\10-Dec-2023\0\\#p CCSD(
 T)/CEP-31G\\H2O_H2O_1991\\0,1\O,0,0.,-0.009833,0.\H,0,-0.799571,-0.580
 965,0.\H,0,0.799571,-0.580965,0.\O,0,-2.951384,-2.107,0.\H,0,-3.845784
 ,-1.700117,0.\H,0,-3.046213,-3.085015,0.\\Version=ES64L-G16RevA.03\Sta
 te=1-A'\HF=-33.6588028\MP2=-33.8873856\MP3=-33.892668\MP4D=-33.8977896
 \MP4DQ=-33.8985349\MP4SDQ=-33.900608\CCSD=-33.9016302\CCSD(T)=-33.9042
 455\RMSD=8.845e-10\PG=CS [SG(H4O2)]\\@


 At the touch of love, everyone becomves a poet.
                                -- Plato
 Job cpu time:       0 days  0 hours  0 minutes  3.4 seconds.
 Elapsed time:       0 days  0 hours  0 minutes  1.0 seconds.
 File lengths (MBytes):  RWF=     72 Int=      0 D2E=      0 Chk=      8 Scr=      8
 Normal termination of Gaussian 16 at Sun Dec 10 06:56:27 2023.
