 Entering Gaussian System, Link 0=g16
 Input=H2O_H2O_1518.com
 Output=H2O_H2O_1518.log
 Initial command:
 /usr/site/hpc/x86_64/glibc-2.17/broadwell/gaussian/g16_a.03/pgi-16.5/g16/l1.exe "/gpfs/gpfs1/scratch/c7441090/OH Coord/Gau-1680960.inp" -scrdir="/gpfs/gpfs1/scratch/c7441090/OH Coord/"
 Entering Link 1 = /usr/site/hpc/x86_64/glibc-2.17/broadwell/gaussian/g16_a.03/pgi-16.5/g16/l1.exe PID=   1680961.
  
 Copyright (c) 1988,1990,1992,1993,1995,1998,2003,2009,2016,
            Gaussian, Inc.  All Rights Reserved.
  
 This is part of the Gaussian(R) 16 program.  It is based on
 the Gaussian(R) 09 system (copyright 2009, Gaussian, Inc.),
 the Gaussian(R) 03 system (copyright 2003, Gaussian, Inc.),
 the Gaussian(R) 98 system (copyright 1998, Gaussian, Inc.),
 the Gaussian(R) 94 system (copyright 1995, Gaussian, Inc.),
 the Gaussian 92(TM) system (copyright 1992, Gaussian, Inc.),
 the Gaussian 90(TM) system (copyright 1990, Gaussian, Inc.),
 the Gaussian 88(TM) system (copyright 1988, Gaussian, Inc.),
 the Gaussian 86(TM) system (copyright 1986, Carnegie Mellon
 University), and the Gaussian 82(TM) system (copyright 1983,
 Carnegie Mellon University). Gaussian is a federally registered
 trademark of Gaussian, Inc.
  
 This software contains proprietary and confidential information,
 including trade secrets, belonging to Gaussian, Inc.
  
 This software is provided under written license and may be
 used, copied, transmitted, or stored only in accord with that
 written license.
  
 The following legend is applicable only to US Government
 contracts under FAR:
  
                    RESTRICTED RIGHTS LEGEND
  
 Use, reproduction and disclosure by the US Government is
 subject to restrictions as set forth in subparagraphs (a)
 and (c) of the Commercial Computer Software - Restricted
 Rights clause in FAR 52.227-19.
  
 Gaussian, Inc.
 340 Quinnipiac St., Bldg. 40, Wallingford CT 06492
  
  
 ---------------------------------------------------------------
 Warning -- This program may not be used in any manner that
 competes with the business of Gaussian, Inc. or will provide
 assistance to any competitor of Gaussian, Inc.  The licensee
 of this program is prohibited from giving any competitor of
 Gaussian, Inc. access to this program.  By using this program,
 the user acknowledges that Gaussian, Inc. is engaged in the
 business of creating and licensing software in the field of
 computational chemistry and represents and warrants to the
 licensee that it is not a competitor of Gaussian, Inc. and that
 it will not use this program in any manner prohibited above.
 ---------------------------------------------------------------
  

 Cite this work as:
 Gaussian 16, Revision A.03,
 M. J. Frisch, G. W. Trucks, H. B. Schlegel, G. E. Scuseria, 
 M. A. Robb, J. R. Cheeseman, G. Scalmani, V. Barone, 
 G. A. Petersson, H. Nakatsuji, X. Li, M. Caricato, A. V. Marenich, 
 J. Bloino, B. G. Janesko, R. Gomperts, B. Mennucci, H. P. Hratchian, 
 J. V. Ortiz, A. F. Izmaylov, J. L. Sonnenberg, D. Williams-Young, 
 F. Ding, F. Lipparini, F. Egidi, J. Goings, B. Peng, A. Petrone, 
 T. Henderson, D. Ranasinghe, V. G. Zakrzewski, J. Gao, N. Rega, 
 G. Zheng, W. Liang, M. Hada, M. Ehara, K. Toyota, R. Fukuda, 
 J. Hasegawa, M. Ishida, T. Nakajima, Y. Honda, O. Kitao, H. Nakai, 
 T. Vreven, K. Throssell, J. A. Montgomery, Jr., J. E. Peralta, 
 F. Ogliaro, M. J. Bearpark, J. J. Heyd, E. N. Brothers, K. N. Kudin, 
 V. N. Staroverov, T. A. Keith, R. Kobayashi, J. Normand, 
 K. Raghavachari, A. P. Rendell, J. C. Burant, S. S. Iyengar, 
 J. Tomasi, M. Cossi, J. M. Millam, M. Klene, C. Adamo, R. Cammi, 
 J. W. Ochterski, R. L. Martin, K. Morokuma, O. Farkas, 
 J. B. Foresman, and D. J. Fox, Gaussian, Inc., Wallingford CT, 2016.
 
 ******************************************
 Gaussian 16:  ES64L-G16RevA.03 25-Dec-2016
                10-Dec-2023 
 ******************************************
 %NProcShared=4
 Will use up to    4 processors via shared memory.
 %Mem=4GB
 %Chk=H2O_H2O_1518.chk
 ------------------
 #p CCSD(T)/CEP-31G
 ------------------
 1/38=1,172=1/1;
 2/12=2,17=6,18=5,40=1/2;
 3/5=9,6=1,11=9,25=1,30=1/1,2,3;
 4//1;
 5/5=2,38=5/2;
 8/6=4,9=120000,10=1/1,4;
 9/5=7,14=2/13;
 6/7=2,8=2,9=2,10=2/1;
 99/5=1,9=1/99;
 Leave Link    1 at Sun Dec 10 06:47:25 2023, MaxMem=   536870912 cpu:               0.2 elap:               0.1
 (Enter /usr/site/hpc/x86_64/glibc-2.17/broadwell/gaussian/g16_a.03/pgi-16.5/g16/l101.exe)
 ------------
 H2O_H2O_1518
 ------------
 Symbolic Z-matrix:
 Charge =  0 Multiplicity = 1
 O                     0.       -0.00983   0. 
 H                    -0.79957  -0.58097   0. 
 H                     0.79957  -0.58097   0. 
 O                    -2.6436   -1.88559   0. 
 H                    -3.47724  -1.36545   0. 
 H                    -2.86528  -2.84286   0. 
 
 ITRead=  0  0  0  0  0  0
 MicOpt= -1 -1 -1 -1 -1 -1
 NAtoms=      6 NQM=        6 NQMF=       0 NMMI=      0 NMMIF=      0
                NMic=       0 NMicF=      0.
                    Isotopes and Nuclear Properties:
 (Nuclear quadrupole moments (NQMom) in fm**2, nuclear magnetic moments (NMagM)
  in nuclear magnetons)

  Atom         1           2           3           4           5           6
 IAtWgt=          16           1           1          16           1           1
 AtmWgt=  15.9949146   1.0078250   1.0078250  15.9949146   1.0078250   1.0078250
 NucSpn=           0           1           1           0           1           1
 AtZEff=  -0.0000000  -0.0000000  -0.0000000  -0.0000000  -0.0000000  -0.0000000
 NQMom=    0.0000000   0.0000000   0.0000000   0.0000000   0.0000000   0.0000000
 NMagM=    0.0000000   2.7928460   2.7928460   0.0000000   2.7928460   2.7928460
 AtZNuc=   8.0000000   1.0000000   1.0000000   8.0000000   1.0000000   1.0000000
 Leave Link  101 at Sun Dec 10 06:47:25 2023, MaxMem=   536870912 cpu:               0.3 elap:               0.1
 (Enter /usr/site/hpc/x86_64/glibc-2.17/broadwell/gaussian/g16_a.03/pgi-16.5/g16/l202.exe)
                          Input orientation:                          
 ---------------------------------------------------------------------
 Center     Atomic      Atomic             Coordinates (Angstroms)
 Number     Number       Type             X           Y           Z
 ---------------------------------------------------------------------
      1          8           0        0.000000   -0.009833    0.000000
      2          1           0       -0.799571   -0.580965    0.000000
      3          1           0        0.799571   -0.580965    0.000000
      4          8           0       -2.643603   -1.885594    0.000000
      5          1           0       -3.477243   -1.365449    0.000000
      6          1           0       -2.865278   -2.842864    0.000000
 ---------------------------------------------------------------------
                    Distance matrix (angstroms):
                    1          2          3          4          5
     1  O    0.000000
     2  H    0.982601   0.000000
     3  H    0.982601   1.599142   0.000000
     4  O    3.241468   2.258874   3.682052   0.000000
     5  H    3.732146   2.790223   4.348167   0.982602   0.000000
     6  H    4.029377   3.063223   4.306658   0.982601   1.599142
                    6
     6  H    0.000000
 Stoichiometry    H4O2
 Framework group  CS[SG(H4O2)]
 Deg. of freedom     9
 Full point group                 CS      NOp   2
 Largest Abelian subgroup         CS      NOp   2
 Largest concise Abelian subgroup C1      NOp   1
                         Standard orientation:                         
 ---------------------------------------------------------------------
 Center     Atomic      Atomic             Coordinates (Angstroms)
 Number     Number       Type             X           Y           Z
 ---------------------------------------------------------------------
      1          8           0        0.033870    1.709465    0.000000
      2          1           0        0.030772    0.726869    0.000000
      3          1           0       -0.894614    2.031061    0.000000
      4          8           0        0.033870   -1.532003   -0.000000
      5          1           0        0.940486   -1.910888   -0.000000
      6          1           0       -0.618561   -2.266741   -0.000000
 ---------------------------------------------------------------------
 Rotational constants (GHZ):         244.6407119           5.1662653           5.0594216
 Leave Link  202 at Sun Dec 10 06:47:25 2023, MaxMem=   536870912 cpu:               0.0 elap:               0.0
 (Enter /usr/site/hpc/x86_64/glibc-2.17/broadwell/gaussian/g16_a.03/pgi-16.5/g16/l301.exe)
 Standard basis: CEP-31G (6D, 10F)
 Ernie: Thresh=  0.10000D-02 Tol=  0.10000D-05 Strict=F.
 There are    20 symmetry adapted cartesian basis functions of A'  symmetry.
 There are     4 symmetry adapted cartesian basis functions of A"  symmetry.
 There are    20 symmetry adapted basis functions of A'  symmetry.
 There are     4 symmetry adapted basis functions of A"  symmetry.
    24 basis functions,    48 primitive gaussians,    24 cartesian basis functions
     8 alpha electrons        8 beta electrons
       nuclear repulsion energy        23.9776380128 Hartrees.
 IExCor=    0 DFT=F Ex=HF Corr=None ExCW=0 ScaHFX=  1.000000
 ScaDFX=  1.000000  1.000000  1.000000  1.000000 ScalE2=  1.000000  1.000000
 IRadAn=      5 IRanWt=     -1 IRanGd=            0 ICorTp=0 IEmpDi=  4
 NAtoms=    6 NActive=    6 NUniq=    6 SFac= 1.00D+00 NAtFMM=   60 NAOKFM=F Big=F
 Integral buffers will be    131072 words long.
 Raffenetti 1 integral format.
 Two-electron integral symmetry is turned on.
 Leave Link  301 at Sun Dec 10 06:47:25 2023, MaxMem=   536870912 cpu:               0.2 elap:               0.1
 (Enter /usr/site/hpc/x86_64/glibc-2.17/broadwell/gaussian/g16_a.03/pgi-16.5/g16/l302.exe)
 NPDir=0 NMtPBC=     1 NCelOv=     1 NCel=       1 NClECP=     1 NCelD=      1
         NCelK=      1 NCelE2=     1 NClLst=     1 CellRange=     0.0.
 One-electron integrals computed using PRISM.
 One-electron integral symmetry used in STVInt
   2 Symmetry operations used in ECPInt.
 ECPInt:  NShTT=      78 NPrTT=     318 LenC2=      79 LenP2D=     286.
 LDataN:  DoStor=T MaxTD1= 2 Len=   12
 NBasis=    24 RedAO= T EigKep=  2.63D-02  NBF=    20     4
 NBsUse=    24 1.00D-06 EigRej= -1.00D+00 NBFU=    20     4
 Leave Link  302 at Sun Dec 10 06:47:25 2023, MaxMem=   536870912 cpu:               0.4 elap:               0.1
 (Enter /usr/site/hpc/x86_64/glibc-2.17/broadwell/gaussian/g16_a.03/pgi-16.5/g16/l303.exe)
 DipDrv:  MaxL=1.
 Leave Link  303 at Sun Dec 10 06:47:25 2023, MaxMem=   536870912 cpu:               0.1 elap:               0.0
 (Enter /usr/site/hpc/x86_64/glibc-2.17/broadwell/gaussian/g16_a.03/pgi-16.5/g16/l401.exe)
 ExpMin= 1.78D-01 ExpMax= 1.92D+01 ExpMxC= 1.92D+01 IAcc=3 IRadAn=         5 AccDes= 0.00D+00
 Harris functional with IExCor=  205 and IRadAn=       5 diagonalized for initial guess.
 HarFok:  IExCor=  205 AccDes= 0.00D+00 IRadAn=         5 IDoV= 1 UseB2=F ITyADJ=14
 ICtDFT=  3500011 ScaDFX=  1.000000  1.000000  1.000000  1.000000
 FoFCou: FMM=F IPFlag=           0 FMFlag=      100000 FMFlg1=           0
         NFxFlg=           0 DoJE=T BraDBF=F KetDBF=T FulRan=T
         wScrn=  0.000000 ICntrl=       500 IOpCl=  0 I1Cent=   200000004 NGrid=           0
         NMat0=    1 NMatS0=      1 NMatT0=    0 NMatD0=    1 NMtDS0=    0 NMtDT0=    0
 Petite list used in FoFCou.
 Harris En= -34.4806795539139    
 JPrj=0 DoOrth=F DoCkMO=F.
 Initial guess orbital symmetries:
       Occupied  (A') (A') (A') (A') (A') (A') (A") (A")
       Virtual   (A') (A') (A') (A') (A") (A') (A") (A') (A') (A')
                 (A') (A') (A') (A') (A') (A')
 The electronic state of the initial guess is 1-A'.
 Leave Link  401 at Sun Dec 10 06:47:25 2023, MaxMem=   536870912 cpu:               0.5 elap:               0.1
 (Enter /usr/site/hpc/x86_64/glibc-2.17/broadwell/gaussian/g16_a.03/pgi-16.5/g16/l502.exe)
 Keep R1 ints in memory in symmetry-blocked form, NReq=852564.
 FoFCou: FMM=F IPFlag=           0 FMFlag=           0 FMFlg1=           0
         NFxFlg=           0 DoJE=F BraDBF=F KetDBF=F FulRan=T
         wScrn=  0.000000 ICntrl=       600 IOpCl=  0 I1Cent=           0 NGrid=           0
         NMat0=    1 NMatS0=    300 NMatT0=    0 NMatD0=    1 NMtDS0=    0 NMtDT0=    0
 Petite list used in FoFCou.
 Closed shell SCF:
 Using DIIS extrapolation, IDIIS=  1040.
 NGot=   536870912 LenX=   536840576 LenY=   536839559
 Requested convergence on RMS density matrix=1.00D-08 within 128 cycles.
 Requested convergence on MAX density matrix=1.00D-06.
 Requested convergence on             energy=1.00D-06.
 No special actions if energy rises.

 Cycle   1  Pass 1  IDiag  1:
 E= -33.5746107108603    
 DIIS: error= 6.17D-02 at cycle   1 NSaved=   1.
 NSaved= 1 IEnMin= 1 EnMin= -33.5746107108603     IErMin= 1 ErrMin= 6.17D-02
 ErrMax= 6.17D-02  0.00D+00 EMaxC= 1.00D-01 BMatC= 9.57D-02 BMatP= 9.57D-02
 IDIUse=3 WtCom= 3.83D-01 WtEn= 6.17D-01
 Coeff-Com:  0.100D+01
 Coeff-En:   0.100D+01
 Coeff:      0.100D+01
 Gap=     0.585 Goal=   None    Shift=    0.000
 GapD=    0.585 DampG=2.000 DampE=0.500 DampFc=1.0000 IDamp=-1.
 RMSDP=1.44D-02 MaxDP=1.19D-01              OVMax= 9.40D-02

 Cycle   2  Pass 1  IDiag  1:
 E= -33.6333533779016     Delta-E=       -0.058742667041 Rises=F Damp=F
 DIIS: error= 3.50D-02 at cycle   2 NSaved=   2.
 NSaved= 2 IEnMin= 2 EnMin= -33.6333533779016     IErMin= 2 ErrMin= 3.50D-02
 ErrMax= 3.50D-02  0.00D+00 EMaxC= 1.00D-01 BMatC= 3.42D-02 BMatP= 9.57D-02
 IDIUse=3 WtCom= 6.50D-01 WtEn= 3.50D-01
 Coeff-Com:  0.371D+00 0.629D+00
 Coeff-En:   0.942D-01 0.906D+00
 Coeff:      0.274D+00 0.726D+00
 Gap=     0.655 Goal=   None    Shift=    0.000
 RMSDP=6.04D-03 MaxDP=5.25D-02 DE=-5.87D-02 OVMax= 3.41D-02

 Cycle   3  Pass 1  IDiag  1:
 E= -33.6606548687204     Delta-E=       -0.027301490819 Rises=F Damp=F
 DIIS: error= 6.35D-03 at cycle   3 NSaved=   3.
 NSaved= 3 IEnMin= 3 EnMin= -33.6606548687204     IErMin= 3 ErrMin= 6.35D-03
 ErrMax= 6.35D-03  0.00D+00 EMaxC= 1.00D-01 BMatC= 8.05D-04 BMatP= 3.42D-02
 IDIUse=3 WtCom= 9.37D-01 WtEn= 6.35D-02
 Coeff-Com: -0.111D+00-0.164D-01 0.113D+01
 Coeff-En:   0.000D+00 0.000D+00 0.100D+01
 Coeff:     -0.104D+00-0.153D-01 0.112D+01
 Gap=     0.648 Goal=   None    Shift=    0.000
 RMSDP=1.02D-03 MaxDP=8.69D-03 DE=-2.73D-02 OVMax= 7.40D-03

 Cycle   4  Pass 1  IDiag  1:
 E= -33.6614426661056     Delta-E=       -0.000787797385 Rises=F Damp=F
 DIIS: error= 6.17D-04 at cycle   4 NSaved=   4.
 NSaved= 4 IEnMin= 4 EnMin= -33.6614426661056     IErMin= 4 ErrMin= 6.17D-04
 ErrMax= 6.17D-04  0.00D+00 EMaxC= 1.00D-01 BMatC= 4.63D-06 BMatP= 8.05D-04
 IDIUse=3 WtCom= 9.94D-01 WtEn= 6.17D-03
 Coeff-Com:  0.396D-01-0.162D-01-0.493D+00 0.147D+01
 Coeff-En:   0.000D+00 0.000D+00 0.000D+00 0.100D+01
 Coeff:      0.393D-01-0.161D-01-0.490D+00 0.147D+01
 Gap=     0.650 Goal=   None    Shift=    0.000
 RMSDP=2.20D-04 MaxDP=1.69D-03 DE=-7.88D-04 OVMax= 1.10D-03

 Cycle   5  Pass 1  IDiag  1:
 E= -33.6614534600097     Delta-E=       -0.000010793904 Rises=F Damp=F
 DIIS: error= 5.54D-05 at cycle   5 NSaved=   5.
 NSaved= 5 IEnMin= 5 EnMin= -33.6614534600097     IErMin= 5 ErrMin= 5.54D-05
 ErrMax= 5.54D-05  0.00D+00 EMaxC= 1.00D-01 BMatC= 3.89D-08 BMatP= 4.63D-06
 IDIUse=1 WtCom= 1.00D+00 WtEn= 0.00D+00
 Coeff-Com: -0.749D-02 0.320D-02 0.944D-01-0.335D+00 0.124D+01
 Coeff:     -0.749D-02 0.320D-02 0.944D-01-0.335D+00 0.124D+01
 Gap=     0.650 Goal=   None    Shift=    0.000
 RMSDP=1.85D-05 MaxDP=1.77D-04 DE=-1.08D-05 OVMax= 9.68D-05

 Cycle   6  Pass 1  IDiag  1:
 E= -33.6614535557446     Delta-E=       -0.000000095735 Rises=F Damp=F
 DIIS: error= 8.21D-06 at cycle   6 NSaved=   6.
 NSaved= 6 IEnMin= 6 EnMin= -33.6614535557446     IErMin= 6 ErrMin= 8.21D-06
 ErrMax= 8.21D-06  0.00D+00 EMaxC= 1.00D-01 BMatC= 1.61D-09 BMatP= 3.89D-08
 IDIUse=1 WtCom= 1.00D+00 WtEn= 0.00D+00
 Coeff-Com:  0.329D-03-0.526D-04-0.390D-02 0.190D-01-0.192D+00 0.118D+01
 Coeff:      0.329D-03-0.526D-04-0.390D-02 0.190D-01-0.192D+00 0.118D+01
 Gap=     0.650 Goal=   None    Shift=    0.000
 RMSDP=3.23D-06 MaxDP=2.01D-05 DE=-9.57D-08 OVMax= 2.84D-05

 Cycle   7  Pass 1  IDiag  1:
 E= -33.6614535594760     Delta-E=       -0.000000003731 Rises=F Damp=F
 DIIS: error= 2.51D-06 at cycle   7 NSaved=   7.
 NSaved= 7 IEnMin= 7 EnMin= -33.6614535594760     IErMin= 7 ErrMin= 2.51D-06
 ErrMax= 2.51D-06  0.00D+00 EMaxC= 1.00D-01 BMatC= 2.82D-10 BMatP= 1.61D-09
 IDIUse=1 WtCom= 1.00D+00 WtEn= 0.00D+00
 Coeff-Com:  0.775D-03-0.330D-03-0.980D-02 0.362D-01-0.160D+00 0.260D+00
 Coeff-Com:  0.873D+00
 Coeff:      0.775D-03-0.330D-03-0.980D-02 0.362D-01-0.160D+00 0.260D+00
 Coeff:      0.873D+00
 Gap=     0.650 Goal=   None    Shift=    0.000
 RMSDP=9.16D-07 MaxDP=9.45D-06 DE=-3.73D-09 OVMax= 8.65D-06

 Cycle   8  Pass 1  IDiag  1:
 E= -33.6614535599093     Delta-E=       -0.000000000433 Rises=F Damp=F
 DIIS: error= 9.99D-07 at cycle   8 NSaved=   8.
 NSaved= 8 IEnMin= 8 EnMin= -33.6614535599093     IErMin= 8 ErrMin= 9.99D-07
 ErrMax= 9.99D-07  0.00D+00 EMaxC= 1.00D-01 BMatC= 1.91D-11 BMatP= 2.82D-10
 IDIUse=1 WtCom= 1.00D+00 WtEn= 0.00D+00
 Coeff-Com: -0.794D-05-0.183D-04 0.434D-04-0.740D-03 0.197D-01-0.143D+00
 Coeff-Com: -0.723D-02 0.113D+01
 Coeff:     -0.794D-05-0.183D-04 0.434D-04-0.740D-03 0.197D-01-0.143D+00
 Coeff:     -0.723D-02 0.113D+01
 Gap=     0.650 Goal=   None    Shift=    0.000
 RMSDP=3.71D-07 MaxDP=2.46D-06 DE=-4.33D-10 OVMax= 3.62D-06

 Cycle   9  Pass 1  IDiag  1:
 E= -33.6614535599525     Delta-E=       -0.000000000043 Rises=F Damp=F
 DIIS: error= 1.60D-07 at cycle   9 NSaved=   9.
 NSaved= 9 IEnMin= 9 EnMin= -33.6614535599525     IErMin= 9 ErrMin= 1.60D-07
 ErrMax= 1.60D-07  0.00D+00 EMaxC= 1.00D-01 BMatC= 5.68D-13 BMatP= 1.91D-11
 IDIUse=1 WtCom= 1.00D+00 WtEn= 0.00D+00
 Coeff-Com:  0.677D-05 0.492D-05-0.553D-04 0.284D-03-0.606D-02 0.502D-01
 Coeff-Com: -0.172D-01-0.428D+00 0.140D+01
 Coeff:      0.677D-05 0.492D-05-0.553D-04 0.284D-03-0.606D-02 0.502D-01
 Coeff:     -0.172D-01-0.428D+00 0.140D+01
 Gap=     0.650 Goal=   None    Shift=    0.000
 RMSDP=1.04D-07 MaxDP=4.46D-07 DE=-4.32D-11 OVMax= 7.24D-07

 Cycle  10  Pass 1  IDiag  1:
 E= -33.6614535599541     Delta-E=       -0.000000000002 Rises=F Damp=F
 DIIS: error= 1.56D-08 at cycle  10 NSaved=  10.
 NSaved=10 IEnMin=10 EnMin= -33.6614535599541     IErMin=10 ErrMin= 1.56D-08
 ErrMax= 1.56D-08  0.00D+00 EMaxC= 1.00D-01 BMatC= 9.11D-15 BMatP= 5.68D-13
 IDIUse=1 WtCom= 1.00D+00 WtEn= 0.00D+00
 Coeff-Com:  0.425D-06-0.182D-05-0.117D-04 0.349D-04 0.835D-03-0.982D-02
 Coeff-Com:  0.562D-02 0.858D-01-0.391D+00 0.131D+01
 Coeff:      0.425D-06-0.182D-05-0.117D-04 0.349D-04 0.835D-03-0.982D-02
 Coeff:      0.562D-02 0.858D-01-0.391D+00 0.131D+01
 Gap=     0.650 Goal=   None    Shift=    0.000
 RMSDP=1.64D-08 MaxDP=7.82D-08 DE=-1.63D-12 OVMax= 1.08D-07

 Cycle  11  Pass 1  IDiag  1:
 E= -33.6614535599542     Delta-E=       -0.000000000000 Rises=F Damp=F
 DIIS: error= 1.31D-09 at cycle  11 NSaved=  11.
 NSaved=11 IEnMin=11 EnMin= -33.6614535599542     IErMin=11 ErrMin= 1.31D-09
 ErrMax= 1.31D-09  0.00D+00 EMaxC= 1.00D-01 BMatC= 5.79D-17 BMatP= 9.11D-15
 IDIUse=1 WtCom= 1.00D+00 WtEn= 0.00D+00
 Coeff-Com: -0.101D-06 0.378D-06 0.253D-05-0.816D-05-0.176D-03 0.211D-02
 Coeff-Com: -0.122D-02-0.187D-01 0.867D-01-0.332D+00 0.126D+01
 Coeff:     -0.101D-06 0.378D-06 0.253D-05-0.816D-05-0.176D-03 0.211D-02
 Coeff:     -0.122D-02-0.187D-01 0.867D-01-0.332D+00 0.126D+01
 Gap=     0.650 Goal=   None    Shift=    0.000
 RMSDP=1.22D-09 MaxDP=7.51D-09 DE=-8.53D-14 OVMax= 8.30D-09

 SCF Done:  E(RHF) =  -33.6614535600     A.U. after   11 cycles
            NFock= 11  Conv=0.12D-08     -V/T= 2.2560
 KE= 2.679982714257D+01 PE=-1.296318711230D+02 EE= 4.519295240771D+01
 Leave Link  502 at Sun Dec 10 06:47:26 2023, MaxMem=   536870912 cpu:               0.3 elap:               0.1
 (Enter /usr/site/hpc/x86_64/glibc-2.17/broadwell/gaussian/g16_a.03/pgi-16.5/g16/l801.exe)
 Windowed orbitals will be sorted by symmetry type.
 Range of M.O.s used for correlation:     1    24
 NBasis=    24 NAE=     8 NBE=     8 NFC=     0 NFV=     0
 NROrb=     24 NOA=     8 NOB=     8 NVA=    16 NVB=    16
 Leave Link  801 at Sun Dec 10 06:47:26 2023, MaxMem=   536870912 cpu:               0.2 elap:               0.0
 (Enter /usr/site/hpc/x86_64/glibc-2.17/broadwell/gaussian/g16_a.03/pgi-16.5/g16/l804.exe)
 Closed-shell transformation, MDV=   536870912 ITran=4 ISComp=2.
 Unit  1 TFree=       1025975 TCopy=        210600.
 Semi-Direct transformation.
 ModeAB=           2 MOrb=             8 LenV=     536741745
 LASXX=        22470 LTotXX=       22470 LenRXX=       22470
 LTotAB=       26208 MaxLAS=       57600 LenRXY=       57600
 NonZer=       62208 LenScr=      524288 LnRSAI=           0
 LnScr1=           0 LExtra=           0 Total=       604358
 MaxDsk=          -1 SrtSym=           F ITran=            4
 DoSDTr:  NPSUse=  4
 JobTyp=0 Pass  1:  I=   1 to   8.
 (rs|ai) integrals will be sorted in core.
 Complete sort for first half transformation.
 First half transformation complete.
 Complete sort for second half transformation.
 Second half transformation complete.
 Spin components of T(2) and E(2):
     alpha-alpha T2 =       0.9090258183D-02 E2=     -0.2611781745D-01
     alpha-beta  T2 =       0.5948443380D-01 E2=     -0.1765506525D+00
     beta-beta   T2 =       0.9090258183D-02 E2=     -0.2611781745D-01
 ANorm=    0.1038106425D+01
 E2 =    -0.2287862875D+00 EUMP2 =    -0.33890239847410D+02
 Leave Link  804 at Sun Dec 10 06:47:26 2023, MaxMem=   536870912 cpu:               0.2 elap:               0.1
 (Enter /usr/site/hpc/x86_64/glibc-2.17/broadwell/gaussian/g16_a.03/pgi-16.5/g16/l913.exe)
 CIDS:  MDV=   536870912.
 IFCWin=0 IBDFC=1 NFBD=     0     0 NFCmp=     0     0 NFFFC=     0     0
 Using DD3R+UMP44R for 1st iteration.
 Using DD4RQ for 2nd and later iterations.
 Keep R2 and R3 ints in memory in symmetry-blocked form, NReq=865172.
 FoFCou: FMM=F IPFlag=           0 FMFlag=           0 FMFlg1=           0
         NFxFlg=           0 DoJE=F BraDBF=F KetDBF=F FulRan=T
         wScrn=  0.000000 ICntrl=       600 IOpCl=  0 I1Cent=           0 NGrid=           0
         NMat0=    1 NMatS0=    300 NMatT0=    0 NMatD0=    1 NMtDS0=    0 NMtDT0=    0
 Petite list used in FoFCou.
 CIDS: In Core Option IDoMem=           1.
 CCSD(T)
 =======
 Iterations=  50 Convergence= 0.100D-06
 Produce multiple copies of IABC intergrals
 Iteration Nr.   1
 **********************
 DD1Dir will call FoFMem   1 times, MxPair=        72
 NAB=    36 NAA=     0 NBB=     0.
 MP4(R+Q)= -0.72400886D-03
 Maximum subspace dimension=  5
 A-vector RMS=  5.8598949D-03 Max=  1.2711493D-02 conv= 1.00D-05.
 RLE energy=       -0.2345650108
 E3=       -0.51876613D-02        EUMP3=      -0.33895427509D+02
 E4(DQ)=   -0.58145462D-02        UMP4(DQ)=   -0.33901242055D+02
 E4(SDQ)=  -0.79044244D-02        UMP4(SDQ)=  -0.33903331933D+02
 VARIATIONAL ENERGIES WITH THE FIRST-ORDER WAVEFUNCTION:
 DE(Corr)= -0.23442299     E(Corr)=     -33.895876546    
 NORM(A)=   0.10414435D+01
 Iteration Nr.   2
 **********************
 DD1Dir will call FoFMem   1 times, MxPair=        72
 NAB=    36 NAA=     0 NBB=     0.
 A-vector RMS=  9.6662930D-04 Max=  2.6949766D-03 conv= 1.00D-05.
 RLE energy=       -0.2422924663
 DE(Corr)= -0.24038749     E(CORR)=     -33.901841051     Delta=-5.96D-03
 NORM(A)=   0.10451924D+01
 Iteration Nr.   3
 **********************
 DD1Dir will call FoFMem   1 times, MxPair=        72
 NAB=    36 NAA=     0 NBB=     0.
 A-vector RMS=  3.8035830D-04 Max=  7.7311987D-04 conv= 1.00D-05.
 RLE energy=       -0.2428354258
 DE(Corr)= -0.24238958     E(CORR)=     -33.903843139     Delta=-2.00D-03
 NORM(A)=   0.10457399D+01
 Iteration Nr.   4
 **********************
 DD1Dir will call FoFMem   1 times, MxPair=        72
 NAB=    36 NAA=     0 NBB=     0.
 A-vector RMS=  8.7473054D-05 Max=  2.2382854D-04 conv= 1.00D-05.
 RLE energy=       -0.2428827869
 DE(Corr)= -0.24284829     E(CORR)=     -33.904301852     Delta=-4.59D-04
 NORM(A)=   0.10458064D+01
 Iteration Nr.   5
 **********************
 DD1Dir will call FoFMem   1 times, MxPair=        72
 NAB=    36 NAA=     0 NBB=     0.
 A-vector RMS=  3.8157111D-05 Max=  1.1769727D-04 conv= 1.00D-05.
 RLE energy=       -0.2428822378
 DE(Corr)= -0.24287948     E(CORR)=     -33.904333044     Delta=-3.12D-05
 NORM(A)=   0.10458143D+01
 Iteration Nr.   6
 **********************
 DD1Dir will call FoFMem   1 times, MxPair=        72
 NAB=    36 NAA=     0 NBB=     0.
 A-vector RMS=  1.3775392D-05 Max=  4.8245889D-05 conv= 1.00D-05.
 RLE energy=       -0.2428794959
 DE(Corr)= -0.24288204     E(CORR)=     -33.904335596     Delta=-2.55D-06
 NORM(A)=   0.10458162D+01
 Iteration Nr.   7
 **********************
 DD1Dir will call FoFMem   1 times, MxPair=        72
 NAB=    36 NAA=     0 NBB=     0.
 A-vector RMS=  4.9623499D-06 Max=  1.7945845D-05 conv= 1.00D-05.
 RLE energy=       -0.2428812173
 DE(Corr)= -0.24288166     E(CORR)=     -33.904335217     Delta= 3.79D-07
 NORM(A)=   0.10458177D+01
 Iteration Nr.   8
 **********************
 DD1Dir will call FoFMem   1 times, MxPair=        72
 NAB=    36 NAA=     0 NBB=     0.
 A-vector RMS=  1.6477348D-06 Max=  7.6342075D-06 conv= 1.00D-05.
 RLE energy=       -0.2428812403
 DE(Corr)= -0.24288137     E(CORR)=     -33.904334931     Delta= 2.86D-07
 NORM(A)=   0.10458181D+01
 Iteration Nr.   9
 **********************
 DD1Dir will call FoFMem   1 times, MxPair=        72
 NAB=    36 NAA=     0 NBB=     0.
 A-vector RMS=  4.7714340D-07 Max=  2.4235324D-06 conv= 1.00D-05.
 RLE energy=       -0.2428814337
 DE(Corr)= -0.24288148     E(CORR)=     -33.904335038     Delta=-1.08D-07
 NORM(A)=   0.10458183D+01
 Iteration Nr.  10
 **********************
 DD1Dir will call FoFMem   1 times, MxPair=        72
 NAB=    36 NAA=     0 NBB=     0.
 A-vector RMS=  1.3320106D-07 Max=  6.1045829D-07 conv= 1.00D-05.
 RLE energy=       -0.2428815804
 DE(Corr)= -0.24288155     E(CORR)=     -33.904335114     Delta=-7.59D-08
 NORM(A)=   0.10458185D+01
 CI/CC converged in   10 iterations to DelEn=-7.59D-08 Conv= 1.00D-07 ErrA1= 1.33D-07 Conv= 1.00D-05
 Wavefunction amplitudes converged. E(Corr)=     -33.904335114    
 Largest amplitude= 5.08D-02
 IPart=  2 IA=    2   12.50% done.
 IPart=  4 IA=    3   24.17% done.
 IPart=  3 IA=    4   35.00% done.
 IPart=  3 IA=    5   45.00% done.
 IPart=  4 IA=    6   54.17% done.
 IPart=  2 IA=    7   62.50% done.
 IPart=  1 IA=    8   70.00% done.
 IPart=  3 IA=   10   82.50% done.
 IPart=  1 IA=   12   91.67% done.
 Time for triples=        0.27 seconds.
 T4(CCSD)= -0.32123852D-02
 T5(CCSD)=  0.53832463D-03
 CCSD(T)= -0.33907009175D+02
 Discarding MO integrals.
 Leave Link  913 at Sun Dec 10 06:47:26 2023, MaxMem=   536870912 cpu:               1.0 elap:               0.3
 (Enter /usr/site/hpc/x86_64/glibc-2.17/broadwell/gaussian/g16_a.03/pgi-16.5/g16/l601.exe)
 Copying SCF densities to generalized density rwf, IOpCl= 0 IROHF=0.

 **********************************************************************

            Population analysis using the SCF density.

 **********************************************************************

 Orbital symmetries:
       Occupied  (A') (A') (A') (A') (A') (A") (A') (A")
       Virtual   (A') (A') (A') (A') (A") (A') (A") (A') (A') (A')
                 (A') (A') (A') (A') (A') (A')
 The electronic state is 1-A'.
 Alpha  occ. eigenvalues --   -1.37914  -1.32357  -0.73565  -0.68228  -0.58426
 Alpha  occ. eigenvalues --   -0.52617  -0.52162  -0.47038
 Alpha virt. eigenvalues --    0.17945   0.25185   0.28642   0.38923   0.77180
 Alpha virt. eigenvalues --    0.80492   0.84265   0.86383   0.90338   0.98235
 Alpha virt. eigenvalues --    1.15306   1.19212   1.21476   1.34463   2.49936
 Alpha virt. eigenvalues --    3.06361
          Condensed to atoms (all electrons):
               1          2          3          4          5          6
     1  O    6.245505   0.275947   0.262434  -0.002553   0.000088   0.000038
     2  H    0.275947   0.330420  -0.023407  -0.004282   0.000300   0.000317
     3  H    0.262434  -0.023407   0.401869   0.000356  -0.000002  -0.000008
     4  O   -0.002553  -0.004282   0.000356   6.249642   0.268588   0.269950
     5  H    0.000088   0.000300  -0.000002   0.268588   0.362698  -0.022812
     6  H    0.000038   0.000317  -0.000008   0.269950  -0.022812   0.359959
 Mulliken charges:
               1
     1  O   -0.781459
     2  H    0.420706
     3  H    0.358758
     4  O   -0.781701
     5  H    0.391139
     6  H    0.392557
 Sum of Mulliken charges =  -0.00000
 Mulliken charges with hydrogens summed into heavy atoms:
               1
     1  O   -0.001995
     4  O    0.001995
 Electronic spatial extent (au):  <R**2>=            192.5089
 Charge=             -0.0000 electrons
 Dipole moment (field-independent basis, Debye):
    X=             -1.5145    Y=             -4.4761    Z=             -0.0000  Tot=              4.7253
 Quadrupole moment (field-independent basis, Debye-Ang):
   XX=             -9.4064   YY=             -8.0869   ZZ=            -15.0092
   XY=             -5.1642   XZ=             -0.0000   YZ=              0.0000
 Traceless Quadrupole moment (field-independent basis, Debye-Ang):
   XX=              1.4277   YY=              2.7473   ZZ=             -4.1750
   XY=             -5.1642   XZ=             -0.0000   YZ=              0.0000
 Octapole moment (field-independent basis, Debye-Ang**2):
  XXX=             -0.7566  YYY=            -32.2722  ZZZ=             -0.0000  XYY=             -9.6145
  XXY=             -3.4957  XXZ=             -0.0000  XZZ=             -0.2834  YZZ=             -0.9161
  YYZ=             -0.0000  XYZ=             -0.0000
 Hexadecapole moment (field-independent basis, Debye-Ang**3):
 XXXX=            -11.6561 YYYY=           -178.4096 ZZZZ=            -12.2612 XXXY=             -2.8055
 XXXZ=             -0.0000 YYYX=            -15.0737 YYYZ=             -0.0000 ZZZX=             -0.0000
 ZZZY=             -0.0000 XXYY=            -24.6365 XXZZ=             -4.5540 YYZZ=            -44.5130
 XXYZ=             -0.0000 YYXZ=              0.0000 ZZXY=              0.6203
 N-N= 2.397763801277D+01 E-N=-1.296318711235D+02  KE= 2.679982714257D+01
 Symmetry A'   KE= 1.794073208413D+01
 Symmetry A"   KE= 8.859095058436D+00
 Leave Link  601 at Sun Dec 10 06:47:26 2023, MaxMem=   536870912 cpu:               0.1 elap:               0.0
 (Enter /usr/site/hpc/x86_64/glibc-2.17/broadwell/gaussian/g16_a.03/pgi-16.5/g16/l9999.exe)
 1\1\GINC-N044\SP\RCCSD(T)-FC\CEP-31G\H4O2\ROOT\10-Dec-2023\0\\#p CCSD(
 T)/CEP-31G\\H2O_H2O_1518\\0,1\O,0,0.,-0.009833,0.\H,0,-0.799571,-0.580
 965,0.\H,0,0.799571,-0.580965,0.\O,0,-2.643603,-1.885594,0.\H,0,-3.477
 243,-1.365449,0.\H,0,-2.865278,-2.842864,0.\\Version=ES64L-G16RevA.03\
 State=1-A'\HF=-33.6614536\MP2=-33.8902398\MP3=-33.8954275\MP4D=-33.900
 518\MP4DQ=-33.9012421\MP4SDQ=-33.9033319\CCSD=-33.9043351\CCSD(T)=-33.
 9070092\RMSD=1.221e-09\PG=CS [SG(H4O2)]\\@


 I HAVE NOT FAILED, I HAVE ONLY DISCOVERED 10,000
 WAYS THAT DIDN'T WORK.  -- THOMAS A. EDISON
 Job cpu time:       0 days  0 hours  0 minutes  3.8 seconds.
 Elapsed time:       0 days  0 hours  0 minutes  1.1 seconds.
 File lengths (MBytes):  RWF=     72 Int=      0 D2E=      0 Chk=      8 Scr=      8
 Normal termination of Gaussian 16 at Sun Dec 10 06:47:26 2023.
