 Entering Gaussian System, Link 0=g16
 Input=H2O_H2O_3173.com
 Output=H2O_H2O_3173.log
 Initial command:
 /usr/site/hpc/x86_64/glibc-2.17/broadwell/gaussian/g16_a.03/pgi-16.5/g16/l1.exe "/gpfs/gpfs1/scratch/c7441090/OH Coord/Gau-1184923.inp" -scrdir="/gpfs/gpfs1/scratch/c7441090/OH Coord/"
 Entering Link 1 = /usr/site/hpc/x86_64/glibc-2.17/broadwell/gaussian/g16_a.03/pgi-16.5/g16/l1.exe PID=   1184924.
  
 Copyright (c) 1988,1990,1992,1993,1995,1998,2003,2009,2016,
            Gaussian, Inc.  All Rights Reserved.
  
 This is part of the Gaussian(R) 16 program.  It is based on
 the Gaussian(R) 09 system (copyright 2009, Gaussian, Inc.),
 the Gaussian(R) 03 system (copyright 2003, Gaussian, Inc.),
 the Gaussian(R) 98 system (copyright 1998, Gaussian, Inc.),
 the Gaussian(R) 94 system (copyright 1995, Gaussian, Inc.),
 the Gaussian 92(TM) system (copyright 1992, Gaussian, Inc.),
 the Gaussian 90(TM) system (copyright 1990, Gaussian, Inc.),
 the Gaussian 88(TM) system (copyright 1988, Gaussian, Inc.),
 the Gaussian 86(TM) system (copyright 1986, Carnegie Mellon
 University), and the Gaussian 82(TM) system (copyright 1983,
 Carnegie Mellon University). Gaussian is a federally registered
 trademark of Gaussian, Inc.
  
 This software contains proprietary and confidential information,
 including trade secrets, belonging to Gaussian, Inc.
  
 This software is provided under written license and may be
 used, copied, transmitted, or stored only in accord with that
 written license.
  
 The following legend is applicable only to US Government
 contracts under FAR:
  
                    RESTRICTED RIGHTS LEGEND
  
 Use, reproduction and disclosure by the US Government is
 subject to restrictions as set forth in subparagraphs (a)
 and (c) of the Commercial Computer Software - Restricted
 Rights clause in FAR 52.227-19.
  
 Gaussian, Inc.
 340 Quinnipiac St., Bldg. 40, Wallingford CT 06492
  
  
 ---------------------------------------------------------------
 Warning -- This program may not be used in any manner that
 competes with the business of Gaussian, Inc. or will provide
 assistance to any competitor of Gaussian, Inc.  The licensee
 of this program is prohibited from giving any competitor of
 Gaussian, Inc. access to this program.  By using this program,
 the user acknowledges that Gaussian, Inc. is engaged in the
 business of creating and licensing software in the field of
 computational chemistry and represents and warrants to the
 licensee that it is not a competitor of Gaussian, Inc. and that
 it will not use this program in any manner prohibited above.
 ---------------------------------------------------------------
  

 Cite this work as:
 Gaussian 16, Revision A.03,
 M. J. Frisch, G. W. Trucks, H. B. Schlegel, G. E. Scuseria, 
 M. A. Robb, J. R. Cheeseman, G. Scalmani, V. Barone, 
 G. A. Petersson, H. Nakatsuji, X. Li, M. Caricato, A. V. Marenich, 
 J. Bloino, B. G. Janesko, R. Gomperts, B. Mennucci, H. P. Hratchian, 
 J. V. Ortiz, A. F. Izmaylov, J. L. Sonnenberg, D. Williams-Young, 
 F. Ding, F. Lipparini, F. Egidi, J. Goings, B. Peng, A. Petrone, 
 T. Henderson, D. Ranasinghe, V. G. Zakrzewski, J. Gao, N. Rega, 
 G. Zheng, W. Liang, M. Hada, M. Ehara, K. Toyota, R. Fukuda, 
 J. Hasegawa, M. Ishida, T. Nakajima, Y. Honda, O. Kitao, H. Nakai, 
 T. Vreven, K. Throssell, J. A. Montgomery, Jr., J. E. Peralta, 
 F. Ogliaro, M. J. Bearpark, J. J. Heyd, E. N. Brothers, K. N. Kudin, 
 V. N. Staroverov, T. A. Keith, R. Kobayashi, J. Normand, 
 K. Raghavachari, A. P. Rendell, J. C. Burant, S. S. Iyengar, 
 J. Tomasi, M. Cossi, J. M. Millam, M. Klene, C. Adamo, R. Cammi, 
 J. W. Ochterski, R. L. Martin, K. Morokuma, O. Farkas, 
 J. B. Foresman, and D. J. Fox, Gaussian, Inc., Wallingford CT, 2016.
 
 ******************************************
 Gaussian 16:  ES64L-G16RevA.03 25-Dec-2016
                10-Dec-2023 
 ******************************************
 %NProcShared=4
 Will use up to    4 processors via shared memory.
 %Mem=4GB
 %Chk=H2O_H2O_3173.chk
 ------------------
 #p CCSD(T)/CEP-31G
 ------------------
 1/38=1,172=1/1;
 2/12=2,17=6,18=5,40=1/2;
 3/5=9,6=1,11=9,25=1,30=1/1,2,3;
 4//1;
 5/5=2,38=5/2;
 8/6=4,9=120000,10=1/1,4;
 9/5=7,14=2/13;
 6/7=2,8=2,9=2,10=2/1;
 99/5=1,9=1/99;
 Leave Link    1 at Sun Dec 10 06:30:09 2023, MaxMem=   536870912 cpu:               0.2 elap:               0.1
 (Enter /usr/site/hpc/x86_64/glibc-2.17/broadwell/gaussian/g16_a.03/pgi-16.5/g16/l101.exe)
 ------------
 H2O_H2O_3173
 ------------
 Symbolic Z-matrix:
 Charge =  0 Multiplicity = 1
 O                     0.       -0.00983   0. 
 H                    -0.79957  -0.58097   0. 
 H                     0.79957  -0.58097   0. 
 O                    -3.71544  -2.64756   0. 
 H                    -4.33764  -1.88706   0. 
 H                    -4.23305  -3.48278   0. 
 
 ITRead=  0  0  0  0  0  0
 MicOpt= -1 -1 -1 -1 -1 -1
 NAtoms=      6 NQM=        6 NQMF=       0 NMMI=      0 NMMIF=      0
                NMic=       0 NMicF=      0.
                    Isotopes and Nuclear Properties:
 (Nuclear quadrupole moments (NQMom) in fm**2, nuclear magnetic moments (NMagM)
  in nuclear magnetons)

  Atom         1           2           3           4           5           6
 IAtWgt=          16           1           1          16           1           1
 AtmWgt=  15.9949146   1.0078250   1.0078250  15.9949146   1.0078250   1.0078250
 NucSpn=           0           1           1           0           1           1
 AtZEff=  -0.0000000  -0.0000000  -0.0000000  -0.0000000  -0.0000000  -0.0000000
 NQMom=    0.0000000   0.0000000   0.0000000   0.0000000   0.0000000   0.0000000
 NMagM=    0.0000000   2.7928460   2.7928460   0.0000000   2.7928460   2.7928460
 AtZNuc=   8.0000000   1.0000000   1.0000000   8.0000000   1.0000000   1.0000000
 Leave Link  101 at Sun Dec 10 06:30:10 2023, MaxMem=   536870912 cpu:               0.3 elap:               0.1
 (Enter /usr/site/hpc/x86_64/glibc-2.17/broadwell/gaussian/g16_a.03/pgi-16.5/g16/l202.exe)
                          Input orientation:                          
 ---------------------------------------------------------------------
 Center     Atomic      Atomic             Coordinates (Angstroms)
 Number     Number       Type             X           Y           Z
 ---------------------------------------------------------------------
      1          8           0        0.000000   -0.009833    0.000000
      2          1           0       -0.799571   -0.580965    0.000000
      3          1           0        0.799571   -0.580965    0.000000
      4          8           0       -3.715438   -2.647563    0.000000
      5          1           0       -4.337642   -1.887058    0.000000
      6          1           0       -4.233053   -3.482776    0.000000
 ---------------------------------------------------------------------
                    Distance matrix (angstroms):
                    1          2          3          4          5
     1  O    0.000000
     2  H    0.982601   0.000000
     3  H    0.982601   1.599142   0.000000
     4  O    4.556545   3.573948   4.965494   0.000000
     5  H    4.726427   3.771449   5.300645   0.982601   0.000000
     6  H    5.475406   4.495476   5.809287   0.982602   1.599142
                    6
     6  H    0.000000
 Stoichiometry    H4O2
 Framework group  CS[SG(H4O2)]
 Deg. of freedom     9
 Full point group                 CS      NOp   2
 Largest Abelian subgroup         CS      NOp   2
 Largest concise Abelian subgroup C1      NOp   1
                         Standard orientation:                         
 ---------------------------------------------------------------------
 Center     Atomic      Atomic             Coordinates (Angstroms)
 Number     Number       Type             X           Y           Z
 ---------------------------------------------------------------------
      1          8           0       -0.016625    2.359968    0.000000
      2          1           0       -0.013782    1.377370    0.000000
      3          1           0        0.911942    2.681322    0.000000
      4          8           0       -0.016625   -2.196577    0.000000
      5          1           0       -0.996933   -2.263679    0.000000
      6          1           0        0.364772   -3.102139    0.000000
 ---------------------------------------------------------------------
 Rotational constants (GHZ):         264.0077473           2.6557206           2.6292721
 Leave Link  202 at Sun Dec 10 06:30:10 2023, MaxMem=   536870912 cpu:               0.0 elap:               0.0
 (Enter /usr/site/hpc/x86_64/glibc-2.17/broadwell/gaussian/g16_a.03/pgi-16.5/g16/l301.exe)
 Standard basis: CEP-31G (6D, 10F)
 Ernie: Thresh=  0.10000D-02 Tol=  0.10000D-05 Strict=F.
 There are    20 symmetry adapted cartesian basis functions of A'  symmetry.
 There are     4 symmetry adapted cartesian basis functions of A"  symmetry.
 There are    20 symmetry adapted basis functions of A'  symmetry.
 There are     4 symmetry adapted basis functions of A"  symmetry.
    24 basis functions,    48 primitive gaussians,    24 cartesian basis functions
     8 alpha electrons        8 beta electrons
       nuclear repulsion energy        20.9962509344 Hartrees.
 IExCor=    0 DFT=F Ex=HF Corr=None ExCW=0 ScaHFX=  1.000000
 ScaDFX=  1.000000  1.000000  1.000000  1.000000 ScalE2=  1.000000  1.000000
 IRadAn=      5 IRanWt=     -1 IRanGd=            0 ICorTp=0 IEmpDi=  4
 NAtoms=    6 NActive=    6 NUniq=    6 SFac= 1.00D+00 NAtFMM=   60 NAOKFM=F Big=F
 Integral buffers will be    131072 words long.
 Raffenetti 1 integral format.
 Two-electron integral symmetry is turned on.
 Leave Link  301 at Sun Dec 10 06:30:10 2023, MaxMem=   536870912 cpu:               0.2 elap:               0.1
 (Enter /usr/site/hpc/x86_64/glibc-2.17/broadwell/gaussian/g16_a.03/pgi-16.5/g16/l302.exe)
 NPDir=0 NMtPBC=     1 NCelOv=     1 NCel=       1 NClECP=     1 NCelD=      1
         NCelK=      1 NCelE2=     1 NClLst=     1 CellRange=     0.0.
 One-electron integrals computed using PRISM.
 One-electron integral symmetry used in STVInt
   2 Symmetry operations used in ECPInt.
 ECPInt:  NShTT=      78 NPrTT=     318 LenC2=      79 LenP2D=     270.
 LDataN:  DoStor=T MaxTD1= 2 Len=   12
 NBasis=    24 RedAO= T EigKep=  3.75D-02  NBF=    20     4
 NBsUse=    24 1.00D-06 EigRej= -1.00D+00 NBFU=    20     4
 Leave Link  302 at Sun Dec 10 06:30:10 2023, MaxMem=   536870912 cpu:               0.3 elap:               0.1
 (Enter /usr/site/hpc/x86_64/glibc-2.17/broadwell/gaussian/g16_a.03/pgi-16.5/g16/l303.exe)
 DipDrv:  MaxL=1.
 Leave Link  303 at Sun Dec 10 06:30:10 2023, MaxMem=   536870912 cpu:               0.1 elap:               0.0
 (Enter /usr/site/hpc/x86_64/glibc-2.17/broadwell/gaussian/g16_a.03/pgi-16.5/g16/l401.exe)
 ExpMin= 1.78D-01 ExpMax= 1.92D+01 ExpMxC= 1.92D+01 IAcc=3 IRadAn=         5 AccDes= 0.00D+00
 Harris functional with IExCor=  205 and IRadAn=       5 diagonalized for initial guess.
 HarFok:  IExCor=  205 AccDes= 0.00D+00 IRadAn=         5 IDoV= 1 UseB2=F ITyADJ=14
 ICtDFT=  3500011 ScaDFX=  1.000000  1.000000  1.000000  1.000000
 FoFCou: FMM=F IPFlag=           0 FMFlag=      100000 FMFlg1=           0
         NFxFlg=           0 DoJE=T BraDBF=F KetDBF=T FulRan=T
         wScrn=  0.000000 ICntrl=       500 IOpCl=  0 I1Cent=   200000004 NGrid=           0
         NMat0=    1 NMatS0=      1 NMatT0=    0 NMatD0=    1 NMtDS0=    0 NMtDT0=    0
 Petite list used in FoFCou.
 Harris En= -34.4764552082513    
 JPrj=0 DoOrth=F DoCkMO=F.
 Initial guess orbital symmetries:
       Occupied  (A') (A') (A') (A') (A') (A') (A") (A")
       Virtual   (A') (A') (A') (A') (A") (A") (A') (A') (A') (A')
                 (A') (A') (A') (A') (A') (A')
 The electronic state of the initial guess is 1-A'.
 Leave Link  401 at Sun Dec 10 06:30:10 2023, MaxMem=   536870912 cpu:               0.4 elap:               0.1
 (Enter /usr/site/hpc/x86_64/glibc-2.17/broadwell/gaussian/g16_a.03/pgi-16.5/g16/l502.exe)
 Keep R1 ints in memory in symmetry-blocked form, NReq=852196.
 FoFCou: FMM=F IPFlag=           0 FMFlag=           0 FMFlg1=           0
         NFxFlg=           0 DoJE=F BraDBF=F KetDBF=F FulRan=T
         wScrn=  0.000000 ICntrl=       600 IOpCl=  0 I1Cent=           0 NGrid=           0
         NMat0=    1 NMatS0=    300 NMatT0=    0 NMatD0=    1 NMtDS0=    0 NMtDT0=    0
 Petite list used in FoFCou.
 Closed shell SCF:
 Using DIIS extrapolation, IDIIS=  1040.
 NGot=   536870912 LenX=   536840576 LenY=   536839559
 Requested convergence on RMS density matrix=1.00D-08 within 128 cycles.
 Requested convergence on MAX density matrix=1.00D-06.
 Requested convergence on             energy=1.00D-06.
 No special actions if energy rises.

 Cycle   1  Pass 1  IDiag  1:
 E= -33.5626304863506    
 DIIS: error= 6.81D-02 at cycle   1 NSaved=   1.
 NSaved= 1 IEnMin= 1 EnMin= -33.5626304863506     IErMin= 1 ErrMin= 6.81D-02
 ErrMax= 6.81D-02  0.00D+00 EMaxC= 1.00D-01 BMatC= 1.01D-01 BMatP= 1.01D-01
 IDIUse=3 WtCom= 3.19D-01 WtEn= 6.81D-01
 Coeff-Com:  0.100D+01
 Coeff-En:   0.100D+01
 Coeff:      0.100D+01
 Gap=     0.596 Goal=   None    Shift=    0.000
 GapD=    0.596 DampG=2.000 DampE=0.500 DampFc=1.0000 IDamp=-1.
 RMSDP=1.46D-02 MaxDP=1.17D-01              OVMax= 9.76D-02

 Cycle   2  Pass 1  IDiag  1:
 E= -33.6241777071258     Delta-E=       -0.061547220775 Rises=F Damp=F
 DIIS: error= 3.69D-02 at cycle   2 NSaved=   2.
 NSaved= 2 IEnMin= 2 EnMin= -33.6241777071258     IErMin= 2 ErrMin= 3.69D-02
 ErrMax= 3.69D-02  0.00D+00 EMaxC= 1.00D-01 BMatC= 3.74D-02 BMatP= 1.01D-01
 IDIUse=3 WtCom= 6.31D-01 WtEn= 3.69D-01
 Coeff-Com:  0.376D+00 0.624D+00
 Coeff-En:   0.110D+00 0.890D+00
 Coeff:      0.278D+00 0.722D+00
 Gap=     0.683 Goal=   None    Shift=    0.000
 RMSDP=6.32D-03 MaxDP=5.35D-02 DE=-6.15D-02 OVMax= 3.53D-02

 Cycle   3  Pass 1  IDiag  1:
 E= -33.6541226239406     Delta-E=       -0.029944916815 Rises=F Damp=F
 DIIS: error= 6.98D-03 at cycle   3 NSaved=   3.
 NSaved= 3 IEnMin= 3 EnMin= -33.6541226239406     IErMin= 3 ErrMin= 6.98D-03
 ErrMax= 6.98D-03  0.00D+00 EMaxC= 1.00D-01 BMatC= 8.54D-04 BMatP= 3.74D-02
 IDIUse=3 WtCom= 9.30D-01 WtEn= 6.98D-02
 Coeff-Com: -0.113D+00-0.183D-01 0.113D+01
 Coeff-En:   0.000D+00 0.000D+00 0.100D+01
 Coeff:     -0.105D+00-0.170D-01 0.112D+01
 Gap=     0.676 Goal=   None    Shift=    0.000
 RMSDP=1.02D-03 MaxDP=8.65D-03 DE=-2.99D-02 OVMax= 7.83D-03

 Cycle   4  Pass 1  IDiag  1:
 E= -33.6549685360838     Delta-E=       -0.000845912143 Rises=F Damp=F
 DIIS: error= 7.19D-04 at cycle   4 NSaved=   4.
 NSaved= 4 IEnMin= 4 EnMin= -33.6549685360838     IErMin= 4 ErrMin= 7.19D-04
 ErrMax= 7.19D-04  0.00D+00 EMaxC= 1.00D-01 BMatC= 5.41D-06 BMatP= 8.54D-04
 IDIUse=3 WtCom= 9.93D-01 WtEn= 7.19D-03
 Coeff-Com:  0.439D-01-0.166D-01-0.534D+00 0.151D+01
 Coeff-En:   0.000D+00 0.000D+00 0.000D+00 0.100D+01
 Coeff:      0.435D-01-0.164D-01-0.530D+00 0.150D+01
 Gap=     0.677 Goal=   None    Shift=    0.000
 RMSDP=2.29D-04 MaxDP=1.97D-03 DE=-8.46D-04 OVMax= 9.41D-04

 Cycle   5  Pass 1  IDiag  1:
 E= -33.6549807705255     Delta-E=       -0.000012234442 Rises=F Damp=F
 DIIS: error= 4.71D-05 at cycle   5 NSaved=   5.
 NSaved= 5 IEnMin= 5 EnMin= -33.6549807705255     IErMin= 5 ErrMin= 4.71D-05
 ErrMax= 4.71D-05  0.00D+00 EMaxC= 1.00D-01 BMatC= 3.50D-08 BMatP= 5.41D-06
 IDIUse=1 WtCom= 1.00D+00 WtEn= 0.00D+00
 Coeff-Com: -0.574D-02 0.253D-02 0.715D-01-0.247D+00 0.118D+01
 Coeff:     -0.574D-02 0.253D-02 0.715D-01-0.247D+00 0.118D+01
 Gap=     0.677 Goal=   None    Shift=    0.000
 RMSDP=1.46D-05 MaxDP=1.55D-04 DE=-1.22D-05 OVMax= 1.04D-04

 Cycle   6  Pass 1  IDiag  1:
 E= -33.6549808504597     Delta-E=       -0.000000079934 Rises=F Damp=F
 DIIS: error= 1.03D-05 at cycle   6 NSaved=   6.
 NSaved= 6 IEnMin= 6 EnMin= -33.6549808504597     IErMin= 6 ErrMin= 1.03D-05
 ErrMax= 1.03D-05  0.00D+00 EMaxC= 1.00D-01 BMatC= 3.68D-09 BMatP= 3.50D-08
 IDIUse=1 WtCom= 1.00D+00 WtEn= 0.00D+00
 Coeff-Com: -0.201D-02 0.884D-03 0.250D-01-0.760D-01 0.128D+00 0.925D+00
 Coeff:     -0.201D-02 0.884D-03 0.250D-01-0.760D-01 0.128D+00 0.925D+00
 Gap=     0.677 Goal=   None    Shift=    0.000
 RMSDP=3.19D-06 MaxDP=2.71D-05 DE=-7.99D-08 OVMax= 3.20D-05

 Cycle   7  Pass 1  IDiag  1:
 E= -33.6549808563592     Delta-E=       -0.000000005899 Rises=F Damp=F
 DIIS: error= 4.69D-06 at cycle   7 NSaved=   7.
 NSaved= 7 IEnMin= 7 EnMin= -33.6549808563592     IErMin= 7 ErrMin= 4.69D-06
 ErrMax= 4.69D-06  0.00D+00 EMaxC= 1.00D-01 BMatC= 6.06D-10 BMatP= 3.68D-09
 IDIUse=1 WtCom= 1.00D+00 WtEn= 0.00D+00
 Coeff-Com:  0.863D-03-0.342D-03-0.106D-01 0.367D-01-0.192D+00 0.104D+00
 Coeff-Com:  0.106D+01
 Coeff:      0.863D-03-0.342D-03-0.106D-01 0.367D-01-0.192D+00 0.104D+00
 Coeff:      0.106D+01
 Gap=     0.677 Goal=   None    Shift=    0.000
 RMSDP=1.71D-06 MaxDP=1.31D-05 DE=-5.90D-09 OVMax= 1.70D-05

 Cycle   8  Pass 1  IDiag  1:
 E= -33.6549808575776     Delta-E=       -0.000000001218 Rises=F Damp=F
 DIIS: error= 9.99D-07 at cycle   8 NSaved=   8.
 NSaved= 8 IEnMin= 8 EnMin= -33.6549808575776     IErMin= 8 ErrMin= 9.99D-07
 ErrMax= 9.99D-07  0.00D+00 EMaxC= 1.00D-01 BMatC= 2.23D-11 BMatP= 6.06D-10
 IDIUse=1 WtCom= 1.00D+00 WtEn= 0.00D+00
 Coeff-Com: -0.185D-05-0.209D-04-0.193D-04-0.792D-03 0.293D-01-0.830D-01
 Coeff-Com: -0.226D+00 0.128D+01
 Coeff:     -0.185D-05-0.209D-04-0.193D-04-0.792D-03 0.293D-01-0.830D-01
 Coeff:     -0.226D+00 0.128D+01
 Gap=     0.677 Goal=   None    Shift=    0.000
 RMSDP=5.16D-07 MaxDP=2.75D-06 DE=-1.22D-09 OVMax= 3.88D-06

 Cycle   9  Pass 1  IDiag  1:
 E= -33.6549808576374     Delta-E=       -0.000000000060 Rises=F Damp=F
 DIIS: error= 1.38D-07 at cycle   9 NSaved=   9.
 NSaved= 9 IEnMin= 9 EnMin= -33.6549808576374     IErMin= 9 ErrMin= 1.38D-07
 ErrMax= 1.38D-07  0.00D+00 EMaxC= 1.00D-01 BMatC= 5.73D-13 BMatP= 2.23D-11
 IDIUse=1 WtCom= 1.00D+00 WtEn= 0.00D+00
 Coeff-Com:  0.444D-05 0.528D-05-0.331D-04 0.396D-03-0.112D-01 0.331D-01
 Coeff-Com:  0.839D-01-0.550D+00 0.144D+01
 Coeff:      0.444D-05 0.528D-05-0.331D-04 0.396D-03-0.112D-01 0.331D-01
 Coeff:      0.839D-01-0.550D+00 0.144D+01
 Gap=     0.677 Goal=   None    Shift=    0.000
 RMSDP=1.12D-07 MaxDP=4.53D-07 DE=-5.98D-11 OVMax= 7.39D-07

 Cycle  10  Pass 1  IDiag  1:
 E= -33.6549808576389     Delta-E=       -0.000000000001 Rises=F Damp=F
 DIIS: error= 8.53D-09 at cycle  10 NSaved=  10.
 NSaved=10 IEnMin=10 EnMin= -33.6549808576389     IErMin=10 ErrMin= 8.53D-09
 ErrMax= 8.53D-09  0.00D+00 EMaxC= 1.00D-01 BMatC= 2.98D-15 BMatP= 5.73D-13
 IDIUse=1 WtCom= 1.00D+00 WtEn= 0.00D+00
 Coeff-Com:  0.441D-07-0.154D-05-0.574D-05-0.469D-04 0.242D-02-0.769D-02
 Coeff-Com: -0.188D-01 0.126D+00-0.389D+00 0.129D+01
 Coeff:      0.441D-07-0.154D-05-0.574D-05-0.469D-04 0.242D-02-0.769D-02
 Coeff:     -0.188D-01 0.126D+00-0.389D+00 0.129D+01
 Gap=     0.677 Goal=   None    Shift=    0.000
 RMSDP=1.19D-08 MaxDP=5.64D-08 DE=-1.49D-12 OVMax= 7.07D-08

 Cycle  11  Pass 1  IDiag  1:
 E= -33.6549808576389     Delta-E=       -0.000000000000 Rises=F Damp=F
 DIIS: error= 4.54D-10 at cycle  11 NSaved=  11.
 NSaved=11 IEnMin=11 EnMin= -33.6549808576389     IErMin=11 ErrMin= 4.54D-10
 ErrMax= 4.54D-10  0.00D+00 EMaxC= 1.00D-01 BMatC= 5.64D-18 BMatP= 2.98D-15
 IDIUse=1 WtCom= 1.00D+00 WtEn= 0.00D+00
 Coeff-Com: -0.686D-07 0.257D-06 0.161D-05 0.505D-05-0.376D-03 0.122D-02
 Coeff-Com:  0.295D-02-0.201D-01 0.633D-01-0.234D+00 0.119D+01
 Coeff:     -0.686D-07 0.257D-06 0.161D-05 0.505D-05-0.376D-03 0.122D-02
 Coeff:      0.295D-02-0.201D-01 0.633D-01-0.234D+00 0.119D+01
 Gap=     0.677 Goal=   None    Shift=    0.000
 RMSDP=3.26D-10 MaxDP=1.89D-09 DE=-3.55D-14 OVMax= 1.65D-09

 SCF Done:  E(RHF) =  -33.6549808576     A.U. after   11 cycles
            NFock= 11  Conv=0.33D-09     -V/T= 2.2568
 KE= 2.677790570405D+01 PE=-1.235980870584D+02 EE= 4.216894956224D+01
 Leave Link  502 at Sun Dec 10 06:30:10 2023, MaxMem=   536870912 cpu:               0.3 elap:               0.1
 (Enter /usr/site/hpc/x86_64/glibc-2.17/broadwell/gaussian/g16_a.03/pgi-16.5/g16/l801.exe)
 Windowed orbitals will be sorted by symmetry type.
 Range of M.O.s used for correlation:     1    24
 NBasis=    24 NAE=     8 NBE=     8 NFC=     0 NFV=     0
 NROrb=     24 NOA=     8 NOB=     8 NVA=    16 NVB=    16
 Leave Link  801 at Sun Dec 10 06:30:10 2023, MaxMem=   536870912 cpu:               0.1 elap:               0.0
 (Enter /usr/site/hpc/x86_64/glibc-2.17/broadwell/gaussian/g16_a.03/pgi-16.5/g16/l804.exe)
 Closed-shell transformation, MDV=   536870912 ITran=4 ISComp=2.
 Unit  1 TFree=       1025975 TCopy=        210600.
 Semi-Direct transformation.
 ModeAB=           2 MOrb=             8 LenV=     536742111
 LASXX=        22470 LTotXX=       22470 LenRXX=       22470
 LTotAB=       26208 MaxLAS=       57600 LenRXY=       57600
 NonZer=       61056 LenScr=      524288 LnRSAI=           0
 LnScr1=           0 LExtra=           0 Total=       604358
 MaxDsk=          -1 SrtSym=           F ITran=            4
 DoSDTr:  NPSUse=  4
 JobTyp=0 Pass  1:  I=   1 to   8.
 (rs|ai) integrals will be sorted in core.
 Complete sort for first half transformation.
 First half transformation complete.
 Complete sort for second half transformation.
 Second half transformation complete.
 Spin components of T(2) and E(2):
     alpha-alpha T2 =       0.9066163464D-02 E2=     -0.2590854721D-01
     alpha-beta  T2 =       0.5980763142D-01 E2=     -0.1764714026D+00
     beta-beta   T2 =       0.9066163464D-02 E2=     -0.2590854721D-01
 ANorm=    0.1038238873D+01
 E2 =    -0.2282884970D+00 EUMP2 =    -0.33883269354671D+02
 Leave Link  804 at Sun Dec 10 06:30:10 2023, MaxMem=   536870912 cpu:               0.2 elap:               0.1
 (Enter /usr/site/hpc/x86_64/glibc-2.17/broadwell/gaussian/g16_a.03/pgi-16.5/g16/l913.exe)
 CIDS:  MDV=   536870912.
 IFCWin=0 IBDFC=1 NFBD=     0     0 NFCmp=     0     0 NFFFC=     0     0
 Using DD3R+UMP44R for 1st iteration.
 Using DD4RQ for 2nd and later iterations.
 Keep R2 and R3 ints in memory in symmetry-blocked form, NReq=864804.
 FoFCou: FMM=F IPFlag=           0 FMFlag=           0 FMFlg1=           0
         NFxFlg=           0 DoJE=F BraDBF=F KetDBF=F FulRan=T
         wScrn=  0.000000 ICntrl=       600 IOpCl=  0 I1Cent=           0 NGrid=           0
         NMat0=    1 NMatS0=    300 NMatT0=    0 NMatD0=    1 NMtDS0=    0 NMtDT0=    0
 Petite list used in FoFCou.
 CIDS: In Core Option IDoMem=           1.
 CCSD(T)
 =======
 Iterations=  50 Convergence= 0.100D-06
 Produce multiple copies of IABC intergrals
 Iteration Nr.   1
 **********************
 DD1Dir will call FoFMem   1 times, MxPair=        72
 NAB=    36 NAA=     0 NBB=     0.
 MP4(R+Q)= -0.75345394D-03
 Maximum subspace dimension=  5
 A-vector RMS=  5.7602562D-03 Max=  1.3191939D-02 conv= 1.00D-05.
 RLE energy=       -0.2343003819
 E3=       -0.53800847D-02        EUMP3=      -0.33888649439D+02
 E4(DQ)=   -0.58997896D-02        UMP4(DQ)=   -0.33894549229D+02
 E4(SDQ)=  -0.79314481D-02        UMP4(SDQ)=  -0.33896580887D+02
 VARIATIONAL ENERGIES WITH THE FIRST-ORDER WAVEFUNCTION:
 DE(Corr)= -0.23414647     E(Corr)=     -33.889127324    
 NORM(A)=   0.10416475D+01
 Iteration Nr.   2
 **********************
 DD1Dir will call FoFMem   1 times, MxPair=        72
 NAB=    36 NAA=     0 NBB=     0.
 A-vector RMS=  9.7945116D-04 Max=  2.6329482D-03 conv= 1.00D-05.
 RLE energy=       -0.2420483213
 DE(Corr)= -0.24011546     E(CORR)=     -33.895096314     Delta=-5.97D-03
 NORM(A)=   0.10454175D+01
 Iteration Nr.   3
 **********************
 DD1Dir will call FoFMem   1 times, MxPair=        72
 NAB=    36 NAA=     0 NBB=     0.
 A-vector RMS=  3.7935061D-04 Max=  1.0046445D-03 conv= 1.00D-05.
 RLE energy=       -0.2425980187
 DE(Corr)= -0.24215170     E(CORR)=     -33.897132562     Delta=-2.04D-03
 NORM(A)=   0.10459736D+01
 Iteration Nr.   4
 **********************
 DD1Dir will call FoFMem   1 times, MxPair=        72
 NAB=    36 NAA=     0 NBB=     0.
 A-vector RMS=  9.2896556D-05 Max=  2.5493172D-04 conv= 1.00D-05.
 RLE energy=       -0.2426446132
 DE(Corr)= -0.24260902     E(CORR)=     -33.897589877     Delta=-4.57D-04
 NORM(A)=   0.10460457D+01
 Iteration Nr.   5
 **********************
 DD1Dir will call FoFMem   1 times, MxPair=        72
 NAB=    36 NAA=     0 NBB=     0.
 A-vector RMS=  4.0825533D-05 Max=  1.3019686D-04 conv= 1.00D-05.
 RLE energy=       -0.2426431453
 DE(Corr)= -0.24264097     E(CORR)=     -33.897621830     Delta=-3.20D-05
 NORM(A)=   0.10460556D+01
 Iteration Nr.   6
 **********************
 DD1Dir will call FoFMem   1 times, MxPair=        72
 NAB=    36 NAA=     0 NBB=     0.
 A-vector RMS=  1.2605204D-05 Max=  4.5414638D-05 conv= 1.00D-05.
 RLE energy=       -0.2426415708
 DE(Corr)= -0.24264319     E(CORR)=     -33.897624050     Delta=-2.22D-06
 NORM(A)=   0.10460586D+01
 Iteration Nr.   7
 **********************
 DD1Dir will call FoFMem   1 times, MxPair=        72
 NAB=    36 NAA=     0 NBB=     0.
 A-vector RMS=  3.9961689D-06 Max=  1.0435772D-05 conv= 1.00D-05.
 RLE energy=       -0.2426427580
 DE(Corr)= -0.24264264     E(CORR)=     -33.897623493     Delta= 5.57D-07
 NORM(A)=   0.10460600D+01
 Iteration Nr.   8
 **********************
 DD1Dir will call FoFMem   1 times, MxPair=        72
 NAB=    36 NAA=     0 NBB=     0.
 A-vector RMS=  1.2121947D-06 Max=  4.1138873D-06 conv= 1.00D-05.
 RLE energy=       -0.2426423882
 DE(Corr)= -0.24264251     E(CORR)=     -33.897623371     Delta= 1.22D-07
 NORM(A)=   0.10460603D+01
 Iteration Nr.   9
 **********************
 DD1Dir will call FoFMem   1 times, MxPair=        72
 NAB=    36 NAA=     0 NBB=     0.
 A-vector RMS=  2.5324948D-07 Max=  1.0278993D-06 conv= 1.00D-05.
 RLE energy=       -0.2426425480
 DE(Corr)= -0.24264256     E(CORR)=     -33.897623421     Delta=-4.97D-08
 NORM(A)=   0.10460604D+01
 CI/CC converged in    9 iterations to DelEn=-4.97D-08 Conv= 1.00D-07 ErrA1= 2.53D-07 Conv= 1.00D-05
 Wavefunction amplitudes converged. E(Corr)=     -33.897623421    
 Largest amplitude= 5.85D-02
 IPart=  3 IA=    2   12.50% done.
 IPart=  4 IA=    3   24.17% done.
 IPart=  2 IA=    4   35.00% done.
 IPart=  2 IA=    5   45.00% done.
 IPart=  4 IA=    6   54.17% done.
 IPart=  3 IA=    7   62.50% done.
 IPart=  1 IA=    8   70.00% done.
 IPart=  3 IA=   10   82.50% done.
 IPart=  2 IA=   12   91.67% done.
 Time for triples=        0.24 seconds.
 T4(CCSD)= -0.30903356D-02
 T5(CCSD)=  0.52725851D-03
 CCSD(T)= -0.33900186498D+02
 Discarding MO integrals.
 Leave Link  913 at Sun Dec 10 06:30:10 2023, MaxMem=   536870912 cpu:               0.9 elap:               0.2
 (Enter /usr/site/hpc/x86_64/glibc-2.17/broadwell/gaussian/g16_a.03/pgi-16.5/g16/l601.exe)
 Copying SCF densities to generalized density rwf, IOpCl= 0 IROHF=0.

 **********************************************************************

            Population analysis using the SCF density.

 **********************************************************************

 Orbital symmetries:
       Occupied  (A') (A') (A') (A') (A') (A') (A") (A")
       Virtual   (A') (A') (A') (A') (A") (A") (A') (A') (A') (A')
                 (A') (A') (A') (A') (A') (A')
 The electronic state is 1-A'.
 Alpha  occ. eigenvalues --   -1.36623  -1.34335  -0.72273  -0.69978  -0.56538
 Alpha  occ. eigenvalues --   -0.54170  -0.51239  -0.48959
 Alpha virt. eigenvalues --    0.18781   0.22014   0.29529   0.32060   0.79325
 Alpha virt. eigenvalues --    0.81532   0.82321   0.84354   0.85544   0.87678
 Alpha virt. eigenvalues --    1.16358   1.18981   1.20787   1.25093   2.56356
 Alpha virt. eigenvalues --    2.60074
          Condensed to atoms (all electrons):
               1          2          3          4          5          6
     1  O    6.223827   0.266382   0.263538  -0.000054   0.000004   0.000001
     2  H    0.266382   0.372139  -0.023006   0.000519  -0.000024  -0.000005
     3  H    0.263538  -0.023006   0.390253  -0.000001   0.000000   0.000000
     4  O   -0.000054   0.000519  -0.000001   6.220928   0.264708   0.266221
     5  H    0.000004  -0.000024   0.000000   0.264708   0.382560  -0.023171
     6  H    0.000001  -0.000005   0.000000   0.266221  -0.023171   0.380071
 Mulliken charges:
               1
     1  O   -0.753697
     2  H    0.383995
     3  H    0.369216
     4  O   -0.752321
     5  H    0.375924
     6  H    0.376884
 Sum of Mulliken charges =   0.00000
 Mulliken charges with hydrogens summed into heavy atoms:
               1
     1  O   -0.000487
     4  O    0.000487
 Electronic spatial extent (au):  <R**2>=            338.7221
 Charge=              0.0000 electrons
 Dipole moment (field-independent basis, Debye):
    X=              0.7578    Y=             -3.8839    Z=              0.0000  Tot=              3.9572
 Quadrupole moment (field-independent basis, Debye-Ang):
   XX=             -9.7678   YY=             -7.3673   ZZ=            -14.9947
   XY=              8.2617   XZ=              0.0000   YZ=              0.0000
 Traceless Quadrupole moment (field-independent basis, Debye-Ang):
   XX=              0.9422   YY=              3.3427   ZZ=             -4.2848
   XY=              8.2617   XZ=              0.0000   YZ=              0.0000
 Octapole moment (field-independent basis, Debye-Ang**2):
  XXX=             -0.0326  YYY=            -58.6199  ZZZ=              0.0000  XYY=             13.7821
  XXY=             -2.1369  XXZ=              0.0000  XZZ=              0.1418  YZZ=             -0.7505
  YYZ=              0.0000  XYZ=              0.0000
 Hexadecapole moment (field-independent basis, Debye-Ang**3):
 XXXX=            -11.3753 YYYY=           -312.2024 ZZZZ=            -12.2328 XXXY=              4.2848
 XXXZ=              0.0000 YYYX=             40.2016 YYYZ=              0.0000 ZZZX=              0.0000
 ZZZY=              0.0000 XXYY=            -52.2906 XXZZ=             -4.5326 YYZZ=            -82.8286
 XXYZ=              0.0000 YYXZ=              0.0000 ZZXY=             -1.0851
 N-N= 2.099625093444D+01 E-N=-1.235980870603D+02  KE= 2.677790570405D+01
 Symmetry A'   KE= 1.790134538502D+01
 Symmetry A"   KE= 8.876560319028D+00
 Leave Link  601 at Sun Dec 10 06:30:10 2023, MaxMem=   536870912 cpu:               0.1 elap:               0.0
 (Enter /usr/site/hpc/x86_64/glibc-2.17/broadwell/gaussian/g16_a.03/pgi-16.5/g16/l9999.exe)
 1\1\GINC-N033\SP\RCCSD(T)-FC\CEP-31G\H4O2\ROOT\10-Dec-2023\0\\#p CCSD(
 T)/CEP-31G\\H2O_H2O_3173\\0,1\O,0,0.,-0.009833,0.\H,0,-0.799571,-0.580
 965,0.\H,0,0.799571,-0.580965,0.\O,0,-3.715438,-2.647563,0.\H,0,-4.337
 642,-1.887058,0.\H,0,-4.233053,-3.482776,0.\\Version=ES64L-G16RevA.03\
 State=1-A'\HF=-33.6549809\MP2=-33.8832694\MP3=-33.8886494\MP4D=-33.893
 7958\MP4DQ=-33.8945492\MP4SDQ=-33.8965809\CCSD=-33.8976234\CCSD(T)=-33
 .9001865\RMSD=3.257e-10\PG=CS [SG(H4O2)]\\@


 THE ONLY EXISTING THINGS ARE ATOMS AND EMPTY SPACE;
 ALL ELSE IS MERE OPINION. -- DEMOCRITUS OF ABDERA D. 370 B.C.
 EXPERIMENTS ARE THE ONLY MEANS OF KNOWLEDGE AT OUR DISPOSAL
 THE REST IS POETRY, IMAGINATION. -- MAX PLANCK
 Job cpu time:       0 days  0 hours  0 minutes  3.2 seconds.
 Elapsed time:       0 days  0 hours  0 minutes  1.0 seconds.
 File lengths (MBytes):  RWF=     72 Int=      0 D2E=      0 Chk=      8 Scr=      8
 Normal termination of Gaussian 16 at Sun Dec 10 06:30:10 2023.
