 Entering Gaussian System, Link 0=g16
 Input=H2O_H2O_258.com
 Output=H2O_H2O_258.log
 Initial command:
 /usr/site/hpc/x86_64/glibc-2.17/broadwell/gaussian/g16_a.03/pgi-16.5/g16/l1.exe "/gpfs/gpfs1/scratch/c7441090/OH Coord/Gau-1621615.inp" -scrdir="/gpfs/gpfs1/scratch/c7441090/OH Coord/"
 Entering Link 1 = /usr/site/hpc/x86_64/glibc-2.17/broadwell/gaussian/g16_a.03/pgi-16.5/g16/l1.exe PID=   1621616.
  
 Copyright (c) 1988,1990,1992,1993,1995,1998,2003,2009,2016,
            Gaussian, Inc.  All Rights Reserved.
  
 This is part of the Gaussian(R) 16 program.  It is based on
 the Gaussian(R) 09 system (copyright 2009, Gaussian, Inc.),
 the Gaussian(R) 03 system (copyright 2003, Gaussian, Inc.),
 the Gaussian(R) 98 system (copyright 1998, Gaussian, Inc.),
 the Gaussian(R) 94 system (copyright 1995, Gaussian, Inc.),
 the Gaussian 92(TM) system (copyright 1992, Gaussian, Inc.),
 the Gaussian 90(TM) system (copyright 1990, Gaussian, Inc.),
 the Gaussian 88(TM) system (copyright 1988, Gaussian, Inc.),
 the Gaussian 86(TM) system (copyright 1986, Carnegie Mellon
 University), and the Gaussian 82(TM) system (copyright 1983,
 Carnegie Mellon University). Gaussian is a federally registered
 trademark of Gaussian, Inc.
  
 This software contains proprietary and confidential information,
 including trade secrets, belonging to Gaussian, Inc.
  
 This software is provided under written license and may be
 used, copied, transmitted, or stored only in accord with that
 written license.
  
 The following legend is applicable only to US Government
 contracts under FAR:
  
                    RESTRICTED RIGHTS LEGEND
  
 Use, reproduction and disclosure by the US Government is
 subject to restrictions as set forth in subparagraphs (a)
 and (c) of the Commercial Computer Software - Restricted
 Rights clause in FAR 52.227-19.
  
 Gaussian, Inc.
 340 Quinnipiac St., Bldg. 40, Wallingford CT 06492
  
  
 ---------------------------------------------------------------
 Warning -- This program may not be used in any manner that
 competes with the business of Gaussian, Inc. or will provide
 assistance to any competitor of Gaussian, Inc.  The licensee
 of this program is prohibited from giving any competitor of
 Gaussian, Inc. access to this program.  By using this program,
 the user acknowledges that Gaussian, Inc. is engaged in the
 business of creating and licensing software in the field of
 computational chemistry and represents and warrants to the
 licensee that it is not a competitor of Gaussian, Inc. and that
 it will not use this program in any manner prohibited above.
 ---------------------------------------------------------------
  

 Cite this work as:
 Gaussian 16, Revision A.03,
 M. J. Frisch, G. W. Trucks, H. B. Schlegel, G. E. Scuseria, 
 M. A. Robb, J. R. Cheeseman, G. Scalmani, V. Barone, 
 G. A. Petersson, H. Nakatsuji, X. Li, M. Caricato, A. V. Marenich, 
 J. Bloino, B. G. Janesko, R. Gomperts, B. Mennucci, H. P. Hratchian, 
 J. V. Ortiz, A. F. Izmaylov, J. L. Sonnenberg, D. Williams-Young, 
 F. Ding, F. Lipparini, F. Egidi, J. Goings, B. Peng, A. Petrone, 
 T. Henderson, D. Ranasinghe, V. G. Zakrzewski, J. Gao, N. Rega, 
 G. Zheng, W. Liang, M. Hada, M. Ehara, K. Toyota, R. Fukuda, 
 J. Hasegawa, M. Ishida, T. Nakajima, Y. Honda, O. Kitao, H. Nakai, 
 T. Vreven, K. Throssell, J. A. Montgomery, Jr., J. E. Peralta, 
 F. Ogliaro, M. J. Bearpark, J. J. Heyd, E. N. Brothers, K. N. Kudin, 
 V. N. Staroverov, T. A. Keith, R. Kobayashi, J. Normand, 
 K. Raghavachari, A. P. Rendell, J. C. Burant, S. S. Iyengar, 
 J. Tomasi, M. Cossi, J. M. Millam, M. Klene, C. Adamo, R. Cammi, 
 J. W. Ochterski, R. L. Martin, K. Morokuma, O. Farkas, 
 J. B. Foresman, and D. J. Fox, Gaussian, Inc., Wallingford CT, 2016.
 
 ******************************************
 Gaussian 16:  ES64L-G16RevA.03 25-Dec-2016
                10-Dec-2023 
 ******************************************
 %NProcShared=4
 Will use up to    4 processors via shared memory.
 %Mem=4GB
 %Chk=H2O_H2O_258.chk
 ------------------
 #p CCSD(T)/CEP-31G
 ------------------
 1/38=1,172=1/1;
 2/12=2,17=6,18=5,40=1/2;
 3/5=9,6=1,11=9,25=1,30=1/1,2,3;
 4//1;
 5/5=2,38=5/2;
 8/6=4,9=120000,10=1/1,4;
 9/5=7,14=2/13;
 6/7=2,8=2,9=2,10=2/1;
 99/5=1,9=1/99;
 Leave Link    1 at Sun Dec 10 06:23:07 2023, MaxMem=   536870912 cpu:               0.2 elap:               0.1
 (Enter /usr/site/hpc/x86_64/glibc-2.17/broadwell/gaussian/g16_a.03/pgi-16.5/g16/l101.exe)
 -----------
 H2O_H2O_258
 -----------
 Symbolic Z-matrix:
 Charge =  0 Multiplicity = 1
 O                     0.       -0.00983   0. 
 H                    -0.79957  -0.58097   0. 
 H                     0.79957  -0.58097   0. 
 O                    -1.82799  -1.31073   0. 
 H                    -2.80601  -1.40556   0. 
 H                    -1.42111  -2.20513   0. 
 
 ITRead=  0  0  0  0  0  0
 MicOpt= -1 -1 -1 -1 -1 -1
 NAtoms=      6 NQM=        6 NQMF=       0 NMMI=      0 NMMIF=      0
                NMic=       0 NMicF=      0.
                    Isotopes and Nuclear Properties:
 (Nuclear quadrupole moments (NQMom) in fm**2, nuclear magnetic moments (NMagM)
  in nuclear magnetons)

  Atom         1           2           3           4           5           6
 IAtWgt=          16           1           1          16           1           1
 AtmWgt=  15.9949146   1.0078250   1.0078250  15.9949146   1.0078250   1.0078250
 NucSpn=           0           1           1           0           1           1
 AtZEff=  -0.0000000  -0.0000000  -0.0000000  -0.0000000  -0.0000000  -0.0000000
 NQMom=    0.0000000   0.0000000   0.0000000   0.0000000   0.0000000   0.0000000
 NMagM=    0.0000000   2.7928460   2.7928460   0.0000000   2.7928460   2.7928460
 AtZNuc=   8.0000000   1.0000000   1.0000000   8.0000000   1.0000000   1.0000000
 Leave Link  101 at Sun Dec 10 06:23:07 2023, MaxMem=   536870912 cpu:               0.7 elap:               0.2
 (Enter /usr/site/hpc/x86_64/glibc-2.17/broadwell/gaussian/g16_a.03/pgi-16.5/g16/l202.exe)
                          Input orientation:                          
 ---------------------------------------------------------------------
 Center     Atomic      Atomic             Coordinates (Angstroms)
 Number     Number       Type             X           Y           Z
 ---------------------------------------------------------------------
      1          8           0        0.000000   -0.009833    0.000000
      2          1           0       -0.799571   -0.580965    0.000000
      3          1           0        0.799571   -0.580965    0.000000
      4          8           0       -1.827990   -1.310733    0.000000
      5          1           0       -2.806006   -1.405562    0.000000
      6          1           0       -1.421107   -2.205134    0.000000
 ---------------------------------------------------------------------
                    Distance matrix (angstroms):
                    1          2          3          4          5
     1  O    0.000000
     2  H    0.982601   0.000000
     3  H    0.982601   1.599142   0.000000
     4  O    2.243633   1.261034   2.727020   0.000000
     5  H    3.133964   2.169272   3.698668   0.982603   0.000000
     6  H    2.615127   1.739032   2.751243   0.982602   1.599144
                    6
     6  H    0.000000
 Stoichiometry    H4O2
 Framework group  CS[SG(H4O2)]
 Deg. of freedom     9
 Full point group                 CS      NOp   2
 Largest Abelian subgroup         CS      NOp   2
 Largest concise Abelian subgroup C1      NOp   1
                         Standard orientation:                         
 ---------------------------------------------------------------------
 Center     Atomic      Atomic             Coordinates (Angstroms)
 Number     Number       Type             X           Y           Z
 ---------------------------------------------------------------------
      1          8           0        0.070274    1.206877    0.000000
      2          1           0        0.068552    0.224277    0.000000
      3          1           0       -0.858660    1.527171   -0.000000
      4          8           0        0.070274   -1.036756    0.000000
      5          1           0        0.560084   -1.888574    0.000000
      6          1           0       -0.894354   -1.223840   -0.000000
 ---------------------------------------------------------------------
 Rotational constants (GHZ):         257.0215285          10.5349211          10.1201131
 Leave Link  202 at Sun Dec 10 06:23:07 2023, MaxMem=   536870912 cpu:               0.1 elap:               0.0
 (Enter /usr/site/hpc/x86_64/glibc-2.17/broadwell/gaussian/g16_a.03/pgi-16.5/g16/l301.exe)
 Standard basis: CEP-31G (6D, 10F)
 Ernie: Thresh=  0.10000D-02 Tol=  0.10000D-05 Strict=F.
 There are    20 symmetry adapted cartesian basis functions of A'  symmetry.
 There are     4 symmetry adapted cartesian basis functions of A"  symmetry.
 There are    20 symmetry adapted basis functions of A'  symmetry.
 There are     4 symmetry adapted basis functions of A"  symmetry.
    24 basis functions,    48 primitive gaussians,    24 cartesian basis functions
     8 alpha electrons        8 beta electrons
       nuclear repulsion energy        28.8708164297 Hartrees.
 IExCor=    0 DFT=F Ex=HF Corr=None ExCW=0 ScaHFX=  1.000000
 ScaDFX=  1.000000  1.000000  1.000000  1.000000 ScalE2=  1.000000  1.000000
 IRadAn=      5 IRanWt=     -1 IRanGd=            0 ICorTp=0 IEmpDi=  4
 NAtoms=    6 NActive=    6 NUniq=    6 SFac= 1.00D+00 NAtFMM=   60 NAOKFM=F Big=F
 Integral buffers will be    131072 words long.
 Raffenetti 1 integral format.
 Two-electron integral symmetry is turned on.
 Leave Link  301 at Sun Dec 10 06:23:07 2023, MaxMem=   536870912 cpu:               0.2 elap:               0.0
 (Enter /usr/site/hpc/x86_64/glibc-2.17/broadwell/gaussian/g16_a.03/pgi-16.5/g16/l302.exe)
 NPDir=0 NMtPBC=     1 NCelOv=     1 NCel=       1 NClECP=     1 NCelD=      1
         NCelK=      1 NCelE2=     1 NClLst=     1 CellRange=     0.0.
 One-electron integrals computed using PRISM.
 One-electron integral symmetry used in STVInt
   2 Symmetry operations used in ECPInt.
 ECPInt:  NShTT=      78 NPrTT=     318 LenC2=      79 LenP2D=     300.
 LDataN:  DoStor=T MaxTD1= 2 Len=   12
 NBasis=    24 RedAO= T EigKep=  4.54D-03  NBF=    20     4
 NBsUse=    24 1.00D-06 EigRej= -1.00D+00 NBFU=    20     4
 Leave Link  302 at Sun Dec 10 06:23:07 2023, MaxMem=   536870912 cpu:               0.3 elap:               0.1
 (Enter /usr/site/hpc/x86_64/glibc-2.17/broadwell/gaussian/g16_a.03/pgi-16.5/g16/l303.exe)
 DipDrv:  MaxL=1.
 Leave Link  303 at Sun Dec 10 06:23:07 2023, MaxMem=   536870912 cpu:               0.1 elap:               0.0
 (Enter /usr/site/hpc/x86_64/glibc-2.17/broadwell/gaussian/g16_a.03/pgi-16.5/g16/l401.exe)
 ExpMin= 1.78D-01 ExpMax= 1.92D+01 ExpMxC= 1.92D+01 IAcc=3 IRadAn=         5 AccDes= 0.00D+00
 Harris functional with IExCor=  205 and IRadAn=       5 diagonalized for initial guess.
 HarFok:  IExCor=  205 AccDes= 0.00D+00 IRadAn=         5 IDoV= 1 UseB2=F ITyADJ=14
 ICtDFT=  3500011 ScaDFX=  1.000000  1.000000  1.000000  1.000000
 FoFCou: FMM=F IPFlag=           0 FMFlag=      100000 FMFlg1=           0
         NFxFlg=           0 DoJE=T BraDBF=F KetDBF=T FulRan=T
         wScrn=  0.000000 ICntrl=       500 IOpCl=  0 I1Cent=   200000004 NGrid=           0
         NMat0=    1 NMatS0=      1 NMatT0=    0 NMatD0=    1 NMtDS0=    0 NMtDT0=    0
 Petite list used in FoFCou.
 Harris En= -34.4773002682872    
 JPrj=0 DoOrth=F DoCkMO=F.
 Initial guess orbital symmetries:
       Occupied  (A') (A') (A') (A') (A') (A') (A") (A")
       Virtual   (A') (A') (A') (A') (A") (A') (A') (A") (A') (A')
                 (A') (A') (A') (A') (A') (A')
 The electronic state of the initial guess is 1-A'.
 Leave Link  401 at Sun Dec 10 06:23:07 2023, MaxMem=   536870912 cpu:               0.4 elap:               0.1
 (Enter /usr/site/hpc/x86_64/glibc-2.17/broadwell/gaussian/g16_a.03/pgi-16.5/g16/l502.exe)
 Keep R1 ints in memory in symmetry-blocked form, NReq=852802.
 FoFCou: FMM=F IPFlag=           0 FMFlag=           0 FMFlg1=           0
         NFxFlg=           0 DoJE=F BraDBF=F KetDBF=F FulRan=T
         wScrn=  0.000000 ICntrl=       600 IOpCl=  0 I1Cent=           0 NGrid=           0
         NMat0=    1 NMatS0=    300 NMatT0=    0 NMatD0=    1 NMtDS0=    0 NMtDT0=    0
 Petite list used in FoFCou.
 Closed shell SCF:
 Using DIIS extrapolation, IDIIS=  1040.
 NGot=   536870912 LenX=   536840576 LenY=   536839559
 Requested convergence on RMS density matrix=1.00D-08 within 128 cycles.
 Requested convergence on MAX density matrix=1.00D-06.
 Requested convergence on             energy=1.00D-06.
 No special actions if energy rises.

 Cycle   1  Pass 1  IDiag  1:
 E= -33.5273687666960    
 DIIS: error= 6.41D-02 at cycle   1 NSaved=   1.
 NSaved= 1 IEnMin= 1 EnMin= -33.5273687666960     IErMin= 1 ErrMin= 6.41D-02
 ErrMax= 6.41D-02  0.00D+00 EMaxC= 1.00D-01 BMatC= 1.04D-01 BMatP= 1.04D-01
 IDIUse=3 WtCom= 3.59D-01 WtEn= 6.41D-01
 Coeff-Com:  0.100D+01
 Coeff-En:   0.100D+01
 Coeff:      0.100D+01
 Gap=     0.489 Goal=   None    Shift=    0.000
 GapD=    0.489 DampG=2.000 DampE=0.500 DampFc=1.0000 IDamp=-1.
 RMSDP=2.23D-02 MaxDP=1.46D-01              OVMax= 1.22D-01

 Cycle   2  Pass 1  IDiag  1:
 E= -33.5967165970624     Delta-E=       -0.069347830366 Rises=F Damp=F
 DIIS: error= 3.49D-02 at cycle   2 NSaved=   2.
 NSaved= 2 IEnMin= 2 EnMin= -33.5967165970624     IErMin= 2 ErrMin= 3.49D-02
 ErrMax= 3.49D-02  0.00D+00 EMaxC= 1.00D-01 BMatC= 3.64D-02 BMatP= 1.04D-01
 IDIUse=3 WtCom= 6.51D-01 WtEn= 3.49D-01
 Coeff-Com:  0.367D+00 0.633D+00
 Coeff-En:   0.450D-01 0.955D+00
 Coeff:      0.255D+00 0.745D+00
 Gap=     0.601 Goal=   None    Shift=    0.000
 RMSDP=7.89D-03 MaxDP=6.56D-02 DE=-6.93D-02 OVMax= 4.31D-02

 Cycle   3  Pass 1  IDiag  1:
 E= -33.6255591160043     Delta-E=       -0.028842518942 Rises=F Damp=F
 DIIS: error= 7.58D-03 at cycle   3 NSaved=   3.
 NSaved= 3 IEnMin= 3 EnMin= -33.6255591160043     IErMin= 3 ErrMin= 7.58D-03
 ErrMax= 7.58D-03  0.00D+00 EMaxC= 1.00D-01 BMatC= 1.17D-03 BMatP= 3.64D-02
 IDIUse=3 WtCom= 9.24D-01 WtEn= 7.58D-02
 Coeff-Com: -0.874D-01 0.363D-01 0.105D+01
 Coeff-En:   0.000D+00 0.000D+00 0.100D+01
 Coeff:     -0.808D-01 0.336D-01 0.105D+01
 Gap=     0.587 Goal=   None    Shift=    0.000
 RMSDP=1.85D-03 MaxDP=1.28D-02 DE=-2.88D-02 OVMax= 1.05D-02

 Cycle   4  Pass 1  IDiag  1:
 E= -33.6266732872858     Delta-E=       -0.001114171281 Rises=F Damp=F
 DIIS: error= 8.30D-04 at cycle   4 NSaved=   4.
 NSaved= 4 IEnMin= 4 EnMin= -33.6266732872858     IErMin= 4 ErrMin= 8.30D-04
 ErrMax= 8.30D-04  0.00D+00 EMaxC= 1.00D-01 BMatC= 1.60D-05 BMatP= 1.17D-03
 IDIUse=3 WtCom= 9.92D-01 WtEn= 8.30D-03
 Coeff-Com: -0.272D-01-0.209D-01 0.180D+00 0.868D+00
 Coeff-En:   0.000D+00 0.000D+00 0.000D+00 0.100D+01
 Coeff:     -0.270D-01-0.207D-01 0.179D+00 0.869D+00
 Gap=     0.591 Goal=   None    Shift=    0.000
 RMSDP=2.84D-04 MaxDP=2.02D-03 DE=-1.11D-03 OVMax= 1.22D-03

 Cycle   5  Pass 1  IDiag  1:
 E= -33.6266938778203     Delta-E=       -0.000020590535 Rises=F Damp=F
 DIIS: error= 2.39D-04 at cycle   5 NSaved=   5.
 NSaved= 5 IEnMin= 5 EnMin= -33.6266938778203     IErMin= 5 ErrMin= 2.39D-04
 ErrMax= 2.39D-04  0.00D+00 EMaxC= 1.00D-01 BMatC= 1.75D-06 BMatP= 1.60D-05
 IDIUse=3 WtCom= 9.98D-01 WtEn= 2.39D-03
 Coeff-Com:  0.126D-01-0.605D-02-0.154D+00 0.777D-01 0.107D+01
 Coeff-En:   0.000D+00 0.000D+00 0.000D+00 0.000D+00 0.100D+01
 Coeff:      0.125D-01-0.603D-02-0.154D+00 0.776D-01 0.107D+01
 Gap=     0.591 Goal=   None    Shift=    0.000
 RMSDP=1.27D-04 MaxDP=6.99D-04 DE=-2.06D-05 OVMax= 5.70D-04

 Cycle   6  Pass 1  IDiag  1:
 E= -33.6266966434769     Delta-E=       -0.000002765657 Rises=F Damp=F
 DIIS: error= 4.05D-05 at cycle   6 NSaved=   6.
 NSaved= 6 IEnMin= 6 EnMin= -33.6266966434769     IErMin= 6 ErrMin= 4.05D-05
 ErrMax= 4.05D-05  0.00D+00 EMaxC= 1.00D-01 BMatC= 2.66D-08 BMatP= 1.75D-06
 IDIUse=1 WtCom= 1.00D+00 WtEn= 0.00D+00
 Coeff-Com: -0.307D-02 0.208D-02 0.411D-01-0.522D-01-0.305D+00 0.132D+01
 Coeff:     -0.307D-02 0.208D-02 0.411D-01-0.522D-01-0.305D+00 0.132D+01
 Gap=     0.591 Goal=   None    Shift=    0.000
 RMSDP=1.89D-05 MaxDP=1.48D-04 DE=-2.77D-06 OVMax= 1.15D-04

 Cycle   7  Pass 1  IDiag  1:
 E= -33.6266967101378     Delta-E=       -0.000000066661 Rises=F Damp=F
 DIIS: error= 5.36D-06 at cycle   7 NSaved=   7.
 NSaved= 7 IEnMin= 7 EnMin= -33.6266967101378     IErMin= 7 ErrMin= 5.36D-06
 ErrMax= 5.36D-06  0.00D+00 EMaxC= 1.00D-01 BMatC= 6.56D-10 BMatP= 2.66D-08
 IDIUse=1 WtCom= 1.00D+00 WtEn= 0.00D+00
 Coeff-Com:  0.833D-03-0.534D-03-0.111D-01 0.159D-01 0.824D-01-0.442D+00
 Coeff-Com:  0.135D+01
 Coeff:      0.833D-03-0.534D-03-0.111D-01 0.159D-01 0.824D-01-0.442D+00
 Coeff:      0.135D+01
 Gap=     0.591 Goal=   None    Shift=    0.000
 RMSDP=3.15D-06 MaxDP=1.87D-05 DE=-6.67D-08 OVMax= 2.67D-05

 Cycle   8  Pass 1  IDiag  1:
 E= -33.6266967120344     Delta-E=       -0.000000001897 Rises=F Damp=F
 DIIS: error= 1.17D-06 at cycle   8 NSaved=   8.
 NSaved= 8 IEnMin= 8 EnMin= -33.6266967120344     IErMin= 8 ErrMin= 1.17D-06
 ErrMax= 1.17D-06  0.00D+00 EMaxC= 1.00D-01 BMatC= 3.35D-11 BMatP= 6.56D-10
 IDIUse=1 WtCom= 1.00D+00 WtEn= 0.00D+00
 Coeff-Com: -0.854D-04 0.338D-04 0.107D-02-0.192D-02-0.668D-02 0.519D-01
 Coeff-Com: -0.331D+00 0.129D+01
 Coeff:     -0.854D-04 0.338D-04 0.107D-02-0.192D-02-0.668D-02 0.519D-01
 Coeff:     -0.331D+00 0.129D+01
 Gap=     0.591 Goal=   None    Shift=    0.000
 RMSDP=6.52D-07 MaxDP=3.75D-06 DE=-1.90D-09 OVMax= 6.12D-06

 Cycle   9  Pass 1  IDiag  1:
 E= -33.6266967121281     Delta-E=       -0.000000000094 Rises=F Damp=F
 DIIS: error= 2.34D-07 at cycle   9 NSaved=   9.
 NSaved= 9 IEnMin= 9 EnMin= -33.6266967121281     IErMin= 9 ErrMin= 2.34D-07
 ErrMax= 2.34D-07  0.00D+00 EMaxC= 1.00D-01 BMatC= 1.53D-12 BMatP= 3.35D-11
 IDIUse=1 WtCom= 1.00D+00 WtEn= 0.00D+00
 Coeff-Com:  0.873D-05 0.423D-05-0.753D-04 0.180D-03-0.132D-03-0.339D-02
 Coeff-Com:  0.654D-01-0.475D+00 0.141D+01
 Coeff:      0.873D-05 0.423D-05-0.753D-04 0.180D-03-0.132D-03-0.339D-02
 Coeff:      0.654D-01-0.475D+00 0.141D+01
 Gap=     0.591 Goal=   None    Shift=    0.000
 RMSDP=1.87D-07 MaxDP=1.02D-06 DE=-9.38D-11 OVMax= 1.64D-06

 Cycle  10  Pass 1  IDiag  1:
 E= -33.6266967121330     Delta-E=       -0.000000000005 Rises=F Damp=F
 DIIS: error= 2.86D-08 at cycle  10 NSaved=  10.
 NSaved=10 IEnMin=10 EnMin= -33.6266967121330     IErMin=10 ErrMin= 2.86D-08
 ErrMax= 2.86D-08  0.00D+00 EMaxC= 1.00D-01 BMatC= 2.26D-14 BMatP= 1.53D-12
 IDIUse=1 WtCom= 1.00D+00 WtEn= 0.00D+00
 Coeff-Com: -0.710D-06-0.211D-05-0.104D-05-0.103D-04 0.200D-03-0.222D-03
 Coeff-Com: -0.114D-01 0.108D+00-0.410D+00 0.131D+01
 Coeff:     -0.710D-06-0.211D-05-0.104D-05-0.103D-04 0.200D-03-0.222D-03
 Coeff:     -0.114D-01 0.108D+00-0.410D+00 0.131D+01
 Gap=     0.591 Goal=   None    Shift=    0.000
 RMSDP=2.81D-08 MaxDP=1.76D-07 DE=-4.87D-12 OVMax= 1.95D-07

 Cycle  11  Pass 1  IDiag  1:
 E= -33.6266967121331     Delta-E=       -0.000000000000 Rises=F Damp=F
 DIIS: error= 4.70D-09 at cycle  11 NSaved=  11.
 NSaved=11 IEnMin=11 EnMin= -33.6266967121331     IErMin=11 ErrMin= 4.70D-09
 ErrMax= 4.70D-09  0.00D+00 EMaxC= 1.00D-01 BMatC= 5.46D-16 BMatP= 2.26D-14
 IDIUse=1 WtCom= 1.00D+00 WtEn= 0.00D+00
 Coeff-Com: -0.100D-06 0.636D-06 0.369D-05-0.296D-05-0.749D-04 0.208D-03
 Coeff-Com:  0.194D-02-0.236D-01 0.983D-01-0.429D+00 0.135D+01
 Coeff:     -0.100D-06 0.636D-06 0.369D-05-0.296D-05-0.749D-04 0.208D-03
 Coeff:      0.194D-02-0.236D-01 0.983D-01-0.429D+00 0.135D+01
 Gap=     0.591 Goal=   None    Shift=    0.000
 RMSDP=4.44D-09 MaxDP=3.18D-08 DE=-1.07D-13 OVMax= 3.13D-08

 SCF Done:  E(RHF) =  -33.6266967121     A.U. after   11 cycles
            NFock= 11  Conv=0.44D-08     -V/T= 2.2384
 KE= 2.715269842552D+01 PE=-1.395712695090D+02 EE= 4.992105794167D+01
 Leave Link  502 at Sun Dec 10 06:23:08 2023, MaxMem=   536870912 cpu:               0.4 elap:               0.1
 (Enter /usr/site/hpc/x86_64/glibc-2.17/broadwell/gaussian/g16_a.03/pgi-16.5/g16/l801.exe)
 Windowed orbitals will be sorted by symmetry type.
 Range of M.O.s used for correlation:     1    24
 NBasis=    24 NAE=     8 NBE=     8 NFC=     0 NFV=     0
 NROrb=     24 NOA=     8 NOB=     8 NVA=    16 NVB=    16
 Leave Link  801 at Sun Dec 10 06:23:08 2023, MaxMem=   536870912 cpu:               0.1 elap:               0.0
 (Enter /usr/site/hpc/x86_64/glibc-2.17/broadwell/gaussian/g16_a.03/pgi-16.5/g16/l804.exe)
 Closed-shell transformation, MDV=   536870912 ITran=4 ISComp=2.
 Unit  1 TFree=       1025975 TCopy=        210600.
 Semi-Direct transformation.
 ModeAB=           2 MOrb=             8 LenV=     536741447
 LASXX=        22470 LTotXX=       22470 LenRXX=       22470
 LTotAB=       26208 MaxLAS=       57600 LenRXY=       57600
 NonZer=       62208 LenScr=      524288 LnRSAI=           0
 LnScr1=           0 LExtra=           0 Total=       604358
 MaxDsk=          -1 SrtSym=           F ITran=            4
 DoSDTr:  NPSUse=  4
 JobTyp=0 Pass  1:  I=   1 to   8.
 (rs|ai) integrals will be sorted in core.
 Complete sort for first half transformation.
 First half transformation complete.
 Complete sort for second half transformation.
 Second half transformation complete.
 Spin components of T(2) and E(2):
     alpha-alpha T2 =       0.9250865815D-02 E2=     -0.2683861618D-01
     alpha-beta  T2 =       0.5812967001D-01 E2=     -0.1747458653D+00
     beta-beta   T2 =       0.9250865815D-02 E2=     -0.2683861618D-01
 ANorm=    0.1037608501D+01
 E2 =    -0.2284230977D+00 EUMP2 =    -0.33855119809807D+02
 Leave Link  804 at Sun Dec 10 06:23:08 2023, MaxMem=   536870912 cpu:               0.2 elap:               0.1
 (Enter /usr/site/hpc/x86_64/glibc-2.17/broadwell/gaussian/g16_a.03/pgi-16.5/g16/l913.exe)
 CIDS:  MDV=   536870912.
 IFCWin=0 IBDFC=1 NFBD=     0     0 NFCmp=     0     0 NFFFC=     0     0
 Using DD3R+UMP44R for 1st iteration.
 Using DD4RQ for 2nd and later iterations.
 Keep R2 and R3 ints in memory in symmetry-blocked form, NReq=865410.
 FoFCou: FMM=F IPFlag=           0 FMFlag=           0 FMFlg1=           0
         NFxFlg=           0 DoJE=F BraDBF=F KetDBF=F FulRan=T
         wScrn=  0.000000 ICntrl=       600 IOpCl=  0 I1Cent=           0 NGrid=           0
         NMat0=    1 NMatS0=    300 NMatT0=    0 NMatD0=    1 NMtDS0=    0 NMtDT0=    0
 Petite list used in FoFCou.
 CIDS: In Core Option IDoMem=           1.
 CCSD(T)
 =======
 Iterations=  50 Convergence= 0.100D-06
 Produce multiple copies of IABC intergrals
 Iteration Nr.   1
 **********************
 DD1Dir will call FoFMem   1 times, MxPair=        72
 NAB=    36 NAA=     0 NBB=     0.
 MP4(R+Q)= -0.61037869D-03
 Maximum subspace dimension=  5
 A-vector RMS=  6.2251802D-03 Max=  1.3675876D-02 conv= 1.00D-05.
 RLE energy=       -0.2323802843
 E3=       -0.35727005D-02        EUMP3=      -0.33858692510D+02
 E4(DQ)=   -0.54698529D-02        UMP4(DQ)=   -0.33864162363D+02
 E4(SDQ)=  -0.78151890D-02        UMP4(SDQ)=  -0.33866507699D+02
 VARIATIONAL ENERGIES WITH THE FIRST-ORDER WAVEFUNCTION:
 DE(Corr)= -0.23231328     E(Corr)=     -33.859009993    
 NORM(A)=   0.10403460D+01
 Iteration Nr.   2
 **********************
 DD1Dir will call FoFMem   1 times, MxPair=        72
 NAB=    36 NAA=     0 NBB=     0.
 A-vector RMS=  9.6108356D-04 Max=  2.3902563D-03 conv= 1.00D-05.
 RLE energy=       -0.2399148587
 DE(Corr)= -0.23823486     E(CORR)=     -33.864931574     Delta=-5.92D-03
 NORM(A)=   0.10439126D+01
 Iteration Nr.   3
 **********************
 DD1Dir will call FoFMem   1 times, MxPair=        72
 NAB=    36 NAA=     0 NBB=     0.
 A-vector RMS=  5.7053303D-04 Max=  2.2858093D-03 conv= 1.00D-05.
 RLE energy=       -0.2404566231
 DE(Corr)= -0.23999274     E(CORR)=     -33.866689452     Delta=-1.76D-03
 NORM(A)=   0.10444984D+01
 Iteration Nr.   4
 **********************
 DD1Dir will call FoFMem   1 times, MxPair=        72
 NAB=    36 NAA=     0 NBB=     0.
 A-vector RMS=  1.0988830D-04 Max=  6.4730468D-04 conv= 1.00D-05.
 RLE energy=       -0.2405123264
 DE(Corr)= -0.24047532     E(CORR)=     -33.867172035     Delta=-4.83D-04
 NORM(A)=   0.10445799D+01
 Iteration Nr.   5
 **********************
 DD1Dir will call FoFMem   1 times, MxPair=        72
 NAB=    36 NAA=     0 NBB=     0.
 A-vector RMS=  7.6503510D-05 Max=  3.5563967D-04 conv= 1.00D-05.
 RLE energy=       -0.2405162628
 DE(Corr)= -0.24050953     E(CORR)=     -33.867206247     Delta=-3.42D-05
 NORM(A)=   0.10445993D+01
 Iteration Nr.   6
 **********************
 DD1Dir will call FoFMem   1 times, MxPair=        72
 NAB=    36 NAA=     0 NBB=     0.
 A-vector RMS=  2.7279439D-05 Max=  1.1369433D-04 conv= 1.00D-05.
 RLE energy=       -0.2405108490
 DE(Corr)= -0.24051452     E(CORR)=     -33.867211237     Delta=-4.99D-06
 NORM(A)=   0.10446047D+01
 Iteration Nr.   7
 **********************
 DD1Dir will call FoFMem   1 times, MxPair=        72
 NAB=    36 NAA=     0 NBB=     0.
 A-vector RMS=  9.4919933D-06 Max=  3.5499922D-05 conv= 1.00D-05.
 RLE energy=       -0.2405120485
 DE(Corr)= -0.24051482     E(CORR)=     -33.867211535     Delta=-2.98D-07
 NORM(A)=   0.10446076D+01
 Iteration Nr.   8
 **********************
 DD1Dir will call FoFMem   1 times, MxPair=        72
 NAB=    36 NAA=     0 NBB=     0.
 A-vector RMS=  3.9095147D-06 Max=  1.9032169D-05 conv= 1.00D-05.
 RLE energy=       -0.2405137122
 DE(Corr)= -0.24051391     E(CORR)=     -33.867210622     Delta= 9.13D-07
 NORM(A)=   0.10446093D+01
 Iteration Nr.   9
 **********************
 DD1Dir will call FoFMem   1 times, MxPair=        72
 NAB=    36 NAA=     0 NBB=     0.
 A-vector RMS=  7.5597299D-07 Max=  2.5931930D-06 conv= 1.00D-05.
 RLE energy=       -0.2405141183
 DE(Corr)= -0.24051415     E(CORR)=     -33.867210867     Delta=-2.45D-07
 NORM(A)=   0.10446098D+01
 Iteration Nr.  10
 **********************
 DD1Dir will call FoFMem   1 times, MxPair=        72
 NAB=    36 NAA=     0 NBB=     0.
 A-vector RMS=  2.5662762D-07 Max=  9.9495431D-07 conv= 1.00D-05.
 RLE energy=       -0.2405144018
 DE(Corr)= -0.24051435     E(CORR)=     -33.867211065     Delta=-1.98D-07
 NORM(A)=   0.10446100D+01
 Iteration Nr.  11
 **********************
 DD1Dir will call FoFMem   1 times, MxPair=        72
 NAB=    36 NAA=     0 NBB=     0.
 A-vector RMS=  1.1153725D-07 Max=  4.4181655D-07 conv= 1.00D-05.
 RLE energy=       -0.2405144668
 DE(Corr)= -0.24051444     E(CORR)=     -33.867211152     Delta=-8.76D-08
 NORM(A)=   0.10446101D+01
 CI/CC converged in   11 iterations to DelEn=-8.76D-08 Conv= 1.00D-07 ErrA1= 1.12D-07 Conv= 1.00D-05
 Wavefunction amplitudes converged. E(Corr)=     -33.867211152    
 Largest amplitude= 4.87D-02
 IPart=  2 IA=    2   12.50% done.
 IPart=  4 IA=    3   24.17% done.
 IPart=  3 IA=    4   35.00% done.
 IPart=  3 IA=    5   45.00% done.
 IPart=  4 IA=    6   54.17% done.
 IPart=  2 IA=    7   62.50% done.
 IPart=  1 IA=    8   70.00% done.
 IPart=  2 IA=   10   82.50% done.
 IPart=  1 IA=   12   91.67% done.
 Time for triples=        0.24 seconds.
 T4(CCSD)= -0.37238266D-02
 T5(CCSD)=  0.59088821D-03
 CCSD(T)= -0.33870344091D+02
 Discarding MO integrals.
 Leave Link  913 at Sun Dec 10 06:23:08 2023, MaxMem=   536870912 cpu:               1.0 elap:               0.3
 (Enter /usr/site/hpc/x86_64/glibc-2.17/broadwell/gaussian/g16_a.03/pgi-16.5/g16/l601.exe)
 Copying SCF densities to generalized density rwf, IOpCl= 0 IROHF=0.

 **********************************************************************

            Population analysis using the SCF density.

 **********************************************************************

 Orbital symmetries:
       Occupied  (A') (A') (A') (A') (A") (A') (A') (A")
       Virtual   (A') (A') (A') (A') (A") (A') (A') (A") (A') (A')
                 (A') (A') (A') (A') (A') (A')
 The electronic state is 1-A'.
 Alpha  occ. eigenvalues --   -1.43618  -1.28572  -0.79835  -0.73486  -0.57392
 Alpha  occ. eigenvalues --   -0.56564  -0.46613  -0.42744
 Alpha virt. eigenvalues --    0.16352   0.25027   0.29338   0.59076   0.73376
 Alpha virt. eigenvalues --    0.74469   0.87218   0.90422   0.95788   1.06957
 Alpha virt. eigenvalues --    1.13025   1.21196   1.25334   1.35092   2.89681
 Alpha virt. eigenvalues --    4.23365
          Condensed to atoms (all electrons):
               1          2          3          4          5          6
     1  O    6.215241   0.402153   0.259796  -0.147234   0.001908   0.002960
     2  H    0.402153   0.499602  -0.057527  -0.230638   0.011515   0.016151
     3  H    0.259796  -0.057527   0.470525   0.016691   0.000034  -0.000969
     4  O   -0.147234  -0.230638   0.016691   6.679869   0.262665   0.241747
     5  H    0.001908   0.011515   0.000034   0.262665   0.262308  -0.017666
     6  H    0.002960   0.016151  -0.000969   0.241747  -0.017666   0.349280
 Mulliken charges:
               1
     1  O   -0.734824
     2  H    0.358743
     3  H    0.311450
     4  O   -0.823101
     5  H    0.479236
     6  H    0.408496
 Sum of Mulliken charges =  -0.00000
 Mulliken charges with hydrogens summed into heavy atoms:
               1
     1  O   -0.064631
     4  O    0.064631
 Electronic spatial extent (au):  <R**2>=            113.7823
 Charge=             -0.0000 electrons
 Dipole moment (field-independent basis, Debye):
    X=             -2.8753    Y=             -5.2044    Z=             -0.0000  Tot=              5.9459
 Quadrupole moment (field-independent basis, Debye-Ang):
   XX=             -9.9861   YY=            -10.1736   ZZ=            -14.9610
   XY=             -3.2316   XZ=              0.0000   YZ=             -0.0000
 Traceless Quadrupole moment (field-independent basis, Debye-Ang):
   XX=              1.7208   YY=              1.5333   ZZ=             -3.2541
   XY=             -3.2316   XZ=              0.0000   YZ=             -0.0000
 Octapole moment (field-independent basis, Debye-Ang**2):
  XXX=             -3.1213  YYY=            -20.4271  ZZZ=             -0.0000  XYY=             -3.7353
  XXY=             -3.0465  XXZ=             -0.0000  XZZ=             -0.5147  YZZ=             -1.2825
  YYZ=             -0.0000  XYZ=             -0.0000
 Hexadecapole moment (field-independent basis, Debye-Ang**3):
 XXXX=            -12.3538 YYYY=            -96.4277 ZZZZ=            -12.2473 XXXY=              0.2000
 XXXZ=              0.0000 YYYX=            -12.5383 YYYZ=             -0.0000 ZZZX=             -0.0000
 ZZZY=              0.0000 XXYY=            -15.2090 XXZZ=             -4.5711 YYZZ=            -24.1272
 XXYZ=             -0.0000 YYXZ=              0.0000 ZZXY=              0.2281
 N-N= 2.887081642966D+01 E-N=-1.395712695212D+02  KE= 2.715269842552D+01
 Symmetry A'   KE= 1.833670871873D+01
 Symmetry A"   KE= 8.815989706791D+00
 Leave Link  601 at Sun Dec 10 06:23:08 2023, MaxMem=   536870912 cpu:               0.1 elap:               0.0
 (Enter /usr/site/hpc/x86_64/glibc-2.17/broadwell/gaussian/g16_a.03/pgi-16.5/g16/l9999.exe)
 1\1\GINC-N044\SP\RCCSD(T)-FC\CEP-31G\H4O2\ROOT\10-Dec-2023\0\\#p CCSD(
 T)/CEP-31G\\H2O_H2O_258\\0,1\O,0,0.,-0.009833,0.\H,0,-0.799571,-0.5809
 65,0.\H,0,0.799571,-0.580965,0.\O,0,-1.82799,-1.310733,0.\H,0,-2.80600
 6,-1.405562,0.\H,0,-1.421107,-2.205134,0.\\Version=ES64L-G16RevA.03\St
 ate=1-A'\HF=-33.6266967\MP2=-33.8551198\MP3=-33.8586925\MP4D=-33.86355
 2\MP4DQ=-33.8641624\MP4SDQ=-33.8665077\CCSD=-33.8672112\CCSD(T)=-33.87
 03441\RMSD=4.437e-09\PG=CS [SG(H4O2)]\\@


 K N O W I N G  IS A BARRIER WHICH PREVENTS LEARNING

                     -- TEACHING OF THE BENE GESSERIT
 Job cpu time:       0 days  0 hours  0 minutes  4.1 seconds.
 Elapsed time:       0 days  0 hours  0 minutes  1.1 seconds.
 File lengths (MBytes):  RWF=     72 Int=      0 D2E=      0 Chk=      8 Scr=      8
 Normal termination of Gaussian 16 at Sun Dec 10 06:23:08 2023.
