 Entering Gaussian System, Link 0=g16
 Input=H2O_H2O_2301.com
 Output=H2O_H2O_2301.log
 Initial command:
 /usr/site/hpc/x86_64/glibc-2.17/broadwell/gaussian/g16_a.03/pgi-16.5/g16/l1.exe "/gpfs/gpfs1/scratch/c7441090/OH Coord/Gau-1718115.inp" -scrdir="/gpfs/gpfs1/scratch/c7441090/OH Coord/"
 Entering Link 1 = /usr/site/hpc/x86_64/glibc-2.17/broadwell/gaussian/g16_a.03/pgi-16.5/g16/l1.exe PID=   1718116.
  
 Copyright (c) 1988,1990,1992,1993,1995,1998,2003,2009,2016,
            Gaussian, Inc.  All Rights Reserved.
  
 This is part of the Gaussian(R) 16 program.  It is based on
 the Gaussian(R) 09 system (copyright 2009, Gaussian, Inc.),
 the Gaussian(R) 03 system (copyright 2003, Gaussian, Inc.),
 the Gaussian(R) 98 system (copyright 1998, Gaussian, Inc.),
 the Gaussian(R) 94 system (copyright 1995, Gaussian, Inc.),
 the Gaussian 92(TM) system (copyright 1992, Gaussian, Inc.),
 the Gaussian 90(TM) system (copyright 1990, Gaussian, Inc.),
 the Gaussian 88(TM) system (copyright 1988, Gaussian, Inc.),
 the Gaussian 86(TM) system (copyright 1986, Carnegie Mellon
 University), and the Gaussian 82(TM) system (copyright 1983,
 Carnegie Mellon University). Gaussian is a federally registered
 trademark of Gaussian, Inc.
  
 This software contains proprietary and confidential information,
 including trade secrets, belonging to Gaussian, Inc.
  
 This software is provided under written license and may be
 used, copied, transmitted, or stored only in accord with that
 written license.
  
 The following legend is applicable only to US Government
 contracts under FAR:
  
                    RESTRICTED RIGHTS LEGEND
  
 Use, reproduction and disclosure by the US Government is
 subject to restrictions as set forth in subparagraphs (a)
 and (c) of the Commercial Computer Software - Restricted
 Rights clause in FAR 52.227-19.
  
 Gaussian, Inc.
 340 Quinnipiac St., Bldg. 40, Wallingford CT 06492
  
  
 ---------------------------------------------------------------
 Warning -- This program may not be used in any manner that
 competes with the business of Gaussian, Inc. or will provide
 assistance to any competitor of Gaussian, Inc.  The licensee
 of this program is prohibited from giving any competitor of
 Gaussian, Inc. access to this program.  By using this program,
 the user acknowledges that Gaussian, Inc. is engaged in the
 business of creating and licensing software in the field of
 computational chemistry and represents and warrants to the
 licensee that it is not a competitor of Gaussian, Inc. and that
 it will not use this program in any manner prohibited above.
 ---------------------------------------------------------------
  

 Cite this work as:
 Gaussian 16, Revision A.03,
 M. J. Frisch, G. W. Trucks, H. B. Schlegel, G. E. Scuseria, 
 M. A. Robb, J. R. Cheeseman, G. Scalmani, V. Barone, 
 G. A. Petersson, H. Nakatsuji, X. Li, M. Caricato, A. V. Marenich, 
 J. Bloino, B. G. Janesko, R. Gomperts, B. Mennucci, H. P. Hratchian, 
 J. V. Ortiz, A. F. Izmaylov, J. L. Sonnenberg, D. Williams-Young, 
 F. Ding, F. Lipparini, F. Egidi, J. Goings, B. Peng, A. Petrone, 
 T. Henderson, D. Ranasinghe, V. G. Zakrzewski, J. Gao, N. Rega, 
 G. Zheng, W. Liang, M. Hada, M. Ehara, K. Toyota, R. Fukuda, 
 J. Hasegawa, M. Ishida, T. Nakajima, Y. Honda, O. Kitao, H. Nakai, 
 T. Vreven, K. Throssell, J. A. Montgomery, Jr., J. E. Peralta, 
 F. Ogliaro, M. J. Bearpark, J. J. Heyd, E. N. Brothers, K. N. Kudin, 
 V. N. Staroverov, T. A. Keith, R. Kobayashi, J. Normand, 
 K. Raghavachari, A. P. Rendell, J. C. Burant, S. S. Iyengar, 
 J. Tomasi, M. Cossi, J. M. Millam, M. Klene, C. Adamo, R. Cammi, 
 J. W. Ochterski, R. L. Martin, K. Morokuma, O. Farkas, 
 J. B. Foresman, and D. J. Fox, Gaussian, Inc., Wallingford CT, 2016.
 
 ******************************************
 Gaussian 16:  ES64L-G16RevA.03 25-Dec-2016
                10-Dec-2023 
 ******************************************
 %NProcShared=4
 Will use up to    4 processors via shared memory.
 %Mem=4GB
 %Chk=H2O_H2O_2301.chk
 ------------------
 #p CCSD(T)/CEP-31G
 ------------------
 1/38=1,172=1/1;
 2/12=2,17=6,18=5,40=1/2;
 3/5=9,6=1,11=9,25=1,30=1/1,2,3;
 4//1;
 5/5=2,38=5/2;
 8/6=4,9=120000,10=1/1,4;
 9/5=7,14=2/13;
 6/7=2,8=2,9=2,10=2/1;
 99/5=1,9=1/99;
 Leave Link    1 at Sun Dec 10 07:03:45 2023, MaxMem=   536870912 cpu:               0.2 elap:               0.1
 (Enter /usr/site/hpc/x86_64/glibc-2.17/broadwell/gaussian/g16_a.03/pgi-16.5/g16/l101.exe)
 ------------
 H2O_H2O_2301
 ------------
 Symbolic Z-matrix:
 Charge =  0 Multiplicity = 1
 O                     0.       -0.00983   0. 
 H                    -0.79957  -0.58097   0. 
 H                     0.79957  -0.58097   0. 
 O                    -3.15449  -2.2626    0. 
 H                    -3.9897   -2.78021   0. 
 H                    -2.39398  -2.8848    0. 
 
 ITRead=  0  0  0  0  0  0
 MicOpt= -1 -1 -1 -1 -1 -1
 NAtoms=      6 NQM=        6 NQMF=       0 NMMI=      0 NMMIF=      0
                NMic=       0 NMicF=      0.
                    Isotopes and Nuclear Properties:
 (Nuclear quadrupole moments (NQMom) in fm**2, nuclear magnetic moments (NMagM)
  in nuclear magnetons)

  Atom         1           2           3           4           5           6
 IAtWgt=          16           1           1          16           1           1
 AtmWgt=  15.9949146   1.0078250   1.0078250  15.9949146   1.0078250   1.0078250
 NucSpn=           0           1           1           0           1           1
 AtZEff=  -0.0000000  -0.0000000  -0.0000000  -0.0000000  -0.0000000  -0.0000000
 NQMom=    0.0000000   0.0000000   0.0000000   0.0000000   0.0000000   0.0000000
 NMagM=    0.0000000   2.7928460   2.7928460   0.0000000   2.7928460   2.7928460
 AtZNuc=   8.0000000   1.0000000   1.0000000   8.0000000   1.0000000   1.0000000
 Leave Link  101 at Sun Dec 10 07:03:45 2023, MaxMem=   536870912 cpu:               0.3 elap:               0.1
 (Enter /usr/site/hpc/x86_64/glibc-2.17/broadwell/gaussian/g16_a.03/pgi-16.5/g16/l202.exe)
                          Input orientation:                          
 ---------------------------------------------------------------------
 Center     Atomic      Atomic             Coordinates (Angstroms)
 Number     Number       Type             X           Y           Z
 ---------------------------------------------------------------------
      1          8           0        0.000000   -0.009833    0.000000
      2          1           0       -0.799571   -0.580965    0.000000
      3          1           0        0.799571   -0.580965    0.000000
      4          8           0       -3.154487   -2.262595    0.000000
      5          1           0       -3.989700   -2.780210    0.000000
      6          1           0       -2.393981   -2.884799    0.000000
 ---------------------------------------------------------------------
                    Distance matrix (angstroms):
                    1          2          3          4          5
     1  O    0.000000
     2  H    0.982601   0.000000
     3  H    0.982601   1.599142   0.000000
     4  O    3.876303   2.893702   4.296796   0.000000
     5  H    4.857231   3.874739   5.270085   0.982602   0.000000
     6  H    3.741200   2.801748   3.937820   0.982602   1.599143
                    6
     6  H    0.000000
 Stoichiometry    H4O2
 Framework group  CS[SG(H4O2)]
 Deg. of freedom     9
 Full point group                 CS      NOp   2
 Largest Abelian subgroup         CS      NOp   2
 Largest concise Abelian subgroup C1      NOp   1
                         Standard orientation:                         
 ---------------------------------------------------------------------
 Center     Atomic      Atomic             Coordinates (Angstroms)
 Number     Number       Type             X           Y           Z
 ---------------------------------------------------------------------
      1          8           0        0.090686   -2.007504    0.000000
      2          1           0        0.090586   -1.024903    0.000000
      3          1           0       -0.838775   -2.326265    0.000000
      4          8           0        0.090686    1.868799    0.000000
      5          1           0        0.154852    2.849303    0.000000
      6          1           0       -0.857634    1.611510    0.000000
 ---------------------------------------------------------------------
 Rotational constants (GHZ):         300.0951267           3.6727052           3.6283003
 Leave Link  202 at Sun Dec 10 07:03:46 2023, MaxMem=   536870912 cpu:               0.1 elap:               0.0
 (Enter /usr/site/hpc/x86_64/glibc-2.17/broadwell/gaussian/g16_a.03/pgi-16.5/g16/l301.exe)
 Standard basis: CEP-31G (6D, 10F)
 Ernie: Thresh=  0.10000D-02 Tol=  0.10000D-05 Strict=F.
 There are    20 symmetry adapted cartesian basis functions of A'  symmetry.
 There are     4 symmetry adapted cartesian basis functions of A"  symmetry.
 There are    20 symmetry adapted basis functions of A'  symmetry.
 There are     4 symmetry adapted basis functions of A"  symmetry.
    24 basis functions,    48 primitive gaussians,    24 cartesian basis functions
     8 alpha electrons        8 beta electrons
       nuclear repulsion energy        22.4002915884 Hartrees.
 IExCor=    0 DFT=F Ex=HF Corr=None ExCW=0 ScaHFX=  1.000000
 ScaDFX=  1.000000  1.000000  1.000000  1.000000 ScalE2=  1.000000  1.000000
 IRadAn=      5 IRanWt=     -1 IRanGd=            0 ICorTp=0 IEmpDi=  4
 NAtoms=    6 NActive=    6 NUniq=    6 SFac= 1.00D+00 NAtFMM=   60 NAOKFM=F Big=F
 Integral buffers will be    131072 words long.
 Raffenetti 1 integral format.
 Two-electron integral symmetry is turned on.
 Leave Link  301 at Sun Dec 10 07:03:46 2023, MaxMem=   536870912 cpu:               0.2 elap:               0.1
 (Enter /usr/site/hpc/x86_64/glibc-2.17/broadwell/gaussian/g16_a.03/pgi-16.5/g16/l302.exe)
 NPDir=0 NMtPBC=     1 NCelOv=     1 NCel=       1 NClECP=     1 NCelD=      1
         NCelK=      1 NCelE2=     1 NClLst=     1 CellRange=     0.0.
 One-electron integrals computed using PRISM.
 One-electron integral symmetry used in STVInt
   2 Symmetry operations used in ECPInt.
 ECPInt:  NShTT=      78 NPrTT=     318 LenC2=      79 LenP2D=     280.
 LDataN:  DoStor=T MaxTD1= 2 Len=   12
 NBasis=    24 RedAO= T EigKep=  3.32D-02  NBF=    20     4
 NBsUse=    24 1.00D-06 EigRej= -1.00D+00 NBFU=    20     4
 Leave Link  302 at Sun Dec 10 07:03:46 2023, MaxMem=   536870912 cpu:               0.3 elap:               0.1
 (Enter /usr/site/hpc/x86_64/glibc-2.17/broadwell/gaussian/g16_a.03/pgi-16.5/g16/l303.exe)
 DipDrv:  MaxL=1.
 Leave Link  303 at Sun Dec 10 07:03:46 2023, MaxMem=   536870912 cpu:               0.1 elap:               0.0
 (Enter /usr/site/hpc/x86_64/glibc-2.17/broadwell/gaussian/g16_a.03/pgi-16.5/g16/l401.exe)
 ExpMin= 1.78D-01 ExpMax= 1.92D+01 ExpMxC= 1.92D+01 IAcc=3 IRadAn=         5 AccDes= 0.00D+00
 Harris functional with IExCor=  205 and IRadAn=       5 diagonalized for initial guess.
 HarFok:  IExCor=  205 AccDes= 0.00D+00 IRadAn=         5 IDoV= 1 UseB2=F ITyADJ=14
 ICtDFT=  3500011 ScaDFX=  1.000000  1.000000  1.000000  1.000000
 FoFCou: FMM=F IPFlag=           0 FMFlag=      100000 FMFlg1=           0
         NFxFlg=           0 DoJE=T BraDBF=F KetDBF=T FulRan=T
         wScrn=  0.000000 ICntrl=       500 IOpCl=  0 I1Cent=   200000004 NGrid=           0
         NMat0=    1 NMatS0=      1 NMatT0=    0 NMatD0=    1 NMtDS0=    0 NMtDT0=    0
 Petite list used in FoFCou.
 Harris En= -34.4765375286837    
 JPrj=0 DoOrth=F DoCkMO=F.
 Initial guess orbital symmetries:
       Occupied  (A') (A') (A') (A') (A') (A') (A") (A")
       Virtual   (A') (A') (A') (A') (A") (A") (A') (A') (A') (A')
                 (A') (A') (A') (A') (A') (A')
 The electronic state of the initial guess is 1-A'.
 Leave Link  401 at Sun Dec 10 07:03:46 2023, MaxMem=   536870912 cpu:               0.4 elap:               0.1
 (Enter /usr/site/hpc/x86_64/glibc-2.17/broadwell/gaussian/g16_a.03/pgi-16.5/g16/l502.exe)
 Keep R1 ints in memory in symmetry-blocked form, NReq=852446.
 FoFCou: FMM=F IPFlag=           0 FMFlag=           0 FMFlg1=           0
         NFxFlg=           0 DoJE=F BraDBF=F KetDBF=F FulRan=T
         wScrn=  0.000000 ICntrl=       600 IOpCl=  0 I1Cent=           0 NGrid=           0
         NMat0=    1 NMatS0=    300 NMatT0=    0 NMatD0=    1 NMtDS0=    0 NMtDT0=    0
 Petite list used in FoFCou.
 Closed shell SCF:
 Using DIIS extrapolation, IDIIS=  1040.
 NGot=   536870912 LenX=   536840576 LenY=   536839559
 Requested convergence on RMS density matrix=1.00D-08 within 128 cycles.
 Requested convergence on MAX density matrix=1.00D-06.
 Requested convergence on             energy=1.00D-06.
 No special actions if energy rises.

 Cycle   1  Pass 1  IDiag  1:
 E= -33.5606825608039    
 DIIS: error= 6.85D-02 at cycle   1 NSaved=   1.
 NSaved= 1 IEnMin= 1 EnMin= -33.5606825608039     IErMin= 1 ErrMin= 6.85D-02
 ErrMax= 6.85D-02  0.00D+00 EMaxC= 1.00D-01 BMatC= 1.01D-01 BMatP= 1.01D-01
 IDIUse=3 WtCom= 3.15D-01 WtEn= 6.85D-01
 Coeff-Com:  0.100D+01
 Coeff-En:   0.100D+01
 Coeff:      0.100D+01
 Gap=     0.577 Goal=   None    Shift=    0.000
 GapD=    0.577 DampG=2.000 DampE=0.500 DampFc=1.0000 IDamp=-1.
 RMSDP=1.47D-02 MaxDP=1.18D-01              OVMax= 9.97D-02

 Cycle   2  Pass 1  IDiag  1:
 E= -33.6223925705269     Delta-E=       -0.061710009723 Rises=F Damp=F
 DIIS: error= 3.69D-02 at cycle   2 NSaved=   2.
 NSaved= 2 IEnMin= 2 EnMin= -33.6223925705269     IErMin= 2 ErrMin= 3.69D-02
 ErrMax= 3.69D-02  0.00D+00 EMaxC= 1.00D-01 BMatC= 3.73D-02 BMatP= 1.01D-01
 IDIUse=3 WtCom= 6.31D-01 WtEn= 3.69D-01
 Coeff-Com:  0.376D+00 0.624D+00
 Coeff-En:   0.107D+00 0.893D+00
 Coeff:      0.277D+00 0.723D+00
 Gap=     0.665 Goal=   None    Shift=    0.000
 RMSDP=6.34D-03 MaxDP=5.38D-02 DE=-6.17D-02 OVMax= 3.55D-02

 Cycle   3  Pass 1  IDiag  1:
 E= -33.6522429002648     Delta-E=       -0.029850329738 Rises=F Damp=F
 DIIS: error= 7.09D-03 at cycle   3 NSaved=   3.
 NSaved= 3 IEnMin= 3 EnMin= -33.6522429002648     IErMin= 3 ErrMin= 7.09D-03
 ErrMax= 7.09D-03  0.00D+00 EMaxC= 1.00D-01 BMatC= 8.83D-04 BMatP= 3.73D-02
 IDIUse=3 WtCom= 9.29D-01 WtEn= 7.09D-02
 Coeff-Com: -0.113D+00-0.159D-01 0.113D+01
 Coeff-En:   0.000D+00 0.000D+00 0.100D+01
 Coeff:     -0.105D+00-0.148D-01 0.112D+01
 Gap=     0.658 Goal=   None    Shift=    0.000
 RMSDP=1.06D-03 MaxDP=8.64D-03 DE=-2.99D-02 OVMax= 8.12D-03

 Cycle   4  Pass 1  IDiag  1:
 E= -33.6531205090780     Delta-E=       -0.000877608813 Rises=F Damp=F
 DIIS: error= 7.32D-04 at cycle   4 NSaved=   4.
 NSaved= 4 IEnMin= 4 EnMin= -33.6531205090780     IErMin= 4 ErrMin= 7.32D-04
 ErrMax= 7.32D-04  0.00D+00 EMaxC= 1.00D-01 BMatC= 5.69D-06 BMatP= 8.83D-04
 IDIUse=3 WtCom= 9.93D-01 WtEn= 7.32D-03
 Coeff-Com:  0.432D-01-0.175D-01-0.522D+00 0.150D+01
 Coeff-En:   0.000D+00 0.000D+00 0.000D+00 0.100D+01
 Coeff:      0.429D-01-0.174D-01-0.518D+00 0.149D+01
 Gap=     0.660 Goal=   None    Shift=    0.000
 RMSDP=2.36D-04 MaxDP=1.96D-03 DE=-8.78D-04 OVMax= 1.05D-03

 Cycle   5  Pass 1  IDiag  1:
 E= -33.6531333113595     Delta-E=       -0.000012802281 Rises=F Damp=F
 DIIS: error= 5.15D-05 at cycle   5 NSaved=   5.
 NSaved= 5 IEnMin= 5 EnMin= -33.6531333113595     IErMin= 5 ErrMin= 5.15D-05
 ErrMax= 5.15D-05  0.00D+00 EMaxC= 1.00D-01 BMatC= 3.92D-08 BMatP= 5.69D-06
 IDIUse=1 WtCom= 1.00D+00 WtEn= 0.00D+00
 Coeff-Com: -0.697D-02 0.310D-02 0.851D-01-0.294D+00 0.121D+01
 Coeff:     -0.697D-02 0.310D-02 0.851D-01-0.294D+00 0.121D+01
 Gap=     0.660 Goal=   None    Shift=    0.000
 RMSDP=1.66D-05 MaxDP=1.63D-04 DE=-1.28D-05 OVMax= 1.11D-04

 Cycle   6  Pass 1  IDiag  1:
 E= -33.6531334083071     Delta-E=       -0.000000096948 Rises=F Damp=F
 DIIS: error= 1.08D-05 at cycle   6 NSaved=   6.
 NSaved= 6 IEnMin= 6 EnMin= -33.6531334083071     IErMin= 6 ErrMin= 1.08D-05
 ErrMax= 1.08D-05  0.00D+00 EMaxC= 1.00D-01 BMatC= 2.41D-09 BMatP= 3.92D-08
 IDIUse=1 WtCom= 1.00D+00 WtEn= 0.00D+00
 Coeff-Com:  0.433D-06 0.944D-04 0.378D-03 0.530D-02-0.186D+00 0.118D+01
 Coeff:      0.433D-06 0.944D-04 0.378D-03 0.530D-02-0.186D+00 0.118D+01
 Gap=     0.660 Goal=   None    Shift=    0.000
 RMSDP=3.63D-06 MaxDP=2.35D-05 DE=-9.69D-08 OVMax= 3.43D-05

 Cycle   7  Pass 1  IDiag  1:
 E= -33.6531334138642     Delta-E=       -0.000000005557 Rises=F Damp=F
 DIIS: error= 3.24D-06 at cycle   7 NSaved=   7.
 NSaved= 7 IEnMin= 7 EnMin= -33.6531334138642     IErMin= 7 ErrMin= 3.24D-06
 ErrMax= 3.24D-06  0.00D+00 EMaxC= 1.00D-01 BMatC= 4.41D-10 BMatP= 2.41D-09
 IDIUse=1 WtCom= 1.00D+00 WtEn= 0.00D+00
 Coeff-Com:  0.834D-03-0.346D-03-0.101D-01 0.358D-01-0.178D+00 0.277D+00
 Coeff-Com:  0.875D+00
 Coeff:      0.834D-03-0.346D-03-0.101D-01 0.358D-01-0.178D+00 0.277D+00
 Coeff:      0.875D+00
 Gap=     0.660 Goal=   None    Shift=    0.000
 RMSDP=1.21D-06 MaxDP=7.69D-06 DE=-5.56D-09 OVMax= 1.22D-05

 Cycle   8  Pass 1  IDiag  1:
 E= -33.6531334145774     Delta-E=       -0.000000000713 Rises=F Damp=F
 DIIS: error= 1.02D-06 at cycle   8 NSaved=   8.
 NSaved= 8 IEnMin= 8 EnMin= -33.6531334145774     IErMin= 8 ErrMin= 1.02D-06
 ErrMax= 1.02D-06  0.00D+00 EMaxC= 1.00D-01 BMatC= 2.63D-11 BMatP= 4.41D-10
 IDIUse=1 WtCom= 1.00D+00 WtEn= 0.00D+00
 Coeff-Com:  0.705D-05-0.289D-04-0.160D-03-0.365D-03 0.266D-01-0.149D+00
 Coeff-Com: -0.592D-01 0.118D+01
 Coeff:      0.705D-05-0.289D-04-0.160D-03-0.365D-03 0.266D-01-0.149D+00
 Coeff:     -0.592D-01 0.118D+01
 Gap=     0.660 Goal=   None    Shift=    0.000
 RMSDP=5.13D-07 MaxDP=2.91D-06 DE=-7.13D-10 OVMax= 4.07D-06

 Cycle   9  Pass 1  IDiag  1:
 E= -33.6531334146412     Delta-E=       -0.000000000064 Rises=F Damp=F
 DIIS: error= 1.51D-07 at cycle   9 NSaved=   9.
 NSaved= 9 IEnMin= 9 EnMin= -33.6531334146412     IErMin= 9 ErrMin= 1.51D-07
 ErrMax= 1.51D-07  0.00D+00 EMaxC= 1.00D-01 BMatC= 6.64D-13 BMatP= 2.63D-11
 IDIUse=1 WtCom= 1.00D+00 WtEn= 0.00D+00
 Coeff-Com:  0.319D-05 0.732D-05-0.436D-05 0.294D-03-0.101D-01 0.583D-01
 Coeff-Com:  0.115D-01-0.494D+00 0.143D+01
 Coeff:      0.319D-05 0.732D-05-0.436D-05 0.294D-03-0.101D-01 0.583D-01
 Coeff:      0.115D-01-0.494D+00 0.143D+01
 Gap=     0.660 Goal=   None    Shift=    0.000
 RMSDP=1.20D-07 MaxDP=4.94D-07 DE=-6.38D-11 OVMax= 8.06D-07

 Cycle  10  Pass 1  IDiag  1:
 E= -33.6531334146430     Delta-E=       -0.000000000002 Rises=F Damp=F
 DIIS: error= 1.05D-08 at cycle  10 NSaved=  10.
 NSaved=10 IEnMin=10 EnMin= -33.6531334146430     IErMin=10 ErrMin= 1.05D-08
 ErrMax= 1.05D-08  0.00D+00 EMaxC= 1.00D-01 BMatC= 4.22D-15 BMatP= 6.64D-13
 IDIUse=1 WtCom= 1.00D+00 WtEn= 0.00D+00
 Coeff-Com:  0.206D-06-0.179D-05-0.974D-05-0.216D-04 0.192D-02-0.121D-01
 Coeff-Com: -0.176D-02 0.103D+00-0.363D+00 0.127D+01
 Coeff:      0.206D-06-0.179D-05-0.974D-05-0.216D-04 0.192D-02-0.121D-01
 Coeff:     -0.176D-02 0.103D+00-0.363D+00 0.127D+01
 Gap=     0.660 Goal=   None    Shift=    0.000
 RMSDP=1.34D-08 MaxDP=6.67D-08 DE=-1.81D-12 OVMax= 8.12D-08

 Cycle  11  Pass 1  IDiag  1:
 E= -33.6531334146431     Delta-E=       -0.000000000000 Rises=F Damp=F
 DIIS: error= 6.62D-10 at cycle  11 NSaved=  11.
 NSaved=11 IEnMin=11 EnMin= -33.6531334146431     IErMin=11 ErrMin= 6.62D-10
 ErrMax= 6.62D-10  0.00D+00 EMaxC= 1.00D-01 BMatC= 1.60D-17 BMatP= 4.22D-15
 IDIUse=1 WtCom= 1.00D+00 WtEn= 0.00D+00
 Coeff-Com: -0.924D-07 0.344D-06 0.239D-05 0.189D-05-0.351D-03 0.225D-02
 Coeff-Com:  0.276D-03-0.193D-01 0.698D-01-0.278D+00 0.122D+01
 Coeff:     -0.924D-07 0.344D-06 0.239D-05 0.189D-05-0.351D-03 0.225D-02
 Coeff:      0.276D-03-0.193D-01 0.698D-01-0.278D+00 0.122D+01
 Gap=     0.660 Goal=   None    Shift=    0.000
 RMSDP=6.25D-10 MaxDP=3.99D-09 DE=-1.42D-14 OVMax= 3.20D-09

 SCF Done:  E(RHF) =  -33.6531334146     A.U. after   11 cycles
            NFock= 11  Conv=0.62D-09     -V/T= 2.2568
 KE= 2.677678034805D+01 PE=-1.263429639561D+02 EE= 4.351275860495D+01
 Leave Link  502 at Sun Dec 10 07:03:46 2023, MaxMem=   536870912 cpu:               0.3 elap:               0.1
 (Enter /usr/site/hpc/x86_64/glibc-2.17/broadwell/gaussian/g16_a.03/pgi-16.5/g16/l801.exe)
 Windowed orbitals will be sorted by symmetry type.
 Range of M.O.s used for correlation:     1    24
 NBasis=    24 NAE=     8 NBE=     8 NFC=     0 NFV=     0
 NROrb=     24 NOA=     8 NOB=     8 NVA=    16 NVB=    16
 Leave Link  801 at Sun Dec 10 07:03:46 2023, MaxMem=   536870912 cpu:               0.1 elap:               0.0
 (Enter /usr/site/hpc/x86_64/glibc-2.17/broadwell/gaussian/g16_a.03/pgi-16.5/g16/l804.exe)
 Closed-shell transformation, MDV=   536870912 ITran=4 ISComp=2.
 Unit  1 TFree=       1025975 TCopy=        210600.
 Semi-Direct transformation.
 ModeAB=           2 MOrb=             8 LenV=     536741911
 LASXX=        22470 LTotXX=       22470 LenRXX=       22470
 LTotAB=       26208 MaxLAS=       57600 LenRXY=       57600
 NonZer=       62016 LenScr=      524288 LnRSAI=           0
 LnScr1=           0 LExtra=           0 Total=       604358
 MaxDsk=          -1 SrtSym=           F ITran=            4
 DoSDTr:  NPSUse=  4
 JobTyp=0 Pass  1:  I=   1 to   8.
 (rs|ai) integrals will be sorted in core.
 Complete sort for first half transformation.
 First half transformation complete.
 Complete sort for second half transformation.
 Second half transformation complete.
 Spin components of T(2) and E(2):
     alpha-alpha T2 =       0.9086998205D-02 E2=     -0.2595684495D-01
     alpha-beta  T2 =       0.5990741318D-01 E2=     -0.1767244707D+00
     beta-beta   T2 =       0.9086998205D-02 E2=     -0.2595684495D-01
 ANorm=    0.1038306992D+01
 E2 =    -0.2286381607D+00 EUMP2 =    -0.33881771575298D+02
 Leave Link  804 at Sun Dec 10 07:03:46 2023, MaxMem=   536870912 cpu:               0.2 elap:               0.1
 (Enter /usr/site/hpc/x86_64/glibc-2.17/broadwell/gaussian/g16_a.03/pgi-16.5/g16/l913.exe)
 CIDS:  MDV=   536870912.
 IFCWin=0 IBDFC=1 NFBD=     0     0 NFCmp=     0     0 NFFFC=     0     0
 Using DD3R+UMP44R for 1st iteration.
 Using DD4RQ for 2nd and later iterations.
 Keep R2 and R3 ints in memory in symmetry-blocked form, NReq=865054.
 FoFCou: FMM=F IPFlag=           0 FMFlag=           0 FMFlg1=           0
         NFxFlg=           0 DoJE=F BraDBF=F KetDBF=F FulRan=T
         wScrn=  0.000000 ICntrl=       600 IOpCl=  0 I1Cent=           0 NGrid=           0
         NMat0=    1 NMatS0=    300 NMatT0=    0 NMatD0=    1 NMtDS0=    0 NMtDT0=    0
 Petite list used in FoFCou.
 CIDS: In Core Option IDoMem=           1.
 CCSD(T)
 =======
 Iterations=  50 Convergence= 0.100D-06
 Produce multiple copies of IABC intergrals
 Iteration Nr.   1
 **********************
 DD1Dir will call FoFMem   1 times, MxPair=        72
 NAB=    36 NAA=     0 NBB=     0.
 MP4(R+Q)= -0.73539940D-03
 Maximum subspace dimension=  5
 A-vector RMS=  5.8407037D-03 Max=  1.2920699D-02 conv= 1.00D-05.
 RLE energy=       -0.2346483964
 E3=       -0.53982762D-02        EUMP3=      -0.33887169851D+02
 E4(DQ)=   -0.59005859D-02        UMP4(DQ)=   -0.33893070437D+02
 E4(SDQ)=  -0.79776135D-02        UMP4(SDQ)=  -0.33895147465D+02
 VARIATIONAL ENERGIES WITH THE FIRST-ORDER WAVEFUNCTION:
 DE(Corr)= -0.23449480     E(Corr)=     -33.887628211    
 NORM(A)=   0.10417437D+01
 Iteration Nr.   2
 **********************
 DD1Dir will call FoFMem   1 times, MxPair=        72
 NAB=    36 NAA=     0 NBB=     0.
 A-vector RMS=  9.7838077D-04 Max=  2.6911054D-03 conv= 1.00D-05.
 RLE energy=       -0.2424466617
 DE(Corr)= -0.24051596     E(CORR)=     -33.893649376     Delta=-6.02D-03
 NORM(A)=   0.10455451D+01
 Iteration Nr.   3
 **********************
 DD1Dir will call FoFMem   1 times, MxPair=        72
 NAB=    36 NAA=     0 NBB=     0.
 A-vector RMS=  3.9518819D-04 Max=  9.5829423D-04 conv= 1.00D-05.
 RLE energy=       -0.2429992225
 DE(Corr)= -0.24254752     E(CORR)=     -33.895680937     Delta=-2.03D-03
 NORM(A)=   0.10461086D+01
 Iteration Nr.   4
 **********************
 DD1Dir will call FoFMem   1 times, MxPair=        72
 NAB=    36 NAA=     0 NBB=     0.
 A-vector RMS=  9.7858918D-05 Max=  2.6124209D-04 conv= 1.00D-05.
 RLE energy=       -0.2430479006
 DE(Corr)= -0.24301162     E(CORR)=     -33.896145038     Delta=-4.64D-04
 NORM(A)=   0.10461820D+01
 Iteration Nr.   5
 **********************
 DD1Dir will call FoFMem   1 times, MxPair=        72
 NAB=    36 NAA=     0 NBB=     0.
 A-vector RMS=  4.3760698D-05 Max=  1.4759690D-04 conv= 1.00D-05.
 RLE energy=       -0.2430471866
 DE(Corr)= -0.24304426     E(CORR)=     -33.896177678     Delta=-3.26D-05
 NORM(A)=   0.10461923D+01
 Iteration Nr.   6
 **********************
 DD1Dir will call FoFMem   1 times, MxPair=        72
 NAB=    36 NAA=     0 NBB=     0.
 A-vector RMS=  1.5610876D-05 Max=  5.4081571D-05 conv= 1.00D-05.
 RLE energy=       -0.2430440277
 DE(Corr)= -0.24304690     E(CORR)=     -33.896180316     Delta=-2.64D-06
 NORM(A)=   0.10461950D+01
 Iteration Nr.   7
 **********************
 DD1Dir will call FoFMem   1 times, MxPair=        72
 NAB=    36 NAA=     0 NBB=     0.
 A-vector RMS=  5.4167064D-06 Max=  1.9471478D-05 conv= 1.00D-05.
 RLE energy=       -0.2430459678
 DE(Corr)= -0.24304642     E(CORR)=     -33.896179837     Delta= 4.79D-07
 NORM(A)=   0.10461968D+01
 Iteration Nr.   8
 **********************
 DD1Dir will call FoFMem   1 times, MxPair=        72
 NAB=    36 NAA=     0 NBB=     0.
 A-vector RMS=  1.7056137D-06 Max=  6.6394637D-06 conv= 1.00D-05.
 RLE energy=       -0.2430459596
 DE(Corr)= -0.24304610     E(CORR)=     -33.896179517     Delta= 3.20D-07
 NORM(A)=   0.10461973D+01
 Iteration Nr.   9
 **********************
 DD1Dir will call FoFMem   1 times, MxPair=        72
 NAB=    36 NAA=     0 NBB=     0.
 A-vector RMS=  4.7843746D-07 Max=  1.9997096D-06 conv= 1.00D-05.
 RLE energy=       -0.2430461724
 DE(Corr)= -0.24304622     E(CORR)=     -33.896179637     Delta=-1.20D-07
 NORM(A)=   0.10461976D+01
 Iteration Nr.  10
 **********************
 DD1Dir will call FoFMem   1 times, MxPair=        72
 NAB=    36 NAA=     0 NBB=     0.
 A-vector RMS=  1.3956970D-07 Max=  5.4877795D-07 conv= 1.00D-05.
 RLE energy=       -0.2430463273
 DE(Corr)= -0.24304630     E(CORR)=     -33.896179715     Delta=-7.78D-08
 NORM(A)=   0.10461977D+01
 CI/CC converged in   10 iterations to DelEn=-7.78D-08 Conv= 1.00D-07 ErrA1= 1.40D-07 Conv= 1.00D-05
 Wavefunction amplitudes converged. E(Corr)=     -33.896179715    
 Largest amplitude= 5.48D-02
 IPart=  2 IA=    2   12.50% done.
 IPart=  3 IA=    3   24.17% done.
 IPart=  4 IA=    4   35.00% done.
 IPart=  4 IA=    5   45.00% done.
 IPart=  3 IA=    6   54.17% done.
 IPart=  1 IA=    7   62.50% done.
 IPart=  2 IA=    8   70.00% done.
 IPart=  4 IA=   10   82.50% done.
 IPart=  1 IA=   12   91.67% done.
 Time for triples=        0.26 seconds.
 T4(CCSD)= -0.31413338D-02
 T5(CCSD)=  0.53605669D-03
 CCSD(T)= -0.33898784992D+02
 Discarding MO integrals.
 Leave Link  913 at Sun Dec 10 07:03:46 2023, MaxMem=   536870912 cpu:               1.0 elap:               0.3
 (Enter /usr/site/hpc/x86_64/glibc-2.17/broadwell/gaussian/g16_a.03/pgi-16.5/g16/l601.exe)
 Copying SCF densities to generalized density rwf, IOpCl= 0 IROHF=0.

 **********************************************************************

            Population analysis using the SCF density.

 **********************************************************************

 Orbital symmetries:
       Occupied  (A') (A') (A') (A') (A') (A') (A") (A")
       Virtual   (A') (A') (A') (A') (A") (A") (A') (A') (A') (A')
                 (A') (A') (A') (A') (A') (A')
 The electronic state is 1-A'.
 Alpha  occ. eigenvalues --   -1.37225  -1.34538  -0.72951  -0.70091  -0.57065
 Alpha  occ. eigenvalues --   -0.54258  -0.51800  -0.49105
 Alpha virt. eigenvalues --    0.16872   0.23018   0.28908   0.32825   0.78652
 Alpha virt. eigenvalues --    0.81598   0.82814   0.84446   0.87763   0.89188
 Alpha virt. eigenvalues --    1.15423   1.18767   1.20530   1.33086   2.55436
 Alpha virt. eigenvalues --    2.70225
          Condensed to atoms (all electrons):
               1          2          3          4          5          6
     1  O    6.221835   0.266882   0.259705  -0.000420   0.000006   0.000143
     2  H    0.266882   0.368630  -0.023357   0.001971  -0.000021  -0.000087
     3  H    0.259705  -0.023357   0.402894   0.000006  -0.000000   0.000010
     4  O   -0.000420   0.001971   0.000006   6.218244   0.268137   0.259811
     5  H    0.000006  -0.000021  -0.000000   0.268137   0.370993  -0.022674
     6  H    0.000143  -0.000087   0.000010   0.259811  -0.022674   0.397178
 Mulliken charges:
               1
     1  O   -0.748152
     2  H    0.385983
     3  H    0.360742
     4  O   -0.747749
     5  H    0.383558
     6  H    0.365619
 Sum of Mulliken charges =  -0.00000
 Mulliken charges with hydrogens summed into heavy atoms:
               1
     1  O   -0.001427
     4  O    0.001427
 Electronic spatial extent (au):  <R**2>=            254.4177
 Charge=             -0.0000 electrons
 Dipole moment (field-independent basis, Debye):
    X=             -4.1254    Y=              3.3783    Z=              0.0000  Tot=              5.3322
 Quadrupole moment (field-independent basis, Debye-Ang):
   XX=            -11.1517   YY=             -9.2203   ZZ=            -14.9888
   XY=              2.5343   XZ=              0.0000   YZ=              0.0000
 Traceless Quadrupole moment (field-independent basis, Debye-Ang):
   XX=              0.6352   YY=              2.5666   ZZ=             -3.2019
   XY=              2.5343   XZ=              0.0000   YZ=              0.0000
 Octapole moment (field-independent basis, Debye-Ang**2):
  XXX=             -4.0496  YYY=             41.3996  ZZZ=              0.0000  XYY=            -16.0505
  XXY=              0.1249  XXZ=              0.0000  XZZ=             -0.7710  YZZ=              0.6623
  YYZ=              0.0000  XYZ=              0.0000
 Hexadecapole moment (field-independent basis, Debye-Ang**3):
 XXXX=            -12.6640 YYYY=           -227.9038 ZZZZ=            -12.2207 XXXY=              0.4620
 XXXZ=              0.0000 YYYX=             28.3380 YYYZ=              0.0000 ZZZX=              0.0000
 ZZZY=              0.0000 XXYY=            -46.2188 XXZZ=             -4.5373 YYZZ=            -60.9160
 XXYZ=              0.0000 YYXZ=              0.0000 ZZXY=             -0.1031
 N-N= 2.240029158845D+01 E-N=-1.263429639573D+02  KE= 2.677678034805D+01
 Symmetry A'   KE= 1.789272992350D+01
 Symmetry A"   KE= 8.884050424551D+00
 Leave Link  601 at Sun Dec 10 07:03:46 2023, MaxMem=   536870912 cpu:               0.1 elap:               0.0
 (Enter /usr/site/hpc/x86_64/glibc-2.17/broadwell/gaussian/g16_a.03/pgi-16.5/g16/l9999.exe)
 1\1\GINC-N044\SP\RCCSD(T)-FC\CEP-31G\H4O2\ROOT\10-Dec-2023\0\\#p CCSD(
 T)/CEP-31G\\H2O_H2O_2301\\0,1\O,0,0.,-0.009833,0.\H,0,-0.799571,-0.580
 965,0.\H,0,0.799571,-0.580965,0.\O,0,-3.154487,-2.262595,0.\H,0,-3.989
 7,-2.78021,0.\H,0,-2.393981,-2.884799,0.\\Version=ES64L-G16RevA.03\Sta
 te=1-A'\HF=-33.6531334\MP2=-33.8817716\MP3=-33.8871699\MP4D=-33.892335
 \MP4DQ=-33.8930704\MP4SDQ=-33.8951475\CCSD=-33.8961797\CCSD(T)=-33.898
 785\RMSD=6.246e-10\PG=CS [SG(H4O2)]\\@


 THEORY:  SUPPOSITION WHICH HAS SCIENTIFIC BASIS,
          BUT NOT EXPERIMENTALLY PROVEN.
 FACT:    A THEORY WHICH HAS BEEN PROVEN BY ENOUGH 
          MONEY TO PAY FOR THE EXPERIMENTS.

                          --  THE WIZARD OF ID
 Job cpu time:       0 days  0 hours  0 minutes  3.3 seconds.
 Elapsed time:       0 days  0 hours  0 minutes  1.0 seconds.
 File lengths (MBytes):  RWF=     72 Int=      0 D2E=      0 Chk=      8 Scr=      8
 Normal termination of Gaussian 16 at Sun Dec 10 07:03:46 2023.
