 Entering Gaussian System, Link 0=g16
 Input=H2O_H2O_507.com
 Output=H2O_H2O_507.log
 Initial command:
 /usr/site/hpc/x86_64/glibc-2.17/broadwell/gaussian/g16_a.03/pgi-16.5/g16/l1.exe "/gpfs/gpfs1/scratch/c7441090/OH Coord/Gau-1633590.inp" -scrdir="/gpfs/gpfs1/scratch/c7441090/OH Coord/"
 Entering Link 1 = /usr/site/hpc/x86_64/glibc-2.17/broadwell/gaussian/g16_a.03/pgi-16.5/g16/l1.exe PID=   1633591.
  
 Copyright (c) 1988,1990,1992,1993,1995,1998,2003,2009,2016,
            Gaussian, Inc.  All Rights Reserved.
  
 This is part of the Gaussian(R) 16 program.  It is based on
 the Gaussian(R) 09 system (copyright 2009, Gaussian, Inc.),
 the Gaussian(R) 03 system (copyright 2003, Gaussian, Inc.),
 the Gaussian(R) 98 system (copyright 1998, Gaussian, Inc.),
 the Gaussian(R) 94 system (copyright 1995, Gaussian, Inc.),
 the Gaussian 92(TM) system (copyright 1992, Gaussian, Inc.),
 the Gaussian 90(TM) system (copyright 1990, Gaussian, Inc.),
 the Gaussian 88(TM) system (copyright 1988, Gaussian, Inc.),
 the Gaussian 86(TM) system (copyright 1986, Carnegie Mellon
 University), and the Gaussian 82(TM) system (copyright 1983,
 Carnegie Mellon University). Gaussian is a federally registered
 trademark of Gaussian, Inc.
  
 This software contains proprietary and confidential information,
 including trade secrets, belonging to Gaussian, Inc.
  
 This software is provided under written license and may be
 used, copied, transmitted, or stored only in accord with that
 written license.
  
 The following legend is applicable only to US Government
 contracts under FAR:
  
                    RESTRICTED RIGHTS LEGEND
  
 Use, reproduction and disclosure by the US Government is
 subject to restrictions as set forth in subparagraphs (a)
 and (c) of the Commercial Computer Software - Restricted
 Rights clause in FAR 52.227-19.
  
 Gaussian, Inc.
 340 Quinnipiac St., Bldg. 40, Wallingford CT 06492
  
  
 ---------------------------------------------------------------
 Warning -- This program may not be used in any manner that
 competes with the business of Gaussian, Inc. or will provide
 assistance to any competitor of Gaussian, Inc.  The licensee
 of this program is prohibited from giving any competitor of
 Gaussian, Inc. access to this program.  By using this program,
 the user acknowledges that Gaussian, Inc. is engaged in the
 business of creating and licensing software in the field of
 computational chemistry and represents and warrants to the
 licensee that it is not a competitor of Gaussian, Inc. and that
 it will not use this program in any manner prohibited above.
 ---------------------------------------------------------------
  

 Cite this work as:
 Gaussian 16, Revision A.03,
 M. J. Frisch, G. W. Trucks, H. B. Schlegel, G. E. Scuseria, 
 M. A. Robb, J. R. Cheeseman, G. Scalmani, V. Barone, 
 G. A. Petersson, H. Nakatsuji, X. Li, M. Caricato, A. V. Marenich, 
 J. Bloino, B. G. Janesko, R. Gomperts, B. Mennucci, H. P. Hratchian, 
 J. V. Ortiz, A. F. Izmaylov, J. L. Sonnenberg, D. Williams-Young, 
 F. Ding, F. Lipparini, F. Egidi, J. Goings, B. Peng, A. Petrone, 
 T. Henderson, D. Ranasinghe, V. G. Zakrzewski, J. Gao, N. Rega, 
 G. Zheng, W. Liang, M. Hada, M. Ehara, K. Toyota, R. Fukuda, 
 J. Hasegawa, M. Ishida, T. Nakajima, Y. Honda, O. Kitao, H. Nakai, 
 T. Vreven, K. Throssell, J. A. Montgomery, Jr., J. E. Peralta, 
 F. Ogliaro, M. J. Bearpark, J. J. Heyd, E. N. Brothers, K. N. Kudin, 
 V. N. Staroverov, T. A. Keith, R. Kobayashi, J. Normand, 
 K. Raghavachari, A. P. Rendell, J. C. Burant, S. S. Iyengar, 
 J. Tomasi, M. Cossi, J. M. Millam, M. Klene, C. Adamo, R. Cammi, 
 J. W. Ochterski, R. L. Martin, K. Morokuma, O. Farkas, 
 J. B. Foresman, and D. J. Fox, Gaussian, Inc., Wallingford CT, 2016.
 
 ******************************************
 Gaussian 16:  ES64L-G16RevA.03 25-Dec-2016
                10-Dec-2023 
 ******************************************
 %NProcShared=4
 Will use up to    4 processors via shared memory.
 %Mem=4GB
 %Chk=H2O_H2O_507.chk
 ------------------
 #p CCSD(T)/CEP-31G
 ------------------
 1/38=1,172=1/1;
 2/12=2,17=6,18=5,40=1/2;
 3/5=9,6=1,11=9,25=1,30=1/1,2,3;
 4//1;
 5/5=2,38=5/2;
 8/6=4,9=120000,10=1/1,4;
 9/5=7,14=2/13;
 6/7=2,8=2,9=2,10=2/1;
 99/5=1,9=1/99;
 Leave Link    1 at Sun Dec 10 06:28:02 2023, MaxMem=   536870912 cpu:               0.2 elap:               0.1
 (Enter /usr/site/hpc/x86_64/glibc-2.17/broadwell/gaussian/g16_a.03/pgi-16.5/g16/l101.exe)
 -----------
 H2O_H2O_507
 -----------
 Symbolic Z-matrix:
 Charge =  0 Multiplicity = 1
 O                     0.       -0.00983   0. 
 H                    -0.79957  -0.58097   0. 
 H                     0.79957  -0.58097   0. 
 O                    -1.98971  -1.42696   0. 
 H                    -2.95943  -1.58555   0. 
 H                    -1.5252   -2.29283   0. 
 
 ITRead=  0  0  0  0  0  0
 MicOpt= -1 -1 -1 -1 -1 -1
 NAtoms=      6 NQM=        6 NQMF=       0 NMMI=      0 NMMIF=      0
                NMic=       0 NMicF=      0.
                    Isotopes and Nuclear Properties:
 (Nuclear quadrupole moments (NQMom) in fm**2, nuclear magnetic moments (NMagM)
  in nuclear magnetons)

  Atom         1           2           3           4           5           6
 IAtWgt=          16           1           1          16           1           1
 AtmWgt=  15.9949146   1.0078250   1.0078250  15.9949146   1.0078250   1.0078250
 NucSpn=           0           1           1           0           1           1
 AtZEff=  -0.0000000  -0.0000000  -0.0000000  -0.0000000  -0.0000000  -0.0000000
 NQMom=    0.0000000   0.0000000   0.0000000   0.0000000   0.0000000   0.0000000
 NMagM=    0.0000000   2.7928460   2.7928460   0.0000000   2.7928460   2.7928460
 AtZNuc=   8.0000000   1.0000000   1.0000000   8.0000000   1.0000000   1.0000000
 Leave Link  101 at Sun Dec 10 06:28:02 2023, MaxMem=   536870912 cpu:               0.3 elap:               0.1
 (Enter /usr/site/hpc/x86_64/glibc-2.17/broadwell/gaussian/g16_a.03/pgi-16.5/g16/l202.exe)
                          Input orientation:                          
 ---------------------------------------------------------------------
 Center     Atomic      Atomic             Coordinates (Angstroms)
 Number     Number       Type             X           Y           Z
 ---------------------------------------------------------------------
      1          8           0        0.000000   -0.009833    0.000000
      2          1           0       -0.799571   -0.580965    0.000000
      3          1           0        0.799571   -0.580965    0.000000
      4          8           0       -1.989712   -1.426959    0.000000
      5          1           0       -2.959431   -1.585550    0.000000
      6          1           0       -1.525203   -2.292833    0.000000
 ---------------------------------------------------------------------
                    Distance matrix (angstroms):
                    1          2          3          4          5
     1  O    0.000000
     2  H    0.982601   0.000000
     3  H    0.982601   1.599142   0.000000
     4  O    2.442785   1.460185   2.914757   0.000000
     5  H    3.352777   2.382055   3.890924   0.982602   0.000000
     6  H    2.745603   1.859310   2.887051   0.982602   1.599143
                    6
     6  H    0.000000
 Stoichiometry    H4O2
 Framework group  CS[SG(H4O2)]
 Deg. of freedom     9
 Full point group                 CS      NOp   2
 Largest Abelian subgroup         CS      NOp   2
 Largest concise Abelian subgroup C1      NOp   1
                         Standard orientation:                         
 ---------------------------------------------------------------------
 Center     Atomic      Atomic             Coordinates (Angstroms)
 Number     Number       Type             X           Y           Z
 ---------------------------------------------------------------------
      1          8           0        0.073589    1.304817    0.000000
      2          1           0        0.072240    0.322216    0.000000
      3          1           0       -0.855466    1.624759    0.000000
      4          8           0        0.073589   -1.137968    0.000000
      5          1           0        0.506972   -2.019833    0.000000
      6          1           0       -0.901163   -1.261931    0.000000
 ---------------------------------------------------------------------
 Rotational constants (GHZ):         261.4392471           8.9604986           8.6635659
 Leave Link  202 at Sun Dec 10 06:28:02 2023, MaxMem=   536870912 cpu:               0.1 elap:               0.0
 (Enter /usr/site/hpc/x86_64/glibc-2.17/broadwell/gaussian/g16_a.03/pgi-16.5/g16/l301.exe)
 Standard basis: CEP-31G (6D, 10F)
 Ernie: Thresh=  0.10000D-02 Tol=  0.10000D-05 Strict=F.
 There are    20 symmetry adapted cartesian basis functions of A'  symmetry.
 There are     4 symmetry adapted cartesian basis functions of A"  symmetry.
 There are    20 symmetry adapted basis functions of A'  symmetry.
 There are     4 symmetry adapted basis functions of A"  symmetry.
    24 basis functions,    48 primitive gaussians,    24 cartesian basis functions
     8 alpha electrons        8 beta electrons
       nuclear repulsion energy        27.5787875040 Hartrees.
 IExCor=    0 DFT=F Ex=HF Corr=None ExCW=0 ScaHFX=  1.000000
 ScaDFX=  1.000000  1.000000  1.000000  1.000000 ScalE2=  1.000000  1.000000
 IRadAn=      5 IRanWt=     -1 IRanGd=            0 ICorTp=0 IEmpDi=  4
 NAtoms=    6 NActive=    6 NUniq=    6 SFac= 1.00D+00 NAtFMM=   60 NAOKFM=F Big=F
 Integral buffers will be    131072 words long.
 Raffenetti 1 integral format.
 Two-electron integral symmetry is turned on.
 Leave Link  301 at Sun Dec 10 06:28:03 2023, MaxMem=   536870912 cpu:               0.2 elap:               0.1
 (Enter /usr/site/hpc/x86_64/glibc-2.17/broadwell/gaussian/g16_a.03/pgi-16.5/g16/l302.exe)
 NPDir=0 NMtPBC=     1 NCelOv=     1 NCel=       1 NClECP=     1 NCelD=      1
         NCelK=      1 NCelE2=     1 NClLst=     1 CellRange=     0.0.
 One-electron integrals computed using PRISM.
 One-electron integral symmetry used in STVInt
   2 Symmetry operations used in ECPInt.
 ECPInt:  NShTT=      78 NPrTT=     318 LenC2=      79 LenP2D=     298.
 LDataN:  DoStor=T MaxTD1= 2 Len=   12
 NBasis=    24 RedAO= T EigKep=  7.01D-03  NBF=    20     4
 NBsUse=    24 1.00D-06 EigRej= -1.00D+00 NBFU=    20     4
 Leave Link  302 at Sun Dec 10 06:28:03 2023, MaxMem=   536870912 cpu:               0.3 elap:               0.1
 (Enter /usr/site/hpc/x86_64/glibc-2.17/broadwell/gaussian/g16_a.03/pgi-16.5/g16/l303.exe)
 DipDrv:  MaxL=1.
 Leave Link  303 at Sun Dec 10 06:28:03 2023, MaxMem=   536870912 cpu:               0.1 elap:               0.0
 (Enter /usr/site/hpc/x86_64/glibc-2.17/broadwell/gaussian/g16_a.03/pgi-16.5/g16/l401.exe)
 ExpMin= 1.78D-01 ExpMax= 1.92D+01 ExpMxC= 1.92D+01 IAcc=3 IRadAn=         5 AccDes= 0.00D+00
 Harris functional with IExCor=  205 and IRadAn=       5 diagonalized for initial guess.
 HarFok:  IExCor=  205 AccDes= 0.00D+00 IRadAn=         5 IDoV= 1 UseB2=F ITyADJ=14
 ICtDFT=  3500011 ScaDFX=  1.000000  1.000000  1.000000  1.000000
 FoFCou: FMM=F IPFlag=           0 FMFlag=      100000 FMFlg1=           0
         NFxFlg=           0 DoJE=T BraDBF=F KetDBF=T FulRan=T
         wScrn=  0.000000 ICntrl=       500 IOpCl=  0 I1Cent=   200000004 NGrid=           0
         NMat0=    1 NMatS0=      1 NMatT0=    0 NMatD0=    1 NMtDS0=    0 NMtDT0=    0
 Petite list used in FoFCou.
 Harris En= -34.4843992148928    
 JPrj=0 DoOrth=F DoCkMO=F.
 Initial guess orbital symmetries:
       Occupied  (A') (A') (A') (A') (A') (A') (A") (A")
       Virtual   (A') (A') (A') (A') (A") (A') (A') (A") (A') (A')
                 (A') (A') (A') (A') (A') (A')
 The electronic state of the initial guess is 1-A'.
 Leave Link  401 at Sun Dec 10 06:28:03 2023, MaxMem=   536870912 cpu:               0.4 elap:               0.1
 (Enter /usr/site/hpc/x86_64/glibc-2.17/broadwell/gaussian/g16_a.03/pgi-16.5/g16/l502.exe)
 Keep R1 ints in memory in symmetry-blocked form, NReq=852759.
 FoFCou: FMM=F IPFlag=           0 FMFlag=           0 FMFlg1=           0
         NFxFlg=           0 DoJE=F BraDBF=F KetDBF=F FulRan=T
         wScrn=  0.000000 ICntrl=       600 IOpCl=  0 I1Cent=           0 NGrid=           0
         NMat0=    1 NMatS0=    300 NMatT0=    0 NMatD0=    1 NMtDS0=    0 NMtDT0=    0
 Petite list used in FoFCou.
 Closed shell SCF:
 Using DIIS extrapolation, IDIIS=  1040.
 NGot=   536870912 LenX=   536840576 LenY=   536839559
 Requested convergence on RMS density matrix=1.00D-08 within 128 cycles.
 Requested convergence on MAX density matrix=1.00D-06.
 Requested convergence on             energy=1.00D-06.
 No special actions if energy rises.

 Cycle   1  Pass 1  IDiag  1:
 E= -33.5561001175397    
 DIIS: error= 6.03D-02 at cycle   1 NSaved=   1.
 NSaved= 1 IEnMin= 1 EnMin= -33.5561001175397     IErMin= 1 ErrMin= 6.03D-02
 ErrMax= 6.03D-02  0.00D+00 EMaxC= 1.00D-01 BMatC= 9.67D-02 BMatP= 9.67D-02
 IDIUse=3 WtCom= 3.97D-01 WtEn= 6.03D-01
 Coeff-Com:  0.100D+01
 Coeff-En:   0.100D+01
 Coeff:      0.100D+01
 Gap=     0.524 Goal=   None    Shift=    0.000
 GapD=    0.524 DampG=2.000 DampE=0.500 DampFc=1.0000 IDamp=-1.
 RMSDP=1.81D-02 MaxDP=1.35D-01              OVMax= 1.07D-01

 Cycle   2  Pass 1  IDiag  1:
 E= -33.6198770733091     Delta-E=       -0.063776955769 Rises=F Damp=F
 DIIS: error= 3.39D-02 at cycle   2 NSaved=   2.
 NSaved= 2 IEnMin= 2 EnMin= -33.6198770733091     IErMin= 2 ErrMin= 3.39D-02
 ErrMax= 3.39D-02  0.00D+00 EMaxC= 1.00D-01 BMatC= 3.30D-02 BMatP= 9.67D-02
 IDIUse=3 WtCom= 6.61D-01 WtEn= 3.39D-01
 Coeff-Com:  0.365D+00 0.635D+00
 Coeff-En:   0.404D-01 0.960D+00
 Coeff:      0.255D+00 0.745D+00
 Gap=     0.620 Goal=   None    Shift=    0.000
 RMSDP=6.72D-03 MaxDP=6.00D-02 DE=-6.38D-02 OVMax= 3.85D-02

 Cycle   3  Pass 1  IDiag  1:
 E= -33.6460544840991     Delta-E=       -0.026177410790 Rises=F Damp=F
 DIIS: error= 6.90D-03 at cycle   3 NSaved=   3.
 NSaved= 3 IEnMin= 3 EnMin= -33.6460544840991     IErMin= 3 ErrMin= 6.90D-03
 ErrMax= 6.90D-03  0.00D+00 EMaxC= 1.00D-01 BMatC= 1.02D-03 BMatP= 3.30D-02
 IDIUse=3 WtCom= 9.31D-01 WtEn= 6.90D-02
 Coeff-Com: -0.989D-01 0.170D-01 0.108D+01
 Coeff-En:   0.000D+00 0.000D+00 0.100D+01
 Coeff:     -0.921D-01 0.158D-01 0.108D+01
 Gap=     0.608 Goal=   None    Shift=    0.000
 RMSDP=1.49D-03 MaxDP=1.15D-02 DE=-2.62D-02 OVMax= 9.23D-03

 Cycle   4  Pass 1  IDiag  1:
 E= -33.6470467782488     Delta-E=       -0.000992294150 Rises=F Damp=F
 DIIS: error= 5.91D-04 at cycle   4 NSaved=   4.
 NSaved= 4 IEnMin= 4 EnMin= -33.6470467782488     IErMin= 4 ErrMin= 5.91D-04
 ErrMax= 5.91D-04  0.00D+00 EMaxC= 1.00D-01 BMatC= 9.39D-06 BMatP= 1.02D-03
 IDIUse=3 WtCom= 9.94D-01 WtEn= 5.91D-03
 Coeff-Com: -0.127D-01-0.226D-01 0.342D-01 0.100D+01
 Coeff-En:   0.000D+00 0.000D+00 0.000D+00 0.100D+01
 Coeff:     -0.126D-01-0.225D-01 0.340D-01 0.100D+01
 Gap=     0.612 Goal=   None    Shift=    0.000
 RMSDP=2.44D-04 MaxDP=1.93D-03 DE=-9.92D-04 OVMax= 1.08D-03

 Cycle   5  Pass 1  IDiag  1:
 E= -33.6470614733521     Delta-E=       -0.000014695103 Rises=F Damp=F
 DIIS: error= 1.89D-04 at cycle   5 NSaved=   5.
 NSaved= 5 IEnMin= 5 EnMin= -33.6470614733521     IErMin= 5 ErrMin= 1.89D-04
 ErrMax= 1.89D-04  0.00D+00 EMaxC= 1.00D-01 BMatC= 1.51D-06 BMatP= 9.39D-06
 IDIUse=3 WtCom= 9.98D-01 WtEn= 1.89D-03
 Coeff-Com:  0.135D-01-0.660D-02-0.164D+00 0.223D+00 0.933D+00
 Coeff-En:   0.000D+00 0.000D+00 0.000D+00 0.000D+00 0.100D+01
 Coeff:      0.135D-01-0.659D-02-0.163D+00 0.223D+00 0.934D+00
 Gap=     0.611 Goal=   None    Shift=    0.000
 RMSDP=9.05D-05 MaxDP=6.25D-04 DE=-1.47D-05 OVMax= 4.80D-04

 Cycle   6  Pass 1  IDiag  1:
 E= -33.6470635702176     Delta-E=       -0.000002096865 Rises=F Damp=F
 DIIS: error= 3.84D-05 at cycle   6 NSaved=   6.
 NSaved= 6 IEnMin= 6 EnMin= -33.6470635702176     IErMin= 6 ErrMin= 3.84D-05
 ErrMax= 3.84D-05  0.00D+00 EMaxC= 1.00D-01 BMatC= 2.32D-08 BMatP= 1.51D-06
 IDIUse=1 WtCom= 1.00D+00 WtEn= 0.00D+00
 Coeff-Com: -0.333D-02 0.214D-02 0.428D-01-0.972D-01-0.235D+00 0.129D+01
 Coeff:     -0.333D-02 0.214D-02 0.428D-01-0.972D-01-0.235D+00 0.129D+01
 Gap=     0.612 Goal=   None    Shift=    0.000
 RMSDP=1.63D-05 MaxDP=1.42D-04 DE=-2.10D-06 OVMax= 9.81D-05

 Cycle   7  Pass 1  IDiag  1:
 E= -33.6470636268545     Delta-E=       -0.000000056637 Rises=F Damp=F
 DIIS: error= 4.82D-06 at cycle   7 NSaved=   7.
 NSaved= 7 IEnMin= 7 EnMin= -33.6470636268545     IErMin= 7 ErrMin= 4.82D-06
 ErrMax= 4.82D-06  0.00D+00 EMaxC= 1.00D-01 BMatC= 6.35D-10 BMatP= 2.32D-08
 IDIUse=1 WtCom= 1.00D+00 WtEn= 0.00D+00
 Coeff-Com:  0.911D-03-0.555D-03-0.117D-01 0.295D-01 0.617D-01-0.448D+00
 Coeff-Com:  0.137D+01
 Coeff:      0.911D-03-0.555D-03-0.117D-01 0.295D-01 0.617D-01-0.448D+00
 Coeff:      0.137D+01
 Gap=     0.612 Goal=   None    Shift=    0.000
 RMSDP=2.70D-06 MaxDP=1.45D-05 DE=-5.66D-08 OVMax= 2.34D-05

 Cycle   8  Pass 1  IDiag  1:
 E= -33.6470636286195     Delta-E=       -0.000000001765 Rises=F Damp=F
 DIIS: error= 1.00D-06 at cycle   8 NSaved=   8.
 NSaved= 8 IEnMin= 8 EnMin= -33.6470636286195     IErMin= 8 ErrMin= 1.00D-06
 ErrMax= 1.00D-06  0.00D+00 EMaxC= 1.00D-01 BMatC= 2.69D-11 BMatP= 6.35D-10
 IDIUse=1 WtCom= 1.00D+00 WtEn= 0.00D+00
 Coeff-Com: -0.527D-04 0.881D-05 0.596D-03-0.206D-02-0.157D-02 0.355D-01
 Coeff-Com: -0.281D+00 0.125D+01
 Coeff:     -0.527D-04 0.881D-05 0.596D-03-0.206D-02-0.157D-02 0.355D-01
 Coeff:     -0.281D+00 0.125D+01
 Gap=     0.612 Goal=   None    Shift=    0.000
 RMSDP=5.20D-07 MaxDP=3.24D-06 DE=-1.76D-09 OVMax= 4.79D-06

 Cycle   9  Pass 1  IDiag  1:
 E= -33.6470636286911     Delta-E=       -0.000000000072 Rises=F Damp=F
 DIIS: error= 2.01D-07 at cycle   9 NSaved=   9.
 NSaved= 9 IEnMin= 9 EnMin= -33.6470636286911     IErMin= 9 ErrMin= 2.01D-07
 ErrMax= 2.01D-07  0.00D+00 EMaxC= 1.00D-01 BMatC= 1.18D-12 BMatP= 2.69D-11
 IDIUse=1 WtCom= 1.00D+00 WtEn= 0.00D+00
 Coeff-Com:  0.926D-05 0.451D-05-0.738D-04 0.273D-03-0.319D-03-0.418D-02
 Coeff-Com:  0.685D-01-0.484D+00 0.142D+01
 Coeff:      0.926D-05 0.451D-05-0.738D-04 0.273D-03-0.319D-03-0.418D-02
 Coeff:      0.685D-01-0.484D+00 0.142D+01
 Gap=     0.612 Goal=   None    Shift=    0.000
 RMSDP=1.51D-07 MaxDP=7.36D-07 DE=-7.17D-11 OVMax= 1.26D-06

 Cycle  10  Pass 1  IDiag  1:
 E= -33.6470636286947     Delta-E=       -0.000000000004 Rises=F Damp=F
 DIIS: error= 2.60D-08 at cycle  10 NSaved=  10.
 NSaved=10 IEnMin=10 EnMin= -33.6470636286947     IErMin=10 ErrMin= 2.60D-08
 ErrMax= 2.60D-08  0.00D+00 EMaxC= 1.00D-01 BMatC= 1.85D-14 BMatP= 1.18D-12
 IDIUse=1 WtCom= 1.00D+00 WtEn= 0.00D+00
 Coeff-Com: -0.559D-06-0.213D-05-0.335D-05-0.360D-05 0.196D-03-0.420D-04
 Coeff-Com: -0.117D-01 0.105D+00-0.402D+00 0.131D+01
 Coeff:     -0.559D-06-0.213D-05-0.335D-05-0.360D-05 0.196D-03-0.420D-04
 Coeff:     -0.117D-01 0.105D+00-0.402D+00 0.131D+01
 Gap=     0.612 Goal=   None    Shift=    0.000
 RMSDP=2.28D-08 MaxDP=1.28D-07 DE=-3.60D-12 OVMax= 1.70D-07

 Cycle  11  Pass 1  IDiag  1:
 E= -33.6470636286948     Delta-E=       -0.000000000000 Rises=F Damp=F
 DIIS: error= 4.25D-09 at cycle  11 NSaved=  11.
 NSaved=11 IEnMin=11 EnMin= -33.6470636286948     IErMin=11 ErrMin= 4.25D-09
 ErrMax= 4.25D-09  0.00D+00 EMaxC= 1.00D-01 BMatC= 3.45D-16 BMatP= 1.85D-14
 IDIUse=1 WtCom= 1.00D+00 WtEn= 0.00D+00
 Coeff-Com: -0.733D-07 0.604D-06 0.334D-05-0.622D-05-0.616D-04 0.123D-03
 Coeff-Com:  0.226D-02-0.237D-01 0.990D-01-0.415D+00 0.134D+01
 Coeff:     -0.733D-07 0.604D-06 0.334D-05-0.622D-05-0.616D-04 0.123D-03
 Coeff:      0.226D-02-0.237D-01 0.990D-01-0.415D+00 0.134D+01
 Gap=     0.612 Goal=   None    Shift=    0.000
 RMSDP=3.15D-09 MaxDP=2.30D-08 DE=-2.84D-14 OVMax= 2.47D-08

 SCF Done:  E(RHF) =  -33.6470636287     A.U. after   11 cycles
            NFock= 11  Conv=0.31D-08     -V/T= 2.2472
 KE= 2.697806735812D+01 PE=-1.368893777190D+02 EE= 4.868545922820D+01
 Leave Link  502 at Sun Dec 10 06:28:03 2023, MaxMem=   536870912 cpu:               0.3 elap:               0.1
 (Enter /usr/site/hpc/x86_64/glibc-2.17/broadwell/gaussian/g16_a.03/pgi-16.5/g16/l801.exe)
 Windowed orbitals will be sorted by symmetry type.
 Range of M.O.s used for correlation:     1    24
 NBasis=    24 NAE=     8 NBE=     8 NFC=     0 NFV=     0
 NROrb=     24 NOA=     8 NOB=     8 NVA=    16 NVB=    16
 Leave Link  801 at Sun Dec 10 06:28:03 2023, MaxMem=   536870912 cpu:               0.1 elap:               0.0
 (Enter /usr/site/hpc/x86_64/glibc-2.17/broadwell/gaussian/g16_a.03/pgi-16.5/g16/l804.exe)
 Closed-shell transformation, MDV=   536870912 ITran=4 ISComp=2.
 Unit  1 TFree=       1025975 TCopy=        210600.
 Semi-Direct transformation.
 ModeAB=           2 MOrb=             8 LenV=     536741538
 LASXX=        22470 LTotXX=       22470 LenRXX=       22470
 LTotAB=       26208 MaxLAS=       57600 LenRXY=       57600
 NonZer=       62208 LenScr=      524288 LnRSAI=           0
 LnScr1=           0 LExtra=           0 Total=       604358
 MaxDsk=          -1 SrtSym=           F ITran=            4
 DoSDTr:  NPSUse=  4
 JobTyp=0 Pass  1:  I=   1 to   8.
 (rs|ai) integrals will be sorted in core.
 Complete sort for first half transformation.
 First half transformation complete.
 Complete sort for second half transformation.
 Second half transformation complete.
 Spin components of T(2) and E(2):
     alpha-alpha T2 =       0.9206160023D-02 E2=     -0.2658672367D-01
     alpha-beta  T2 =       0.5870523270D-01 E2=     -0.1756242539D+00
     beta-beta   T2 =       0.9206160023D-02 E2=     -0.2658672367D-01
 ANorm=    0.1037842740D+01
 E2 =    -0.2287977012D+00 EUMP2 =    -0.33875861329941D+02
 Leave Link  804 at Sun Dec 10 06:28:03 2023, MaxMem=   536870912 cpu:               0.2 elap:               0.1
 (Enter /usr/site/hpc/x86_64/glibc-2.17/broadwell/gaussian/g16_a.03/pgi-16.5/g16/l913.exe)
 CIDS:  MDV=   536870912.
 IFCWin=0 IBDFC=1 NFBD=     0     0 NFCmp=     0     0 NFFFC=     0     0
 Using DD3R+UMP44R for 1st iteration.
 Using DD4RQ for 2nd and later iterations.
 Keep R2 and R3 ints in memory in symmetry-blocked form, NReq=865367.
 FoFCou: FMM=F IPFlag=           0 FMFlag=           0 FMFlg1=           0
         NFxFlg=           0 DoJE=F BraDBF=F KetDBF=F FulRan=T
         wScrn=  0.000000 ICntrl=       600 IOpCl=  0 I1Cent=           0 NGrid=           0
         NMat0=    1 NMatS0=    300 NMatT0=    0 NMatD0=    1 NMtDS0=    0 NMtDT0=    0
 Petite list used in FoFCou.
 CIDS: In Core Option IDoMem=           1.
 CCSD(T)
 =======
 Iterations=  50 Convergence= 0.100D-06
 Produce multiple copies of IABC intergrals
 Iteration Nr.   1
 **********************
 DD1Dir will call FoFMem   1 times, MxPair=        72
 NAB=    36 NAA=     0 NBB=     0.
 MP4(R+Q)= -0.63322637D-03
 Maximum subspace dimension=  5
 A-vector RMS=  6.0943418D-03 Max=  1.3357003D-02 conv= 1.00D-05.
 RLE energy=       -0.2335076653
 E3=       -0.42610466D-02        EUMP3=      -0.33880122377D+02
 E4(DQ)=   -0.55892982D-02        UMP4(DQ)=   -0.33885711675D+02
 E4(SDQ)=  -0.78590860D-02        UMP4(SDQ)=  -0.33887981463D+02
 VARIATIONAL ENERGIES WITH THE FIRST-ORDER WAVEFUNCTION:
 DE(Corr)= -0.23341301     E(Corr)=     -33.880476640    
 NORM(A)=   0.10408136D+01
 Iteration Nr.   2
 **********************
 DD1Dir will call FoFMem   1 times, MxPair=        72
 NAB=    36 NAA=     0 NBB=     0.
 A-vector RMS=  9.5517223D-04 Max=  2.1480753D-03 conv= 1.00D-05.
 RLE energy=       -0.2411481493
 DE(Corr)= -0.23937830     E(CORR)=     -33.886441927     Delta=-5.97D-03
 NORM(A)=   0.10444592D+01
 Iteration Nr.   3
 **********************
 DD1Dir will call FoFMem   1 times, MxPair=        72
 NAB=    36 NAA=     0 NBB=     0.
 A-vector RMS=  4.7432015D-04 Max=  1.7415682D-03 conv= 1.00D-05.
 RLE energy=       -0.2416866537
 DE(Corr)= -0.24123109     E(CORR)=     -33.888294716     Delta=-1.85D-03
 NORM(A)=   0.10450187D+01
 Iteration Nr.   4
 **********************
 DD1Dir will call FoFMem   1 times, MxPair=        72
 NAB=    36 NAA=     0 NBB=     0.
 A-vector RMS=  1.0008448D-04 Max=  4.5864689D-04 conv= 1.00D-05.
 RLE energy=       -0.2417386921
 DE(Corr)= -0.24170382     E(CORR)=     -33.888767450     Delta=-4.73D-04
 NORM(A)=   0.10450896D+01
 Iteration Nr.   5
 **********************
 DD1Dir will call FoFMem   1 times, MxPair=        72
 NAB=    36 NAA=     0 NBB=     0.
 A-vector RMS=  6.0130248D-05 Max=  2.7256749D-04 conv= 1.00D-05.
 RLE energy=       -0.2417411744
 DE(Corr)= -0.24173598     E(CORR)=     -33.888799608     Delta=-3.22D-05
 NORM(A)=   0.10451023D+01
 Iteration Nr.   6
 **********************
 DD1Dir will call FoFMem   1 times, MxPair=        72
 NAB=    36 NAA=     0 NBB=     0.
 A-vector RMS=  2.0375225D-05 Max=  7.5775580D-05 conv= 1.00D-05.
 RLE energy=       -0.2417365766
 DE(Corr)= -0.24173989     E(CORR)=     -33.888803522     Delta=-3.91D-06
 NORM(A)=   0.10451051D+01
 Iteration Nr.   7
 **********************
 DD1Dir will call FoFMem   1 times, MxPair=        72
 NAB=    36 NAA=     0 NBB=     0.
 A-vector RMS=  7.9758628D-06 Max=  2.4836426D-05 conv= 1.00D-05.
 RLE energy=       -0.2417379875
 DE(Corr)= -0.24174002     E(CORR)=     -33.888803648     Delta=-1.26D-07
 NORM(A)=   0.10451072D+01
 Iteration Nr.   8
 **********************
 DD1Dir will call FoFMem   1 times, MxPair=        72
 NAB=    36 NAA=     0 NBB=     0.
 A-vector RMS=  3.2426861D-06 Max=  1.4819182D-05 conv= 1.00D-05.
 RLE energy=       -0.2417391573
 DE(Corr)= -0.24173933     E(CORR)=     -33.888802956     Delta= 6.92D-07
 NORM(A)=   0.10451085D+01
 Iteration Nr.   9
 **********************
 DD1Dir will call FoFMem   1 times, MxPair=        72
 NAB=    36 NAA=     0 NBB=     0.
 A-vector RMS=  6.6167436D-07 Max=  2.0225560D-06 conv= 1.00D-05.
 RLE energy=       -0.2417394850
 DE(Corr)= -0.24173952     E(CORR)=     -33.888803149     Delta=-1.93D-07
 NORM(A)=   0.10451089D+01
 Iteration Nr.  10
 **********************
 DD1Dir will call FoFMem   1 times, MxPair=        72
 NAB=    36 NAA=     0 NBB=     0.
 A-vector RMS=  1.9567405D-07 Max=  7.9145109D-07 conv= 1.00D-05.
 RLE energy=       -0.2417397226
 DE(Corr)= -0.24173968     E(CORR)=     -33.888803311     Delta=-1.62D-07
 NORM(A)=   0.10451091D+01
 Iteration Nr.  11
 **********************
 DD1Dir will call FoFMem   1 times, MxPair=        72
 NAB=    36 NAA=     0 NBB=     0.
 A-vector RMS=  7.6725521D-08 Max=  2.9550363D-07 conv= 1.00D-05.
 RLE energy=       -0.2417397789
 DE(Corr)= -0.24173976     E(CORR)=     -33.888803387     Delta=-7.64D-08
 NORM(A)=   0.10451091D+01
 CI/CC converged in   11 iterations to DelEn=-7.64D-08 Conv= 1.00D-07 ErrA1= 7.67D-08 Conv= 1.00D-05
 Wavefunction amplitudes converged. E(Corr)=     -33.888803387    
 Largest amplitude= 4.78D-02
 IPart=  2 IA=    2   12.50% done.
 IPart=  3 IA=    3   24.17% done.
 IPart=  4 IA=    4   35.00% done.
 IPart=  3 IA=    5   45.00% done.
 IPart=  4 IA=    6   54.17% done.
 IPart=  2 IA=    7   62.50% done.
 IPart=  1 IA=    8   70.00% done.
 IPart=  4 IA=   10   82.50% done.
 IPart=  3 IA=   12   91.67% done.
 Time for triples=        0.26 seconds.
 T4(CCSD)= -0.35447850D-02
 T5(CCSD)=  0.56591518D-03
 CCSD(T)= -0.33891782257D+02
 Discarding MO integrals.
 Leave Link  913 at Sun Dec 10 06:28:03 2023, MaxMem=   536870912 cpu:               1.0 elap:               0.3
 (Enter /usr/site/hpc/x86_64/glibc-2.17/broadwell/gaussian/g16_a.03/pgi-16.5/g16/l601.exe)
 Copying SCF densities to generalized density rwf, IOpCl= 0 IROHF=0.

 **********************************************************************

            Population analysis using the SCF density.

 **********************************************************************

 Orbital symmetries:
       Occupied  (A') (A') (A') (A') (A') (A") (A') (A")
       Virtual   (A') (A') (A') (A') (A") (A') (A') (A") (A') (A')
                 (A') (A') (A') (A') (A') (A')
 The electronic state is 1-A'.
 Alpha  occ. eigenvalues --   -1.41379  -1.30092  -0.77595  -0.70459  -0.58407
 Alpha  occ. eigenvalues --   -0.55696  -0.48920  -0.44472
 Alpha virt. eigenvalues --    0.16691   0.25819   0.28212   0.53707   0.73830
 Alpha virt. eigenvalues --    0.75630   0.85779   0.88833   0.96514   1.07256
 Alpha virt. eigenvalues --    1.15334   1.22515   1.23957   1.35870   2.72052
 Alpha virt. eigenvalues --    3.97763
          Condensed to atoms (all electrons):
               1          2          3          4          5          6
     1  O    6.209778   0.344194   0.258909  -0.069467   0.000763   0.002259
     2  H    0.344194   0.406328  -0.042590  -0.116542   0.005988   0.007637
     3  H    0.258909  -0.042590   0.450917   0.007465   0.000011  -0.000401
     4  O   -0.069467  -0.116542   0.007465   6.486544   0.274707   0.248520
     5  H    0.000763   0.005988   0.000011   0.274707   0.275315  -0.019133
     6  H    0.002259   0.007637  -0.000401   0.248520  -0.019133   0.366483
 Mulliken charges:
               1
     1  O   -0.746436
     2  H    0.394986
     3  H    0.325690
     4  O   -0.831226
     5  H    0.462350
     6  H    0.394636
 Sum of Mulliken charges =  -0.00000
 Mulliken charges with hydrogens summed into heavy atoms:
               1
     1  O   -0.025760
     4  O    0.025760
 Electronic spatial extent (au):  <R**2>=            126.8259
 Charge=             -0.0000 electrons
 Dipole moment (field-independent basis, Debye):
    X=             -3.1002    Y=             -4.8082    Z=              0.0000  Tot=              5.7210
 Quadrupole moment (field-independent basis, Debye-Ang):
   XX=            -10.1708   YY=             -9.6245   ZZ=            -14.9931
   XY=             -3.2842   XZ=              0.0000   YZ=              0.0000
 Traceless Quadrupole moment (field-independent basis, Debye-Ang):
   XX=              1.4253   YY=              1.9716   ZZ=             -3.3969
   XY=             -3.2842   XZ=              0.0000   YZ=              0.0000
 Octapole moment (field-independent basis, Debye-Ang**2):
  XXX=             -3.3814  YYY=            -22.3497  ZZZ=              0.0000  XYY=             -4.6544
  XXY=             -2.5616  XXZ=              0.0000  XZZ=             -0.5642  YZZ=             -1.1114
  YYZ=              0.0000  XYZ=              0.0000
 Hexadecapole moment (field-independent basis, Debye-Ang**3):
 XXXX=            -12.4025 YYYY=           -107.2125 ZZZZ=            -12.2648 XXXY=              0.1606
 XXXZ=              0.0000 YYYX=            -14.9115 YYYZ=              0.0000 ZZZX=              0.0000
 ZZZY=              0.0000 XXYY=            -17.9008 XXZZ=             -4.5737 YYZZ=            -27.4778
 XXYZ=              0.0000 YYXZ=              0.0000 ZZXY=              0.2099
 N-N= 2.757878750400D+01 E-N=-1.368893777260D+02  KE= 2.697806735812D+01
 Symmetry A'   KE= 1.814654468805D+01
 Symmetry A"   KE= 8.831522670068D+00
 Leave Link  601 at Sun Dec 10 06:28:03 2023, MaxMem=   536870912 cpu:               0.1 elap:               0.0
 (Enter /usr/site/hpc/x86_64/glibc-2.17/broadwell/gaussian/g16_a.03/pgi-16.5/g16/l9999.exe)
 1\1\GINC-N044\SP\RCCSD(T)-FC\CEP-31G\H4O2\ROOT\10-Dec-2023\0\\#p CCSD(
 T)/CEP-31G\\H2O_H2O_507\\0,1\O,0,0.,-0.009833,0.\H,0,-0.799571,-0.5809
 65,0.\H,0,0.799571,-0.580965,0.\O,0,-1.989712,-1.426959,0.\H,0,-2.9594
 31,-1.58555,0.\H,0,-1.525203,-2.292833,0.\\Version=ES64L-G16RevA.03\St
 ate=1-A'\HF=-33.6470636\MP2=-33.8758613\MP3=-33.8801224\MP4D=-33.88507
 84\MP4DQ=-33.8857117\MP4SDQ=-33.8879815\CCSD=-33.8888034\CCSD(T)=-33.8
 917823\RMSD=3.148e-09\PG=CS [SG(H4O2)]\\@


 THERE'S SMALL CHOICE IN A BOWL OF ROTTEN APPLES.
                     SHAKESPEARE
 Job cpu time:       0 days  0 hours  0 minutes  3.6 seconds.
 Elapsed time:       0 days  0 hours  0 minutes  1.1 seconds.
 File lengths (MBytes):  RWF=     72 Int=      0 D2E=      0 Chk=      8 Scr=      8
 Normal termination of Gaussian 16 at Sun Dec 10 06:28:03 2023.
