 Entering Gaussian System, Link 0=g16
 Input=H2O_H2O_2628.com
 Output=H2O_H2O_2628.log
 Initial command:
 /usr/site/hpc/x86_64/glibc-2.17/broadwell/gaussian/g16_a.03/pgi-16.5/g16/l1.exe "/gpfs/gpfs1/scratch/c7441090/OH Coord/Gau-1147619.inp" -scrdir="/gpfs/gpfs1/scratch/c7441090/OH Coord/"
 Entering Link 1 = /usr/site/hpc/x86_64/glibc-2.17/broadwell/gaussian/g16_a.03/pgi-16.5/g16/l1.exe PID=   1147620.
  
 Copyright (c) 1988,1990,1992,1993,1995,1998,2003,2009,2016,
            Gaussian, Inc.  All Rights Reserved.
  
 This is part of the Gaussian(R) 16 program.  It is based on
 the Gaussian(R) 09 system (copyright 2009, Gaussian, Inc.),
 the Gaussian(R) 03 system (copyright 2003, Gaussian, Inc.),
 the Gaussian(R) 98 system (copyright 1998, Gaussian, Inc.),
 the Gaussian(R) 94 system (copyright 1995, Gaussian, Inc.),
 the Gaussian 92(TM) system (copyright 1992, Gaussian, Inc.),
 the Gaussian 90(TM) system (copyright 1990, Gaussian, Inc.),
 the Gaussian 88(TM) system (copyright 1988, Gaussian, Inc.),
 the Gaussian 86(TM) system (copyright 1986, Carnegie Mellon
 University), and the Gaussian 82(TM) system (copyright 1983,
 Carnegie Mellon University). Gaussian is a federally registered
 trademark of Gaussian, Inc.
  
 This software contains proprietary and confidential information,
 including trade secrets, belonging to Gaussian, Inc.
  
 This software is provided under written license and may be
 used, copied, transmitted, or stored only in accord with that
 written license.
  
 The following legend is applicable only to US Government
 contracts under FAR:
  
                    RESTRICTED RIGHTS LEGEND
  
 Use, reproduction and disclosure by the US Government is
 subject to restrictions as set forth in subparagraphs (a)
 and (c) of the Commercial Computer Software - Restricted
 Rights clause in FAR 52.227-19.
  
 Gaussian, Inc.
 340 Quinnipiac St., Bldg. 40, Wallingford CT 06492
  
  
 ---------------------------------------------------------------
 Warning -- This program may not be used in any manner that
 competes with the business of Gaussian, Inc. or will provide
 assistance to any competitor of Gaussian, Inc.  The licensee
 of this program is prohibited from giving any competitor of
 Gaussian, Inc. access to this program.  By using this program,
 the user acknowledges that Gaussian, Inc. is engaged in the
 business of creating and licensing software in the field of
 computational chemistry and represents and warrants to the
 licensee that it is not a competitor of Gaussian, Inc. and that
 it will not use this program in any manner prohibited above.
 ---------------------------------------------------------------
  

 Cite this work as:
 Gaussian 16, Revision A.03,
 M. J. Frisch, G. W. Trucks, H. B. Schlegel, G. E. Scuseria, 
 M. A. Robb, J. R. Cheeseman, G. Scalmani, V. Barone, 
 G. A. Petersson, H. Nakatsuji, X. Li, M. Caricato, A. V. Marenich, 
 J. Bloino, B. G. Janesko, R. Gomperts, B. Mennucci, H. P. Hratchian, 
 J. V. Ortiz, A. F. Izmaylov, J. L. Sonnenberg, D. Williams-Young, 
 F. Ding, F. Lipparini, F. Egidi, J. Goings, B. Peng, A. Petrone, 
 T. Henderson, D. Ranasinghe, V. G. Zakrzewski, J. Gao, N. Rega, 
 G. Zheng, W. Liang, M. Hada, M. Ehara, K. Toyota, R. Fukuda, 
 J. Hasegawa, M. Ishida, T. Nakajima, Y. Honda, O. Kitao, H. Nakai, 
 T. Vreven, K. Throssell, J. A. Montgomery, Jr., J. E. Peralta, 
 F. Ogliaro, M. J. Bearpark, J. J. Heyd, E. N. Brothers, K. N. Kudin, 
 V. N. Staroverov, T. A. Keith, R. Kobayashi, J. Normand, 
 K. Raghavachari, A. P. Rendell, J. C. Burant, S. S. Iyengar, 
 J. Tomasi, M. Cossi, J. M. Millam, M. Klene, C. Adamo, R. Cammi, 
 J. W. Ochterski, R. L. Martin, K. Morokuma, O. Farkas, 
 J. B. Foresman, and D. J. Fox, Gaussian, Inc., Wallingford CT, 2016.
 
 ******************************************
 Gaussian 16:  ES64L-G16RevA.03 25-Dec-2016
                10-Dec-2023 
 ******************************************
 %NProcShared=4
 Will use up to    4 processors via shared memory.
 %Mem=4GB
 %Chk=H2O_H2O_2628.chk
 ------------------
 #p CCSD(T)/CEP-31G
 ------------------
 1/38=1,172=1/1;
 2/12=2,17=6,18=5,40=1/2;
 3/5=9,6=1,11=9,25=1,30=1/1,2,3;
 4//1;
 5/5=2,38=5/2;
 8/6=4,9=120000,10=1/1,4;
 9/5=7,14=2/13;
 6/7=2,8=2,9=2,10=2/1;
 99/5=1,9=1/99;
 Leave Link    1 at Sun Dec 10 06:20:18 2023, MaxMem=   536870912 cpu:               0.2 elap:               0.1
 (Enter /usr/site/hpc/x86_64/glibc-2.17/broadwell/gaussian/g16_a.03/pgi-16.5/g16/l101.exe)
 ------------
 H2O_H2O_2628
 ------------
 Symbolic Z-matrix:
 Charge =  0 Multiplicity = 1
 O                     0.       -0.00983   0. 
 H                    -0.79957  -0.58097   0. 
 H                     0.79957  -0.58097   0. 
 O                    -3.36674  -2.41313   0. 
 H                    -4.26237  -2.8173    0. 
 H                    -2.69395  -3.12927   0. 
 
 ITRead=  0  0  0  0  0  0
 MicOpt= -1 -1 -1 -1 -1 -1
 NAtoms=      6 NQM=        6 NQMF=       0 NMMI=      0 NMMIF=      0
                NMic=       0 NMicF=      0.
                    Isotopes and Nuclear Properties:
 (Nuclear quadrupole moments (NQMom) in fm**2, nuclear magnetic moments (NMagM)
  in nuclear magnetons)

  Atom         1           2           3           4           5           6
 IAtWgt=          16           1           1          16           1           1
 AtmWgt=  15.9949146   1.0078250   1.0078250  15.9949146   1.0078250   1.0078250
 NucSpn=           0           1           1           0           1           1
 AtZEff=  -0.0000000  -0.0000000  -0.0000000  -0.0000000  -0.0000000  -0.0000000
 NQMom=    0.0000000   0.0000000   0.0000000   0.0000000   0.0000000   0.0000000
 NMagM=    0.0000000   2.7928460   2.7928460   0.0000000   2.7928460   2.7928460
 AtZNuc=   8.0000000   1.0000000   1.0000000   8.0000000   1.0000000   1.0000000
 Leave Link  101 at Sun Dec 10 06:20:18 2023, MaxMem=   536870912 cpu:               0.3 elap:               0.1
 (Enter /usr/site/hpc/x86_64/glibc-2.17/broadwell/gaussian/g16_a.03/pgi-16.5/g16/l202.exe)
                          Input orientation:                          
 ---------------------------------------------------------------------
 Center     Atomic      Atomic             Coordinates (Angstroms)
 Number     Number       Type             X           Y           Z
 ---------------------------------------------------------------------
      1          8           0        0.000000   -0.009833    0.000000
      2          1           0       -0.799571   -0.580965    0.000000
      3          1           0        0.799571   -0.580965    0.000000
      4          8           0       -3.366738   -2.413127    0.000000
      5          1           0       -4.262368   -2.817296    0.000000
      6          1           0       -2.693952   -3.129273    0.000000
 ---------------------------------------------------------------------
                    Distance matrix (angstroms):
                    1          2          3          4          5
     1  O    0.000000
     2  H    0.982601   0.000000
     3  H    0.982601   1.599142   0.000000
     4  O    4.136514   3.153912   4.551368   0.000000
     5  H    5.103884   4.122152   5.533932   0.982601   0.000000
     6  H    4.121685   3.175304   4.324185   0.982602   1.599143
                    6
     6  H    0.000000
 Stoichiometry    H4O2
 Framework group  CS[SG(H4O2)]
 Deg. of freedom     9
 Full point group                 CS      NOp   2
 Largest Abelian subgroup         CS      NOp   2
 Largest concise Abelian subgroup C1      NOp   1
                         Standard orientation:                         
 ---------------------------------------------------------------------
 Center     Atomic      Atomic             Coordinates (Angstroms)
 Number     Number       Type             X           Y           Z
 ---------------------------------------------------------------------
      1          8           0        0.085603   -2.143053    0.000000
      2          1           0        0.085301   -1.160452    0.000000
      3          1           0       -0.843792   -2.462005    0.000000
      4          8           0        0.085603    1.993461    0.000000
      5          1           0        0.277003    2.957241    0.000000
      6          1           0       -0.888159    1.861953    0.000000
 ---------------------------------------------------------------------
 Rotational constants (GHZ):         284.8687973           3.2238517           3.1877757
 Leave Link  202 at Sun Dec 10 06:20:18 2023, MaxMem=   536870912 cpu:               0.0 elap:               0.0
 (Enter /usr/site/hpc/x86_64/glibc-2.17/broadwell/gaussian/g16_a.03/pgi-16.5/g16/l301.exe)
 Standard basis: CEP-31G (6D, 10F)
 Ernie: Thresh=  0.10000D-02 Tol=  0.10000D-05 Strict=F.
 There are    20 symmetry adapted cartesian basis functions of A'  symmetry.
 There are     4 symmetry adapted cartesian basis functions of A"  symmetry.
 There are    20 symmetry adapted basis functions of A'  symmetry.
 There are     4 symmetry adapted basis functions of A"  symmetry.
    24 basis functions,    48 primitive gaussians,    24 cartesian basis functions
     8 alpha electrons        8 beta electrons
       nuclear repulsion energy        21.8021362138 Hartrees.
 IExCor=    0 DFT=F Ex=HF Corr=None ExCW=0 ScaHFX=  1.000000
 ScaDFX=  1.000000  1.000000  1.000000  1.000000 ScalE2=  1.000000  1.000000
 IRadAn=      5 IRanWt=     -1 IRanGd=            0 ICorTp=0 IEmpDi=  4
 NAtoms=    6 NActive=    6 NUniq=    6 SFac= 1.00D+00 NAtFMM=   60 NAOKFM=F Big=F
 Integral buffers will be    131072 words long.
 Raffenetti 1 integral format.
 Two-electron integral symmetry is turned on.
 Leave Link  301 at Sun Dec 10 06:20:18 2023, MaxMem=   536870912 cpu:               0.2 elap:               0.1
 (Enter /usr/site/hpc/x86_64/glibc-2.17/broadwell/gaussian/g16_a.03/pgi-16.5/g16/l302.exe)
 NPDir=0 NMtPBC=     1 NCelOv=     1 NCel=       1 NClECP=     1 NCelD=      1
         NCelK=      1 NCelE2=     1 NClLst=     1 CellRange=     0.0.
 One-electron integrals computed using PRISM.
 One-electron integral symmetry used in STVInt
   2 Symmetry operations used in ECPInt.
 ECPInt:  NShTT=      78 NPrTT=     318 LenC2=      79 LenP2D=     276.
 LDataN:  DoStor=T MaxTD1= 2 Len=   12
 NBasis=    24 RedAO= T EigKep=  3.56D-02  NBF=    20     4
 NBsUse=    24 1.00D-06 EigRej= -1.00D+00 NBFU=    20     4
 Leave Link  302 at Sun Dec 10 06:20:18 2023, MaxMem=   536870912 cpu:               0.3 elap:               0.1
 (Enter /usr/site/hpc/x86_64/glibc-2.17/broadwell/gaussian/g16_a.03/pgi-16.5/g16/l303.exe)
 DipDrv:  MaxL=1.
 Leave Link  303 at Sun Dec 10 06:20:18 2023, MaxMem=   536870912 cpu:               0.1 elap:               0.0
 (Enter /usr/site/hpc/x86_64/glibc-2.17/broadwell/gaussian/g16_a.03/pgi-16.5/g16/l401.exe)
 ExpMin= 1.78D-01 ExpMax= 1.92D+01 ExpMxC= 1.92D+01 IAcc=3 IRadAn=         5 AccDes= 0.00D+00
 Harris functional with IExCor=  205 and IRadAn=       5 diagonalized for initial guess.
 HarFok:  IExCor=  205 AccDes= 0.00D+00 IRadAn=         5 IDoV= 1 UseB2=F ITyADJ=14
 ICtDFT=  3500011 ScaDFX=  1.000000  1.000000  1.000000  1.000000
 FoFCou: FMM=F IPFlag=           0 FMFlag=      100000 FMFlg1=           0
         NFxFlg=           0 DoJE=T BraDBF=F KetDBF=T FulRan=T
         wScrn=  0.000000 ICntrl=       500 IOpCl=  0 I1Cent=   200000004 NGrid=           0
         NMat0=    1 NMatS0=      1 NMatT0=    0 NMatD0=    1 NMtDS0=    0 NMtDT0=    0
 Petite list used in FoFCou.
 Harris En= -34.4765321681345    
 JPrj=0 DoOrth=F DoCkMO=F.
 Initial guess orbital symmetries:
       Occupied  (A') (A') (A') (A') (A') (A') (A") (A")
       Virtual   (A') (A') (A') (A') (A") (A") (A') (A') (A') (A')
                 (A') (A') (A') (A') (A') (A')
 The electronic state of the initial guess is 1-A'.
 Leave Link  401 at Sun Dec 10 06:20:18 2023, MaxMem=   536870912 cpu:               0.4 elap:               0.1
 (Enter /usr/site/hpc/x86_64/glibc-2.17/broadwell/gaussian/g16_a.03/pgi-16.5/g16/l502.exe)
 Keep R1 ints in memory in symmetry-blocked form, NReq=852373.
 FoFCou: FMM=F IPFlag=           0 FMFlag=           0 FMFlg1=           0
         NFxFlg=           0 DoJE=F BraDBF=F KetDBF=F FulRan=T
         wScrn=  0.000000 ICntrl=       600 IOpCl=  0 I1Cent=           0 NGrid=           0
         NMat0=    1 NMatS0=    300 NMatT0=    0 NMatD0=    1 NMtDS0=    0 NMtDT0=    0
 Petite list used in FoFCou.
 Closed shell SCF:
 Using DIIS extrapolation, IDIIS=  1040.
 NGot=   536870912 LenX=   536840576 LenY=   536839559
 Requested convergence on RMS density matrix=1.00D-08 within 128 cycles.
 Requested convergence on MAX density matrix=1.00D-06.
 Requested convergence on             energy=1.00D-06.
 No special actions if energy rises.

 Cycle   1  Pass 1  IDiag  1:
 E= -33.5607967271388    
 DIIS: error= 6.86D-02 at cycle   1 NSaved=   1.
 NSaved= 1 IEnMin= 1 EnMin= -33.5607967271388     IErMin= 1 ErrMin= 6.86D-02
 ErrMax= 6.86D-02  0.00D+00 EMaxC= 1.00D-01 BMatC= 1.01D-01 BMatP= 1.01D-01
 IDIUse=3 WtCom= 3.14D-01 WtEn= 6.86D-01
 Coeff-Com:  0.100D+01
 Coeff-En:   0.100D+01
 Coeff:      0.100D+01
 Gap=     0.583 Goal=   None    Shift=    0.000
 GapD=    0.583 DampG=2.000 DampE=0.500 DampFc=1.0000 IDamp=-1.
 RMSDP=1.47D-02 MaxDP=1.18D-01              OVMax= 9.91D-02

 Cycle   2  Pass 1  IDiag  1:
 E= -33.6226535873174     Delta-E=       -0.061856860179 Rises=F Damp=F
 DIIS: error= 3.70D-02 at cycle   2 NSaved=   2.
 NSaved= 2 IEnMin= 2 EnMin= -33.6226535873174     IErMin= 2 ErrMin= 3.70D-02
 ErrMax= 3.70D-02  0.00D+00 EMaxC= 1.00D-01 BMatC= 3.75D-02 BMatP= 1.01D-01
 IDIUse=3 WtCom= 6.30D-01 WtEn= 3.70D-01
 Coeff-Com:  0.376D+00 0.624D+00
 Coeff-En:   0.109D+00 0.891D+00
 Coeff:      0.277D+00 0.723D+00
 Gap=     0.672 Goal=   None    Shift=    0.000
 RMSDP=6.35D-03 MaxDP=5.38D-02 DE=-6.19D-02 OVMax= 3.55D-02

 Cycle   3  Pass 1  IDiag  1:
 E= -33.6526715561693     Delta-E=       -0.030017968852 Rises=F Damp=F
 DIIS: error= 7.09D-03 at cycle   3 NSaved=   3.
 NSaved= 3 IEnMin= 3 EnMin= -33.6526715561693     IErMin= 3 ErrMin= 7.09D-03
 ErrMax= 7.09D-03  0.00D+00 EMaxC= 1.00D-01 BMatC= 8.78D-04 BMatP= 3.75D-02
 IDIUse=3 WtCom= 9.29D-01 WtEn= 7.09D-02
 Coeff-Com: -0.113D+00-0.164D-01 0.113D+01
 Coeff-En:   0.000D+00 0.000D+00 0.100D+01
 Coeff:     -0.105D+00-0.152D-01 0.112D+01
 Gap=     0.664 Goal=   None    Shift=    0.000
 RMSDP=1.05D-03 MaxDP=8.65D-03 DE=-3.00D-02 OVMax= 8.02D-03

 Cycle   4  Pass 1  IDiag  1:
 E= -33.6535435045331     Delta-E=       -0.000871948364 Rises=F Damp=F
 DIIS: error= 7.33D-04 at cycle   4 NSaved=   4.
 NSaved= 4 IEnMin= 4 EnMin= -33.6535435045331     IErMin= 4 ErrMin= 7.33D-04
 ErrMax= 7.33D-04  0.00D+00 EMaxC= 1.00D-01 BMatC= 5.67D-06 BMatP= 8.78D-04
 IDIUse=3 WtCom= 9.93D-01 WtEn= 7.33D-03
 Coeff-Com:  0.435D-01-0.174D-01-0.526D+00 0.150D+01
 Coeff-En:   0.000D+00 0.000D+00 0.000D+00 0.100D+01
 Coeff:      0.431D-01-0.173D-01-0.522D+00 0.150D+01
 Gap=     0.666 Goal=   None    Shift=    0.000
 RMSDP=2.34D-04 MaxDP=1.97D-03 DE=-8.72D-04 OVMax= 9.92D-04

 Cycle   5  Pass 1  IDiag  1:
 E= -33.6535562266320     Delta-E=       -0.000012722099 Rises=F Damp=F
 DIIS: error= 5.00D-05 at cycle   5 NSaved=   5.
 NSaved= 5 IEnMin= 5 EnMin= -33.6535562266320     IErMin= 5 ErrMin= 5.00D-05
 ErrMax= 5.00D-05  0.00D+00 EMaxC= 1.00D-01 BMatC= 3.82D-08 BMatP= 5.67D-06
 IDIUse=1 WtCom= 1.00D+00 WtEn= 0.00D+00
 Coeff-Com: -0.642D-02 0.288D-02 0.789D-01-0.273D+00 0.120D+01
 Coeff:     -0.642D-02 0.288D-02 0.789D-01-0.273D+00 0.120D+01
 Gap=     0.666 Goal=   None    Shift=    0.000
 RMSDP=1.59D-05 MaxDP=1.63D-04 DE=-1.27D-05 OVMax= 1.09D-04

 Cycle   6  Pass 1  IDiag  1:
 E= -33.6535563180662     Delta-E=       -0.000000091434 Rises=F Damp=F
 DIIS: error= 1.08D-05 at cycle   6 NSaved=   6.
 NSaved= 6 IEnMin= 6 EnMin= -33.6535563180662     IErMin= 6 ErrMin= 1.08D-05
 ErrMax= 1.08D-05  0.00D+00 EMaxC= 1.00D-01 BMatC= 3.13D-09 BMatP= 3.82D-08
 IDIUse=1 WtCom= 1.00D+00 WtEn= 0.00D+00
 Coeff-Com: -0.127D-02 0.622D-03 0.158D-01-0.464D-01 0.109D-01 0.102D+01
 Coeff:     -0.127D-02 0.622D-03 0.158D-01-0.464D-01 0.109D-01 0.102D+01
 Gap=     0.666 Goal=   None    Shift=    0.000
 RMSDP=3.38D-06 MaxDP=2.57D-05 DE=-9.14D-08 OVMax= 3.38D-05

 Cycle   7  Pass 1  IDiag  1:
 E= -33.6535563238725     Delta-E=       -0.000000005806 Rises=F Damp=F
 DIIS: error= 4.26D-06 at cycle   7 NSaved=   7.
 NSaved= 7 IEnMin= 7 EnMin= -33.6535563238725     IErMin= 7 ErrMin= 4.26D-06
 ErrMax= 4.26D-06  0.00D+00 EMaxC= 1.00D-01 BMatC= 6.15D-10 BMatP= 3.13D-09
 IDIUse=1 WtCom= 1.00D+00 WtEn= 0.00D+00
 Coeff-Com:  0.872D-03-0.356D-03-0.106D-01 0.373D-01-0.192D+00 0.199D+00
 Coeff-Com:  0.966D+00
 Coeff:      0.872D-03-0.356D-03-0.106D-01 0.373D-01-0.192D+00 0.199D+00
 Coeff:      0.966D+00
 Gap=     0.666 Goal=   None    Shift=    0.000
 RMSDP=1.57D-06 MaxDP=1.02D-05 DE=-5.81D-09 OVMax= 1.56D-05

 Cycle   8  Pass 1  IDiag  1:
 E= -33.6535563249762     Delta-E=       -0.000000001104 Rises=F Damp=F
 DIIS: error= 1.04D-06 at cycle   8 NSaved=   8.
 NSaved= 8 IEnMin= 8 EnMin= -33.6535563249762     IErMin= 8 ErrMin= 1.04D-06
 ErrMax= 1.04D-06  0.00D+00 EMaxC= 1.00D-01 BMatC= 2.46D-11 BMatP= 6.15D-10
 IDIUse=1 WtCom= 1.00D+00 WtEn= 0.00D+00
 Coeff-Com:  0.419D-05-0.268D-04-0.118D-03-0.509D-03 0.277D-01-0.112D+00
 Coeff-Com: -0.169D+00 0.125D+01
 Coeff:      0.419D-05-0.268D-04-0.118D-03-0.509D-03 0.277D-01-0.112D+00
 Coeff:     -0.169D+00 0.125D+01
 Gap=     0.666 Goal=   None    Shift=    0.000
 RMSDP=5.33D-07 MaxDP=2.99D-06 DE=-1.10D-09 OVMax= 4.15D-06

 Cycle   9  Pass 1  IDiag  1:
 E= -33.6535563250411     Delta-E=       -0.000000000065 Rises=F Damp=F
 DIIS: error= 1.45D-07 at cycle   9 NSaved=   9.
 NSaved= 9 IEnMin= 9 EnMin= -33.6535563250411     IErMin= 9 ErrMin= 1.45D-07
 ErrMax= 1.45D-07  0.00D+00 EMaxC= 1.00D-01 BMatC= 6.49D-13 BMatP= 2.46D-11
 IDIUse=1 WtCom= 1.00D+00 WtEn= 0.00D+00
 Coeff-Com:  0.335D-05 0.691D-05-0.936D-05 0.319D-03-0.105D-01 0.440D-01
 Coeff-Com:  0.588D-01-0.532D+00 0.144D+01
 Coeff:      0.335D-05 0.691D-05-0.936D-05 0.319D-03-0.105D-01 0.440D-01
 Coeff:      0.588D-01-0.532D+00 0.144D+01
 Gap=     0.666 Goal=   None    Shift=    0.000
 RMSDP=1.20D-07 MaxDP=4.92D-07 DE=-6.49D-11 OVMax= 8.07D-07

 Cycle  10  Pass 1  IDiag  1:
 E= -33.6535563250429     Delta-E=       -0.000000000002 Rises=F Damp=F
 DIIS: error= 9.64D-09 at cycle  10 NSaved=  10.
 NSaved=10 IEnMin=10 EnMin= -33.6535563250429     IErMin=10 ErrMin= 9.64D-09
 ErrMax= 9.64D-09  0.00D+00 EMaxC= 1.00D-01 BMatC= 3.75D-15 BMatP= 6.49D-13
 IDIUse=1 WtCom= 1.00D+00 WtEn= 0.00D+00
 Coeff-Com:  0.211D-06-0.172D-05-0.928D-05-0.266D-04 0.203D-02-0.922D-02
 Coeff-Com: -0.118D-01 0.111D+00-0.363D+00 0.127D+01
 Coeff:      0.211D-06-0.172D-05-0.928D-05-0.266D-04 0.203D-02-0.922D-02
 Coeff:     -0.118D-01 0.111D+00-0.363D+00 0.127D+01
 Gap=     0.666 Goal=   None    Shift=    0.000
 RMSDP=1.28D-08 MaxDP=6.34D-08 DE=-1.79D-12 OVMax= 7.75D-08

 Cycle  11  Pass 1  IDiag  1:
 E= -33.6535563250429     Delta-E=       -0.000000000000 Rises=F Damp=F
 DIIS: error= 5.83D-10 at cycle  11 NSaved=  11.
 NSaved=11 IEnMin=11 EnMin= -33.6535563250429     IErMin=11 ErrMin= 5.83D-10
 ErrMax= 5.83D-10  0.00D+00 EMaxC= 1.00D-01 BMatC= 1.27D-17 BMatP= 3.75D-15
 IDIUse=1 WtCom= 1.00D+00 WtEn= 0.00D+00
 Coeff-Com: -0.846D-07 0.312D-06 0.215D-05 0.285D-05-0.352D-03 0.163D-02
 Coeff-Com:  0.206D-02-0.199D-01 0.661D-01-0.264D+00 0.121D+01
 Coeff:     -0.846D-07 0.312D-06 0.215D-05 0.285D-05-0.352D-03 0.163D-02
 Coeff:      0.206D-02-0.199D-01 0.661D-01-0.264D+00 0.121D+01
 Gap=     0.666 Goal=   None    Shift=    0.000
 RMSDP=5.47D-10 MaxDP=3.07D-09 DE=-1.42D-14 OVMax= 2.99D-09

 SCF Done:  E(RHF) =  -33.6535563250     A.U. after   11 cycles
            NFock= 11  Conv=0.55D-09     -V/T= 2.2569
 KE= 2.677602104399D+01 PE=-1.251726986587D+02 EE= 4.294098507580D+01
 Leave Link  502 at Sun Dec 10 06:20:18 2023, MaxMem=   536870912 cpu:               0.3 elap:               0.1
 (Enter /usr/site/hpc/x86_64/glibc-2.17/broadwell/gaussian/g16_a.03/pgi-16.5/g16/l801.exe)
 Windowed orbitals will be sorted by symmetry type.
 Range of M.O.s used for correlation:     1    24
 NBasis=    24 NAE=     8 NBE=     8 NFC=     0 NFV=     0
 NROrb=     24 NOA=     8 NOB=     8 NVA=    16 NVB=    16
 Leave Link  801 at Sun Dec 10 06:20:18 2023, MaxMem=   536870912 cpu:               0.1 elap:               0.0
 (Enter /usr/site/hpc/x86_64/glibc-2.17/broadwell/gaussian/g16_a.03/pgi-16.5/g16/l804.exe)
 Closed-shell transformation, MDV=   536870912 ITran=4 ISComp=2.
 Unit  1 TFree=       1025975 TCopy=        210600.
 Semi-Direct transformation.
 ModeAB=           2 MOrb=             8 LenV=     536741990
 LASXX=        22470 LTotXX=       22470 LenRXX=       22470
 LTotAB=       26208 MaxLAS=       57600 LenRXY=       57600
 NonZer=       61248 LenScr=      524288 LnRSAI=           0
 LnScr1=           0 LExtra=           0 Total=       604358
 MaxDsk=          -1 SrtSym=           F ITran=            4
 DoSDTr:  NPSUse=  4
 JobTyp=0 Pass  1:  I=   1 to   8.
 (rs|ai) integrals will be sorted in core.
 Complete sort for first half transformation.
 First half transformation complete.
 Complete sort for second half transformation.
 Second half transformation complete.
 Spin components of T(2) and E(2):
     alpha-alpha T2 =       0.9078469375D-02 E2=     -0.2593227854D-01
     alpha-beta  T2 =       0.5988365556D-01 E2=     -0.1766220667D+00
     beta-beta   T2 =       0.9078469375D-02 E2=     -0.2593227854D-01
 ANorm=    0.1038287337D+01
 E2 =    -0.2284866238D+00 EUMP2 =    -0.33882042948826D+02
 Leave Link  804 at Sun Dec 10 06:20:18 2023, MaxMem=   536870912 cpu:               0.2 elap:               0.1
 (Enter /usr/site/hpc/x86_64/glibc-2.17/broadwell/gaussian/g16_a.03/pgi-16.5/g16/l913.exe)
 CIDS:  MDV=   536870912.
 IFCWin=0 IBDFC=1 NFBD=     0     0 NFCmp=     0     0 NFFFC=     0     0
 Using DD3R+UMP44R for 1st iteration.
 Using DD4RQ for 2nd and later iterations.
 Keep R2 and R3 ints in memory in symmetry-blocked form, NReq=864981.
 FoFCou: FMM=F IPFlag=           0 FMFlag=           0 FMFlg1=           0
         NFxFlg=           0 DoJE=F BraDBF=F KetDBF=F FulRan=T
         wScrn=  0.000000 ICntrl=       600 IOpCl=  0 I1Cent=           0 NGrid=           0
         NMat0=    1 NMatS0=    300 NMatT0=    0 NMatD0=    1 NMtDS0=    0 NMtDT0=    0
 Petite list used in FoFCou.
 CIDS: In Core Option IDoMem=           1.
 CCSD(T)
 =======
 Iterations=  50 Convergence= 0.100D-06
 Produce multiple copies of IABC intergrals
 Iteration Nr.   1
 **********************
 DD1Dir will call FoFMem   1 times, MxPair=        72
 NAB=    36 NAA=     0 NBB=     0.
 MP4(R+Q)= -0.74269582D-03
 Maximum subspace dimension=  5
 A-vector RMS=  5.8041070D-03 Max=  1.3109918D-02 conv= 1.00D-05.
 RLE energy=       -0.2345024496
 E3=       -0.53955948D-02        EUMP3=      -0.33887438544D+02
 E4(DQ)=   -0.59024824D-02        UMP4(DQ)=   -0.33893341026D+02
 E4(SDQ)=  -0.79576778D-02        UMP4(SDQ)=  -0.33895396221D+02
 VARIATIONAL ENERGIES WITH THE FIRST-ORDER WAVEFUNCTION:
 DE(Corr)= -0.23434847     E(Corr)=     -33.887904791    
 NORM(A)=   0.10417142D+01
 Iteration Nr.   2
 **********************
 DD1Dir will call FoFMem   1 times, MxPair=        72
 NAB=    36 NAA=     0 NBB=     0.
 A-vector RMS=  9.7931615D-04 Max=  2.6835245D-03 conv= 1.00D-05.
 RLE energy=       -0.2422800991
 DE(Corr)= -0.24034748     E(CORR)=     -33.893903805     Delta=-6.00D-03
 NORM(A)=   0.10455040D+01
 Iteration Nr.   3
 **********************
 DD1Dir will call FoFMem   1 times, MxPair=        72
 NAB=    36 NAA=     0 NBB=     0.
 A-vector RMS=  3.8749397D-04 Max=  8.8857933D-04 conv= 1.00D-05.
 RLE energy=       -0.2428317149
 DE(Corr)= -0.24238218     E(CORR)=     -33.895938501     Delta=-2.03D-03
 NORM(A)=   0.10460649D+01
 Iteration Nr.   4
 **********************
 DD1Dir will call FoFMem   1 times, MxPair=        72
 NAB=    36 NAA=     0 NBB=     0.
 A-vector RMS=  9.5649352D-05 Max=  2.6208265D-04 conv= 1.00D-05.
 RLE energy=       -0.2428794399
 DE(Corr)= -0.24284344     E(CORR)=     -33.896399768     Delta=-4.61D-04
 NORM(A)=   0.10461379D+01
 Iteration Nr.   5
 **********************
 DD1Dir will call FoFMem   1 times, MxPair=        72
 NAB=    36 NAA=     0 NBB=     0.
 A-vector RMS=  4.2227185D-05 Max=  1.1927278D-04 conv= 1.00D-05.
 RLE energy=       -0.2428783451
 DE(Corr)= -0.24287578     E(CORR)=     -33.896432109     Delta=-3.23D-05
 NORM(A)=   0.10461481D+01
 Iteration Nr.   6
 **********************
 DD1Dir will call FoFMem   1 times, MxPair=        72
 NAB=    36 NAA=     0 NBB=     0.
 A-vector RMS=  1.4326303D-05 Max=  5.0877726D-05 conv= 1.00D-05.
 RLE energy=       -0.2428758738
 DE(Corr)= -0.24287822     E(CORR)=     -33.896434544     Delta=-2.44D-06
 NORM(A)=   0.10461509D+01
 Iteration Nr.   7
 **********************
 DD1Dir will call FoFMem   1 times, MxPair=        72
 NAB=    36 NAA=     0 NBB=     0.
 A-vector RMS=  4.7733310D-06 Max=  1.6264953D-05 conv= 1.00D-05.
 RLE energy=       -0.2428775296
 DE(Corr)= -0.24287769     E(CORR)=     -33.896434017     Delta= 5.27D-07
 NORM(A)=   0.10461526D+01
 Iteration Nr.   8
 **********************
 DD1Dir will call FoFMem   1 times, MxPair=        72
 NAB=    36 NAA=     0 NBB=     0.
 A-vector RMS=  1.4793076D-06 Max=  4.9370506D-06 conv= 1.00D-05.
 RLE energy=       -0.2428773186
 DE(Corr)= -0.24287746     E(CORR)=     -33.896433784     Delta= 2.33D-07
 NORM(A)=   0.10461529D+01
 Iteration Nr.   9
 **********************
 DD1Dir will call FoFMem   1 times, MxPair=        72
 NAB=    36 NAA=     0 NBB=     0.
 A-vector RMS=  3.6648789D-07 Max=  1.8244892D-06 conv= 1.00D-05.
 RLE energy=       -0.2428775149
 DE(Corr)= -0.24287755     E(CORR)=     -33.896433879     Delta=-9.45D-08
 NORM(A)=   0.10461531D+01
 CI/CC converged in    9 iterations to DelEn=-9.45D-08 Conv= 1.00D-07 ErrA1= 3.66D-07 Conv= 1.00D-05
 Wavefunction amplitudes converged. E(Corr)=     -33.896433879    
 Largest amplitude= 5.72D-02
 IPart=  2 IA=    2   12.50% done.
 IPart=  3 IA=    3   24.17% done.
 IPart=  4 IA=    4   35.00% done.
 IPart=  4 IA=    5   45.00% done.
 IPart=  3 IA=    6   54.17% done.
 IPart=  2 IA=    7   62.50% done.
 IPart=  1 IA=    8   70.00% done.
 IPart=  1 IA=   10   82.50% done.
 IPart=  2 IA=   12   91.67% done.
 Time for triples=        0.25 seconds.
 T4(CCSD)= -0.31167902D-02
 T5(CCSD)=  0.53201412D-03
 CCSD(T)= -0.33899018655D+02
 Discarding MO integrals.
 Leave Link  913 at Sun Dec 10 06:20:19 2023, MaxMem=   536870912 cpu:               0.9 elap:               0.2
 (Enter /usr/site/hpc/x86_64/glibc-2.17/broadwell/gaussian/g16_a.03/pgi-16.5/g16/l601.exe)
 Copying SCF densities to generalized density rwf, IOpCl= 0 IROHF=0.

 **********************************************************************

            Population analysis using the SCF density.

 **********************************************************************

 Orbital symmetries:
       Occupied  (A') (A') (A') (A') (A') (A') (A") (A")
       Virtual   (A') (A') (A') (A') (A") (A") (A') (A') (A') (A')
                 (A') (A') (A') (A') (A') (A')
 The electronic state is 1-A'.
 Alpha  occ. eigenvalues --   -1.36979  -1.34446  -0.72664  -0.70028  -0.56830
 Alpha  occ. eigenvalues --   -0.54194  -0.51567  -0.49027
 Alpha virt. eigenvalues --    0.17590   0.22509   0.29136   0.32219   0.78984
 Alpha virt. eigenvalues --    0.81537   0.82889   0.84533   0.86260   0.87988
 Alpha virt. eigenvalues --    1.15734   1.19041   1.20490   1.29099   2.55829
 Alpha virt. eigenvalues --    2.64288
          Condensed to atoms (all electrons):
               1          2          3          4          5          6
     1  O    6.222079   0.266558   0.260369  -0.000189   0.000003   0.000038
     2  H    0.266558   0.369798  -0.023206   0.001303  -0.000013  -0.000076
     3  H    0.260369  -0.023206   0.400635   0.000001   0.000000   0.000002
     4  O   -0.000189   0.001303   0.000001   6.218023   0.267845   0.261345
     5  H    0.000003  -0.000013   0.000000   0.267845   0.373936  -0.023007
     6  H    0.000038  -0.000076   0.000002   0.261345  -0.023007   0.393586
 Mulliken charges:
               1
     1  O   -0.748858
     2  H    0.385637
     3  H    0.362199
     4  O   -0.748327
     5  H    0.381236
     6  H    0.368112
 Sum of Mulliken charges =   0.00000
 Mulliken charges with hydrogens summed into heavy atoms:
               1
     1  O   -0.001021
     4  O    0.001021
 Electronic spatial extent (au):  <R**2>=            285.1065
 Charge=              0.0000 electrons
 Dipole moment (field-independent basis, Debye):
    X=             -3.9034    Y=              3.6080    Z=              0.0000  Tot=              5.3155
 Quadrupole moment (field-independent basis, Debye-Ang):
   XX=            -10.8179   YY=             -8.5130   ZZ=            -14.9908
   XY=              3.0733   XZ=              0.0000   YZ=              0.0000
 Traceless Quadrupole moment (field-independent basis, Debye-Ang):
   XX=              0.6227   YY=              2.9275   ZZ=             -3.5502
   XY=              3.0733   XZ=              0.0000   YZ=              0.0000
 Octapole moment (field-independent basis, Debye-Ang**2):
  XXX=             -4.0562  YYY=             47.8333  ZZZ=              0.0000  XYY=            -16.8696
  XXY=              0.9556  XXZ=              0.0000  XZZ=             -0.7307  YZZ=              0.7026
  YYZ=              0.0000  XYZ=              0.0000
 Hexadecapole moment (field-independent basis, Debye-Ang**3):
 XXXX=            -12.4822 YYYY=           -258.4845 ZZZZ=            -12.2245 XXXY=              0.0467
 XXXZ=              0.0000 YYYX=             36.4081 YYYZ=              0.0000 ZZZX=              0.0000
 ZZZY=              0.0000 XXYY=            -49.7833 XXZZ=             -4.5437 YYZZ=            -68.8906
 XXYZ=              0.0000 YYXZ=              0.0000 ZZXY=             -0.1690
 N-N= 2.180213621381D+01 E-N=-1.251726986597D+02  KE= 2.677602104399D+01
 Symmetry A'   KE= 1.789418978379D+01
 Symmetry A"   KE= 8.881831260203D+00
 Leave Link  601 at Sun Dec 10 06:20:19 2023, MaxMem=   536870912 cpu:               0.1 elap:               0.0
 (Enter /usr/site/hpc/x86_64/glibc-2.17/broadwell/gaussian/g16_a.03/pgi-16.5/g16/l9999.exe)
 1\1\GINC-N033\SP\RCCSD(T)-FC\CEP-31G\H4O2\ROOT\10-Dec-2023\0\\#p CCSD(
 T)/CEP-31G\\H2O_H2O_2628\\0,1\O,0,0.,-0.009833,0.\H,0,-0.799571,-0.580
 965,0.\H,0,0.799571,-0.580965,0.\O,0,-3.366738,-2.413127,0.\H,0,-4.262
 368,-2.817296,0.\H,0,-2.693952,-3.129273,0.\\Version=ES64L-G16RevA.03\
 State=1-A'\HF=-33.6535563\MP2=-33.8820429\MP3=-33.8874385\MP4D=-33.892
 5983\MP4DQ=-33.893341\MP4SDQ=-33.8953962\CCSD=-33.8964339\CCSD(T)=-33.
 8990187\RMSD=5.466e-10\PG=CS [SG(H4O2)]\\@


 When I told the people of Northern Ireland that I was
 an atheist, a woman in the audience stood up and said,
 "Yes, but is it the God of the Catholics or the God
 of the Protestants in whom you don't believe?"
                               -- Quentin Crisp
 Job cpu time:       0 days  0 hours  0 minutes  3.2 seconds.
 Elapsed time:       0 days  0 hours  0 minutes  1.0 seconds.
 File lengths (MBytes):  RWF=     72 Int=      0 D2E=      0 Chk=      8 Scr=      8
 Normal termination of Gaussian 16 at Sun Dec 10 06:20:19 2023.
