 Entering Gaussian System, Link 0=g16
 Input=H2O_H2O_2833.com
 Output=H2O_H2O_2833.log
 Initial command:
 /usr/site/hpc/x86_64/glibc-2.17/broadwell/gaussian/g16_a.03/pgi-16.5/g16/l1.exe "/gpfs/gpfs1/scratch/c7441090/OH Coord/Gau-1157049.inp" -scrdir="/gpfs/gpfs1/scratch/c7441090/OH Coord/"
 Entering Link 1 = /usr/site/hpc/x86_64/glibc-2.17/broadwell/gaussian/g16_a.03/pgi-16.5/g16/l1.exe PID=   1157050.
  
 Copyright (c) 1988,1990,1992,1993,1995,1998,2003,2009,2016,
            Gaussian, Inc.  All Rights Reserved.
  
 This is part of the Gaussian(R) 16 program.  It is based on
 the Gaussian(R) 09 system (copyright 2009, Gaussian, Inc.),
 the Gaussian(R) 03 system (copyright 2003, Gaussian, Inc.),
 the Gaussian(R) 98 system (copyright 1998, Gaussian, Inc.),
 the Gaussian(R) 94 system (copyright 1995, Gaussian, Inc.),
 the Gaussian 92(TM) system (copyright 1992, Gaussian, Inc.),
 the Gaussian 90(TM) system (copyright 1990, Gaussian, Inc.),
 the Gaussian 88(TM) system (copyright 1988, Gaussian, Inc.),
 the Gaussian 86(TM) system (copyright 1986, Carnegie Mellon
 University), and the Gaussian 82(TM) system (copyright 1983,
 Carnegie Mellon University). Gaussian is a federally registered
 trademark of Gaussian, Inc.
  
 This software contains proprietary and confidential information,
 including trade secrets, belonging to Gaussian, Inc.
  
 This software is provided under written license and may be
 used, copied, transmitted, or stored only in accord with that
 written license.
  
 The following legend is applicable only to US Government
 contracts under FAR:
  
                    RESTRICTED RIGHTS LEGEND
  
 Use, reproduction and disclosure by the US Government is
 subject to restrictions as set forth in subparagraphs (a)
 and (c) of the Commercial Computer Software - Restricted
 Rights clause in FAR 52.227-19.
  
 Gaussian, Inc.
 340 Quinnipiac St., Bldg. 40, Wallingford CT 06492
  
  
 ---------------------------------------------------------------
 Warning -- This program may not be used in any manner that
 competes with the business of Gaussian, Inc. or will provide
 assistance to any competitor of Gaussian, Inc.  The licensee
 of this program is prohibited from giving any competitor of
 Gaussian, Inc. access to this program.  By using this program,
 the user acknowledges that Gaussian, Inc. is engaged in the
 business of creating and licensing software in the field of
 computational chemistry and represents and warrants to the
 licensee that it is not a competitor of Gaussian, Inc. and that
 it will not use this program in any manner prohibited above.
 ---------------------------------------------------------------
  

 Cite this work as:
 Gaussian 16, Revision A.03,
 M. J. Frisch, G. W. Trucks, H. B. Schlegel, G. E. Scuseria, 
 M. A. Robb, J. R. Cheeseman, G. Scalmani, V. Barone, 
 G. A. Petersson, H. Nakatsuji, X. Li, M. Caricato, A. V. Marenich, 
 J. Bloino, B. G. Janesko, R. Gomperts, B. Mennucci, H. P. Hratchian, 
 J. V. Ortiz, A. F. Izmaylov, J. L. Sonnenberg, D. Williams-Young, 
 F. Ding, F. Lipparini, F. Egidi, J. Goings, B. Peng, A. Petrone, 
 T. Henderson, D. Ranasinghe, V. G. Zakrzewski, J. Gao, N. Rega, 
 G. Zheng, W. Liang, M. Hada, M. Ehara, K. Toyota, R. Fukuda, 
 J. Hasegawa, M. Ishida, T. Nakajima, Y. Honda, O. Kitao, H. Nakai, 
 T. Vreven, K. Throssell, J. A. Montgomery, Jr., J. E. Peralta, 
 F. Ogliaro, M. J. Bearpark, J. J. Heyd, E. N. Brothers, K. N. Kudin, 
 V. N. Staroverov, T. A. Keith, R. Kobayashi, J. Normand, 
 K. Raghavachari, A. P. Rendell, J. C. Burant, S. S. Iyengar, 
 J. Tomasi, M. Cossi, J. M. Millam, M. Klene, C. Adamo, R. Cammi, 
 J. W. Ochterski, R. L. Martin, K. Morokuma, O. Farkas, 
 J. B. Foresman, and D. J. Fox, Gaussian, Inc., Wallingford CT, 2016.
 
 ******************************************
 Gaussian 16:  ES64L-G16RevA.03 25-Dec-2016
                10-Dec-2023 
 ******************************************
 %NProcShared=4
 Will use up to    4 processors via shared memory.
 %Mem=4GB
 %Chk=H2O_H2O_2833.chk
 ------------------
 #p CCSD(T)/CEP-31G
 ------------------
 1/38=1,172=1/1;
 2/12=2,17=6,18=5,40=1/2;
 3/5=9,6=1,11=9,25=1,30=1/1,2,3;
 4//1;
 5/5=2,38=5/2;
 8/6=4,9=120000,10=1/1,4;
 9/5=7,14=2/13;
 6/7=2,8=2,9=2,10=2/1;
 99/5=1,9=1/99;
 Leave Link    1 at Sun Dec 10 06:23:58 2023, MaxMem=   536870912 cpu:               0.2 elap:               0.1
 (Enter /usr/site/hpc/x86_64/glibc-2.17/broadwell/gaussian/g16_a.03/pgi-16.5/g16/l101.exe)
 ------------
 H2O_H2O_2833
 ------------
 Symbolic Z-matrix:
 Charge =  0 Multiplicity = 1
 O                     0.       -0.00983   0. 
 H                    -0.79957  -0.58097   0. 
 H                     0.79957  -0.58097   0. 
 O                    -3.49957  -2.50474   0. 
 H                    -4.47758  -2.59957   0. 
 H                    -3.09268  -3.39914   0. 
 
 ITRead=  0  0  0  0  0  0
 MicOpt= -1 -1 -1 -1 -1 -1
 NAtoms=      6 NQM=        6 NQMF=       0 NMMI=      0 NMMIF=      0
                NMic=       0 NMicF=      0.
                    Isotopes and Nuclear Properties:
 (Nuclear quadrupole moments (NQMom) in fm**2, nuclear magnetic moments (NMagM)
  in nuclear magnetons)

  Atom         1           2           3           4           5           6
 IAtWgt=          16           1           1          16           1           1
 AtmWgt=  15.9949146   1.0078250   1.0078250  15.9949146   1.0078250   1.0078250
 NucSpn=           0           1           1           0           1           1
 AtZEff=  -0.0000000  -0.0000000  -0.0000000  -0.0000000  -0.0000000  -0.0000000
 NQMom=    0.0000000   0.0000000   0.0000000   0.0000000   0.0000000   0.0000000
 NMagM=    0.0000000   2.7928460   2.7928460   0.0000000   2.7928460   2.7928460
 AtZNuc=   8.0000000   1.0000000   1.0000000   8.0000000   1.0000000   1.0000000
 Leave Link  101 at Sun Dec 10 06:23:58 2023, MaxMem=   536870912 cpu:               0.3 elap:               0.1
 (Enter /usr/site/hpc/x86_64/glibc-2.17/broadwell/gaussian/g16_a.03/pgi-16.5/g16/l202.exe)
                          Input orientation:                          
 ---------------------------------------------------------------------
 Center     Atomic      Atomic             Coordinates (Angstroms)
 Number     Number       Type             X           Y           Z
 ---------------------------------------------------------------------
      1          8           0        0.000000   -0.009833    0.000000
      2          1           0       -0.799571   -0.580965    0.000000
      3          1           0        0.799571   -0.580965    0.000000
      4          8           0       -3.499567   -2.504737    0.000000
      5          1           0       -4.477582   -2.599566    0.000000
      6          1           0       -3.092684   -3.399137    0.000000
 ---------------------------------------------------------------------
                    Distance matrix (angstroms):
                    1          2          3          4          5
     1  O    0.000000
     2  H    0.982601   0.000000
     3  H    0.982601   1.599142   0.000000
     4  O    4.297850   3.315249   4.709935   0.000000
     5  H    5.172568   4.195535   5.650053   0.982602   0.000000
     6  H    4.588254   3.633244   4.805387   0.982601   1.599142
                    6
     6  H    0.000000
 Stoichiometry    H4O2
 Framework group  CS[SG(H4O2)]
 Deg. of freedom     9
 Full point group                 CS      NOp   2
 Largest Abelian subgroup         CS      NOp   2
 Largest concise Abelian subgroup C1      NOp   1
                         Standard orientation:                         
 ---------------------------------------------------------------------
 Center     Atomic      Atomic             Coordinates (Angstroms)
 Number     Number       Type             X           Y           Z
 ---------------------------------------------------------------------
      1          8           0        0.070202    2.234044    0.000000
      2          1           0        0.069304    1.251443    0.000000
      3          1           0       -0.858999    2.553560    0.000000
      4          8           0        0.070202   -2.063806   -0.000000
      5          1           0        0.560725   -2.915213   -0.000000
      6          1           0       -0.894267   -2.251697   -0.000000
 ---------------------------------------------------------------------
 Rotational constants (GHZ):         255.3122911           2.9772617           2.9429433
 Leave Link  202 at Sun Dec 10 06:23:58 2023, MaxMem=   536870912 cpu:               0.0 elap:               0.0
 (Enter /usr/site/hpc/x86_64/glibc-2.17/broadwell/gaussian/g16_a.03/pgi-16.5/g16/l301.exe)
 Standard basis: CEP-31G (6D, 10F)
 Ernie: Thresh=  0.10000D-02 Tol=  0.10000D-05 Strict=F.
 There are    20 symmetry adapted cartesian basis functions of A'  symmetry.
 There are     4 symmetry adapted cartesian basis functions of A"  symmetry.
 There are    20 symmetry adapted basis functions of A'  symmetry.
 There are     4 symmetry adapted basis functions of A"  symmetry.
    24 basis functions,    48 primitive gaussians,    24 cartesian basis functions
     8 alpha electrons        8 beta electrons
       nuclear repulsion energy        21.4327140396 Hartrees.
 IExCor=    0 DFT=F Ex=HF Corr=None ExCW=0 ScaHFX=  1.000000
 ScaDFX=  1.000000  1.000000  1.000000  1.000000 ScalE2=  1.000000  1.000000
 IRadAn=      5 IRanWt=     -1 IRanGd=            0 ICorTp=0 IEmpDi=  4
 NAtoms=    6 NActive=    6 NUniq=    6 SFac= 1.00D+00 NAtFMM=   60 NAOKFM=F Big=F
 Integral buffers will be    131072 words long.
 Raffenetti 1 integral format.
 Two-electron integral symmetry is turned on.
 Leave Link  301 at Sun Dec 10 06:23:58 2023, MaxMem=   536870912 cpu:               0.2 elap:               0.1
 (Enter /usr/site/hpc/x86_64/glibc-2.17/broadwell/gaussian/g16_a.03/pgi-16.5/g16/l302.exe)
 NPDir=0 NMtPBC=     1 NCelOv=     1 NCel=       1 NClECP=     1 NCelD=      1
         NCelK=      1 NCelE2=     1 NClLst=     1 CellRange=     0.0.
 One-electron integrals computed using PRISM.
 One-electron integral symmetry used in STVInt
   2 Symmetry operations used in ECPInt.
 ECPInt:  NShTT=      78 NPrTT=     318 LenC2=      79 LenP2D=     273.
 LDataN:  DoStor=T MaxTD1= 2 Len=   12
 NBasis=    24 RedAO= T EigKep=  3.69D-02  NBF=    20     4
 NBsUse=    24 1.00D-06 EigRej= -1.00D+00 NBFU=    20     4
 Leave Link  302 at Sun Dec 10 06:23:58 2023, MaxMem=   536870912 cpu:               0.3 elap:               0.1
 (Enter /usr/site/hpc/x86_64/glibc-2.17/broadwell/gaussian/g16_a.03/pgi-16.5/g16/l303.exe)
 DipDrv:  MaxL=1.
 Leave Link  303 at Sun Dec 10 06:23:58 2023, MaxMem=   536870912 cpu:               0.1 elap:               0.0
 (Enter /usr/site/hpc/x86_64/glibc-2.17/broadwell/gaussian/g16_a.03/pgi-16.5/g16/l401.exe)
 ExpMin= 1.78D-01 ExpMax= 1.92D+01 ExpMxC= 1.92D+01 IAcc=3 IRadAn=         5 AccDes= 0.00D+00
 Harris functional with IExCor=  205 and IRadAn=       5 diagonalized for initial guess.
 HarFok:  IExCor=  205 AccDes= 0.00D+00 IRadAn=         5 IDoV= 1 UseB2=F ITyADJ=14
 ICtDFT=  3500011 ScaDFX=  1.000000  1.000000  1.000000  1.000000
 FoFCou: FMM=F IPFlag=           0 FMFlag=      100000 FMFlg1=           0
         NFxFlg=           0 DoJE=T BraDBF=F KetDBF=T FulRan=T
         wScrn=  0.000000 ICntrl=       500 IOpCl=  0 I1Cent=   200000004 NGrid=           0
         NMat0=    1 NMatS0=      1 NMatT0=    0 NMatD0=    1 NMtDS0=    0 NMtDT0=    0
 Petite list used in FoFCou.
 Harris En= -34.4766358051447    
 JPrj=0 DoOrth=F DoCkMO=F.
 Initial guess orbital symmetries:
       Occupied  (A') (A') (A') (A') (A') (A') (A") (A")
       Virtual   (A') (A') (A') (A') (A") (A") (A') (A') (A') (A')
                 (A') (A') (A') (A') (A') (A')
 The electronic state of the initial guess is 1-A'.
 Leave Link  401 at Sun Dec 10 06:23:59 2023, MaxMem=   536870912 cpu:               0.4 elap:               0.1
 (Enter /usr/site/hpc/x86_64/glibc-2.17/broadwell/gaussian/g16_a.03/pgi-16.5/g16/l502.exe)
 Keep R1 ints in memory in symmetry-blocked form, NReq=852266.
 FoFCou: FMM=F IPFlag=           0 FMFlag=           0 FMFlg1=           0
         NFxFlg=           0 DoJE=F BraDBF=F KetDBF=F FulRan=T
         wScrn=  0.000000 ICntrl=       600 IOpCl=  0 I1Cent=           0 NGrid=           0
         NMat0=    1 NMatS0=    300 NMatT0=    0 NMatD0=    1 NMtDS0=    0 NMtDT0=    0
 Petite list used in FoFCou.
 Closed shell SCF:
 Using DIIS extrapolation, IDIIS=  1040.
 NGot=   536870912 LenX=   536840576 LenY=   536839559
 Requested convergence on RMS density matrix=1.00D-08 within 128 cycles.
 Requested convergence on MAX density matrix=1.00D-06.
 Requested convergence on             energy=1.00D-06.
 No special actions if energy rises.

 Cycle   1  Pass 1  IDiag  1:
 E= -33.5621919509538    
 DIIS: error= 6.79D-02 at cycle   1 NSaved=   1.
 NSaved= 1 IEnMin= 1 EnMin= -33.5621919509538     IErMin= 1 ErrMin= 6.79D-02
 ErrMax= 6.79D-02  0.00D+00 EMaxC= 1.00D-01 BMatC= 1.01D-01 BMatP= 1.01D-01
 IDIUse=3 WtCom= 3.21D-01 WtEn= 6.79D-01
 Coeff-Com:  0.100D+01
 Coeff-En:   0.100D+01
 Coeff:      0.100D+01
 Gap=     0.592 Goal=   None    Shift=    0.000
 GapD=    0.592 DampG=2.000 DampE=0.500 DampFc=1.0000 IDamp=-1.
 RMSDP=1.46D-02 MaxDP=1.18D-01              OVMax= 9.80D-02

 Cycle   2  Pass 1  IDiag  1:
 E= -33.6238154073825     Delta-E=       -0.061623456429 Rises=F Damp=F
 DIIS: error= 3.69D-02 at cycle   2 NSaved=   2.
 NSaved= 2 IEnMin= 2 EnMin= -33.6238154073825     IErMin= 2 ErrMin= 3.69D-02
 ErrMax= 3.69D-02  0.00D+00 EMaxC= 1.00D-01 BMatC= 3.74D-02 BMatP= 1.01D-01
 IDIUse=3 WtCom= 6.31D-01 WtEn= 3.69D-01
 Coeff-Com:  0.376D+00 0.624D+00
 Coeff-En:   0.110D+00 0.890D+00
 Coeff:      0.278D+00 0.722D+00
 Gap=     0.677 Goal=   None    Shift=    0.000
 RMSDP=6.33D-03 MaxDP=5.36D-02 DE=-6.16D-02 OVMax= 3.54D-02

 Cycle   3  Pass 1  IDiag  1:
 E= -33.6537706044756     Delta-E=       -0.029955197093 Rises=F Damp=F
 DIIS: error= 7.00D-03 at cycle   3 NSaved=   3.
 NSaved= 3 IEnMin= 3 EnMin= -33.6537706044756     IErMin= 3 ErrMin= 7.00D-03
 ErrMax= 7.00D-03  0.00D+00 EMaxC= 1.00D-01 BMatC= 8.63D-04 BMatP= 3.74D-02
 IDIUse=3 WtCom= 9.30D-01 WtEn= 7.00D-02
 Coeff-Com: -0.113D+00-0.170D-01 0.113D+01
 Coeff-En:   0.000D+00 0.000D+00 0.100D+01
 Coeff:     -0.105D+00-0.158D-01 0.112D+01
 Gap=     0.670 Goal=   None    Shift=    0.000
 RMSDP=1.03D-03 MaxDP=8.92D-03 DE=-3.00D-02 OVMax= 7.87D-03

 Cycle   4  Pass 1  IDiag  1:
 E= -33.6546262674480     Delta-E=       -0.000855662972 Rises=F Damp=F
 DIIS: error= 7.23D-04 at cycle   4 NSaved=   4.
 NSaved= 4 IEnMin= 4 EnMin= -33.6546262674480     IErMin= 4 ErrMin= 7.23D-04
 ErrMax= 7.23D-04  0.00D+00 EMaxC= 1.00D-01 BMatC= 5.51D-06 BMatP= 8.63D-04
 IDIUse=3 WtCom= 9.93D-01 WtEn= 7.23D-03
 Coeff-Com:  0.435D-01-0.171D-01-0.529D+00 0.150D+01
 Coeff-En:   0.000D+00 0.000D+00 0.000D+00 0.100D+01
 Coeff:      0.431D-01-0.169D-01-0.526D+00 0.150D+01
 Gap=     0.671 Goal=   None    Shift=    0.000
 RMSDP=2.31D-04 MaxDP=1.97D-03 DE=-8.56D-04 OVMax= 9.50D-04

 Cycle   5  Pass 1  IDiag  1:
 E= -33.6546386817593     Delta-E=       -0.000012414311 Rises=F Damp=F
 DIIS: error= 4.87D-05 at cycle   5 NSaved=   5.
 NSaved= 5 IEnMin= 5 EnMin= -33.6546386817593     IErMin= 5 ErrMin= 4.87D-05
 ErrMax= 4.87D-05  0.00D+00 EMaxC= 1.00D-01 BMatC= 3.90D-08 BMatP= 5.51D-06
 IDIUse=1 WtCom= 1.00D+00 WtEn= 0.00D+00
 Coeff-Com: -0.493D-02 0.228D-02 0.614D-01-0.222D+00 0.116D+01
 Coeff:     -0.493D-02 0.228D-02 0.614D-01-0.222D+00 0.116D+01
 Gap=     0.672 Goal=   None    Shift=    0.000
 RMSDP=1.53D-05 MaxDP=1.67D-04 DE=-1.24D-05 OVMax= 1.10D-04

 Cycle   6  Pass 1  IDiag  1:
 E= -33.6546387676417     Delta-E=       -0.000000085882 Rises=F Damp=F
 DIIS: error= 1.07D-05 at cycle   6 NSaved=   6.
 NSaved= 6 IEnMin= 6 EnMin= -33.6546387676417     IErMin= 6 ErrMin= 1.07D-05
 ErrMax= 1.07D-05  0.00D+00 EMaxC= 1.00D-01 BMatC= 5.07D-09 BMatP= 3.90D-08
 IDIUse=1 WtCom= 1.00D+00 WtEn= 0.00D+00
 Coeff-Com: -0.258D-02 0.115D-02 0.319D-01-0.995D-01 0.211D+00 0.858D+00
 Coeff:     -0.258D-02 0.115D-02 0.319D-01-0.995D-01 0.211D+00 0.858D+00
 Gap=     0.672 Goal=   None    Shift=    0.000
 RMSDP=3.41D-06 MaxDP=3.04D-05 DE=-8.59D-08 OVMax= 3.41D-05

 Cycle   7  Pass 1  IDiag  1:
 E= -33.6546387749367     Delta-E=       -0.000000007295 Rises=F Damp=F
 DIIS: error= 5.20D-06 at cycle   7 NSaved=   7.
 NSaved= 7 IEnMin= 7 EnMin= -33.6546387749367     IErMin= 7 ErrMin= 5.20D-06
 ErrMax= 5.20D-06  0.00D+00 EMaxC= 1.00D-01 BMatC= 6.38D-10 BMatP= 5.07D-09
 IDIUse=1 WtCom= 1.00D+00 WtEn= 0.00D+00
 Coeff-Com:  0.881D-03-0.354D-03-0.108D-01 0.376D-01-0.189D+00 0.995D-02
 Coeff-Com:  0.115D+01
 Coeff:      0.881D-03-0.354D-03-0.108D-01 0.376D-01-0.189D+00 0.995D-02
 Coeff:      0.115D+01
 Gap=     0.672 Goal=   None    Shift=    0.000
 RMSDP=1.91D-06 MaxDP=1.66D-05 DE=-7.29D-09 OVMax= 1.82D-05

 Cycle   8  Pass 1  IDiag  1:
 E= -33.6546387763585     Delta-E=       -0.000000001422 Rises=F Damp=F
 DIIS: error= 1.03D-06 at cycle   8 NSaved=   8.
 NSaved= 8 IEnMin= 8 EnMin= -33.6546387763585     IErMin= 8 ErrMin= 1.03D-06
 ErrMax= 1.03D-06  0.00D+00 EMaxC= 1.00D-01 BMatC= 2.30D-11 BMatP= 6.38D-10
 IDIUse=1 WtCom= 1.00D+00 WtEn= 0.00D+00
 Coeff-Com:  0.110D-05-0.242D-04-0.705D-04-0.613D-03 0.272D-01-0.537D-01
 Coeff-Com: -0.258D+00 0.129D+01
 Coeff:      0.110D-05-0.242D-04-0.705D-04-0.613D-03 0.272D-01-0.537D-01
 Coeff:     -0.258D+00 0.129D+01
 Gap=     0.672 Goal=   None    Shift=    0.000
 RMSDP=5.24D-07 MaxDP=2.91D-06 DE=-1.42D-09 OVMax= 4.05D-06

 Cycle   9  Pass 1  IDiag  1:
 E= -33.6546387764212     Delta-E=       -0.000000000063 Rises=F Damp=F
 DIIS: error= 1.36D-07 at cycle   9 NSaved=   9.
 NSaved= 9 IEnMin= 9 EnMin= -33.6546387764212     IErMin= 9 ErrMin= 1.36D-07
 ErrMax= 1.36D-07  0.00D+00 EMaxC= 1.00D-01 BMatC= 6.07D-13 BMatP= 2.30D-11
 IDIUse=1 WtCom= 1.00D+00 WtEn= 0.00D+00
 Coeff-Com:  0.380D-05 0.623D-05-0.194D-04 0.331D-03-0.101D-01 0.212D-01
 Coeff-Com:  0.948D-01-0.543D+00 0.144D+01
 Coeff:      0.380D-05 0.623D-05-0.194D-04 0.331D-03-0.101D-01 0.212D-01
 Coeff:      0.948D-01-0.543D+00 0.144D+01
 Gap=     0.672 Goal=   None    Shift=    0.000
 RMSDP=1.15D-07 MaxDP=4.99D-07 DE=-6.26D-11 OVMax= 7.74D-07

 Cycle  10  Pass 1  IDiag  1:
 E= -33.6546387764228     Delta-E=       -0.000000000002 Rises=F Damp=F
 DIIS: error= 9.20D-09 at cycle  10 NSaved=  10.
 NSaved=10 IEnMin=10 EnMin= -33.6546387764228     IErMin=10 ErrMin= 9.20D-09
 ErrMax= 9.20D-09  0.00D+00 EMaxC= 1.00D-01 BMatC= 3.62D-15 BMatP= 6.07D-13
 IDIUse=1 WtCom= 1.00D+00 WtEn= 0.00D+00
 Coeff-Com:  0.217D-06-0.162D-05-0.853D-05-0.256D-04 0.195D-02-0.454D-02
 Coeff-Com: -0.192D-01 0.114D+00-0.363D+00 0.127D+01
 Coeff:      0.217D-06-0.162D-05-0.853D-05-0.256D-04 0.195D-02-0.454D-02
 Coeff:     -0.192D-01 0.114D+00-0.363D+00 0.127D+01
 Gap=     0.672 Goal=   None    Shift=    0.000
 RMSDP=1.25D-08 MaxDP=6.18D-08 DE=-1.66D-12 OVMax= 7.66D-08

 Cycle  11  Pass 1  IDiag  1:
 E= -33.6546387764228     Delta-E=        0.000000000000 Rises=F Damp=F
 DIIS: error= 5.45D-10 at cycle  11 NSaved=  11.
 NSaved=11 IEnMin=10 EnMin= -33.6546387764228     IErMin=11 ErrMin= 5.45D-10
 ErrMax= 5.45D-10  0.00D+00 EMaxC= 1.00D-01 BMatC= 1.24D-17 BMatP= 3.62D-15
 IDIUse=1 WtCom= 1.00D+00 WtEn= 0.00D+00
 Coeff-Com: -0.796D-07 0.285D-06 0.192D-05 0.271D-05-0.329D-03 0.784D-03
 Coeff-Com:  0.327D-02-0.197D-01 0.642D-01-0.258D+00 0.121D+01
 Coeff:     -0.796D-07 0.285D-06 0.192D-05 0.271D-05-0.329D-03 0.784D-03
 Coeff:      0.327D-02-0.197D-01 0.642D-01-0.258D+00 0.121D+01
 Gap=     0.672 Goal=   None    Shift=    0.000
 RMSDP=5.38D-10 MaxDP=2.91D-09 DE= 1.42D-14 OVMax= 3.11D-09

 SCF Done:  E(RHF) =  -33.6546387764     A.U. after   11 cycles
            NFock= 11  Conv=0.54D-09     -V/T= 2.2569
 KE= 2.677669300822D+01 PE=-1.244720496043D+02 EE= 4.260800378010D+01
 Leave Link  502 at Sun Dec 10 06:23:59 2023, MaxMem=   536870912 cpu:               0.3 elap:               0.1
 (Enter /usr/site/hpc/x86_64/glibc-2.17/broadwell/gaussian/g16_a.03/pgi-16.5/g16/l801.exe)
 Windowed orbitals will be sorted by symmetry type.
 Range of M.O.s used for correlation:     1    24
 NBasis=    24 NAE=     8 NBE=     8 NFC=     0 NFV=     0
 NROrb=     24 NOA=     8 NOB=     8 NVA=    16 NVB=    16
 Leave Link  801 at Sun Dec 10 06:23:59 2023, MaxMem=   536870912 cpu:               0.1 elap:               0.0
 (Enter /usr/site/hpc/x86_64/glibc-2.17/broadwell/gaussian/g16_a.03/pgi-16.5/g16/l804.exe)
 Closed-shell transformation, MDV=   536870912 ITran=4 ISComp=2.
 Unit  1 TFree=       1025975 TCopy=        210600.
 Semi-Direct transformation.
 ModeAB=           2 MOrb=             8 LenV=     536742067
 LASXX=        22470 LTotXX=       22470 LenRXX=       22470
 LTotAB=       26208 MaxLAS=       57600 LenRXY=       57600
 NonZer=       61248 LenScr=      524288 LnRSAI=           0
 LnScr1=           0 LExtra=           0 Total=       604358
 MaxDsk=          -1 SrtSym=           F ITran=            4
 DoSDTr:  NPSUse=  4
 JobTyp=0 Pass  1:  I=   1 to   8.
 (rs|ai) integrals will be sorted in core.
 Complete sort for first half transformation.
 First half transformation complete.
 Complete sort for second half transformation.
 Second half transformation complete.
 Spin components of T(2) and E(2):
     alpha-alpha T2 =       0.9073249102D-02 E2=     -0.2592394688D-01
     alpha-beta  T2 =       0.5984177445D-01 E2=     -0.1765442225D+00
     beta-beta   T2 =       0.9073249102D-02 E2=     -0.2592394688D-01
 ANorm=    0.1038262141D+01
 E2 =    -0.2283921163D+00 EUMP2 =    -0.33883030892693D+02
 Leave Link  804 at Sun Dec 10 06:23:59 2023, MaxMem=   536870912 cpu:               0.2 elap:               0.1
 (Enter /usr/site/hpc/x86_64/glibc-2.17/broadwell/gaussian/g16_a.03/pgi-16.5/g16/l913.exe)
 CIDS:  MDV=   536870912.
 IFCWin=0 IBDFC=1 NFBD=     0     0 NFCmp=     0     0 NFFFC=     0     0
 Using DD3R+UMP44R for 1st iteration.
 Using DD4RQ for 2nd and later iterations.
 Keep R2 and R3 ints in memory in symmetry-blocked form, NReq=864874.
 FoFCou: FMM=F IPFlag=           0 FMFlag=           0 FMFlg1=           0
         NFxFlg=           0 DoJE=F BraDBF=F KetDBF=F FulRan=T
         wScrn=  0.000000 ICntrl=       600 IOpCl=  0 I1Cent=           0 NGrid=           0
         NMat0=    1 NMatS0=    300 NMatT0=    0 NMatD0=    1 NMtDS0=    0 NMtDT0=    0
 Petite list used in FoFCou.
 CIDS: In Core Option IDoMem=           1.
 CCSD(T)
 =======
 Iterations=  50 Convergence= 0.100D-06
 Produce multiple copies of IABC intergrals
 Iteration Nr.   1
 **********************
 DD1Dir will call FoFMem   1 times, MxPair=        72
 NAB=    36 NAA=     0 NBB=     0.
 MP4(R+Q)= -0.74981975D-03
 Maximum subspace dimension=  5
 A-vector RMS=  5.7866382D-03 Max=  1.3175086D-02 conv= 1.00D-05.
 RLE energy=       -0.2343940834
 E3=       -0.53751393D-02        EUMP3=      -0.33888406032D+02
 E4(DQ)=   -0.59011614D-02        UMP4(DQ)=   -0.33894307193D+02
 E4(SDQ)=  -0.79454969D-02        UMP4(SDQ)=  -0.33896351529D+02
 VARIATIONAL ENERGIES WITH THE FIRST-ORDER WAVEFUNCTION:
 DE(Corr)= -0.23424074     E(Corr)=     -33.888879516    
 NORM(A)=   0.10416761D+01
 Iteration Nr.   2
 **********************
 DD1Dir will call FoFMem   1 times, MxPair=        72
 NAB=    36 NAA=     0 NBB=     0.
 A-vector RMS=  9.7832016D-04 Max=  2.6286474D-03 conv= 1.00D-05.
 RLE energy=       -0.2421551254
 DE(Corr)= -0.24022347     E(CORR)=     -33.894862245     Delta=-5.98D-03
 NORM(A)=   0.10454548D+01
 Iteration Nr.   3
 **********************
 DD1Dir will call FoFMem   1 times, MxPair=        72
 NAB=    36 NAA=     0 NBB=     0.
 A-vector RMS=  3.8257865D-04 Max=  9.8596822D-04 conv= 1.00D-05.
 RLE energy=       -0.2427059033
 DE(Corr)= -0.24225788     E(CORR)=     -33.896896659     Delta=-2.03D-03
 NORM(A)=   0.10460132D+01
 Iteration Nr.   4
 **********************
 DD1Dir will call FoFMem   1 times, MxPair=        72
 NAB=    36 NAA=     0 NBB=     0.
 A-vector RMS=  9.3837528D-05 Max=  2.5979732D-04 conv= 1.00D-05.
 RLE energy=       -0.2427529907
 DE(Corr)= -0.24271728     E(CORR)=     -33.897356053     Delta=-4.59D-04
 NORM(A)=   0.10460853D+01
 Iteration Nr.   5
 **********************
 DD1Dir will call FoFMem   1 times, MxPair=        72
 NAB=    36 NAA=     0 NBB=     0.
 A-vector RMS=  4.1027845D-05 Max=  1.2661106D-04 conv= 1.00D-05.
 RLE energy=       -0.2427517421
 DE(Corr)= -0.24274936     E(CORR)=     -33.897388140     Delta=-3.21D-05
 NORM(A)=   0.10460952D+01
 Iteration Nr.   6
 **********************
 DD1Dir will call FoFMem   1 times, MxPair=        72
 NAB=    36 NAA=     0 NBB=     0.
 A-vector RMS=  1.3445326D-05 Max=  4.8619386D-05 conv= 1.00D-05.
 RLE energy=       -0.2427496446
 DE(Corr)= -0.24275169     E(CORR)=     -33.897390471     Delta=-2.33D-06
 NORM(A)=   0.10460980D+01
 Iteration Nr.   7
 **********************
 DD1Dir will call FoFMem   1 times, MxPair=        72
 NAB=    36 NAA=     0 NBB=     0.
 A-vector RMS=  4.3322379D-06 Max=  1.1362911D-05 conv= 1.00D-05.
 RLE energy=       -0.2427511059
 DE(Corr)= -0.24275116     E(CORR)=     -33.897389936     Delta= 5.35D-07
 NORM(A)=   0.10460996D+01
 Iteration Nr.   8
 **********************
 DD1Dir will call FoFMem   1 times, MxPair=        72
 NAB=    36 NAA=     0 NBB=     0.
 A-vector RMS=  1.3705333D-06 Max=  4.6326311D-06 conv= 1.00D-05.
 RLE energy=       -0.2427508309
 DE(Corr)= -0.24275097     E(CORR)=     -33.897389744     Delta= 1.93D-07
 NORM(A)=   0.10460999D+01
 Iteration Nr.   9
 **********************
 DD1Dir will call FoFMem   1 times, MxPair=        72
 NAB=    36 NAA=     0 NBB=     0.
 A-vector RMS=  3.0313116D-07 Max=  1.1276769D-06 conv= 1.00D-05.
 RLE energy=       -0.2427510289
 DE(Corr)= -0.24275105     E(CORR)=     -33.897389827     Delta=-8.27D-08
 NORM(A)=   0.10461001D+01
 CI/CC converged in    9 iterations to DelEn=-8.27D-08 Conv= 1.00D-07 ErrA1= 3.03D-07 Conv= 1.00D-05
 Wavefunction amplitudes converged. E(Corr)=     -33.897389827    
 Largest amplitude= 5.81D-02
 IPart=  3 IA=    2   12.50% done.
 IPart=  2 IA=    3   24.17% done.
 IPart=  4 IA=    4   35.00% done.
 IPart=  4 IA=    5   45.00% done.
 IPart=  2 IA=    6   54.17% done.
 IPart=  3 IA=    7   62.50% done.
 IPart=  1 IA=    8   70.00% done.
 IPart=  3 IA=   10   82.50% done.
 IPart=  4 IA=   12   91.67% done.
 Time for triples=        0.26 seconds.
 T4(CCSD)= -0.31034448D-02
 T5(CCSD)=  0.53037510D-03
 CCSD(T)= -0.33899962896D+02
 Discarding MO integrals.
 Leave Link  913 at Sun Dec 10 06:23:59 2023, MaxMem=   536870912 cpu:               0.9 elap:               0.2
 (Enter /usr/site/hpc/x86_64/glibc-2.17/broadwell/gaussian/g16_a.03/pgi-16.5/g16/l601.exe)
 Copying SCF densities to generalized density rwf, IOpCl= 0 IROHF=0.

 **********************************************************************

            Population analysis using the SCF density.

 **********************************************************************

 Orbital symmetries:
       Occupied  (A') (A') (A') (A') (A') (A') (A") (A")
       Virtual   (A') (A') (A') (A') (A") (A") (A') (A') (A') (A')
                 (A') (A') (A') (A') (A') (A')
 The electronic state is 1-A'.
 Alpha  occ. eigenvalues --   -1.36831  -1.34118  -0.72490  -0.69719  -0.56739
 Alpha  occ. eigenvalues --   -0.53909  -0.51440  -0.48722
 Alpha virt. eigenvalues --    0.18448   0.22333   0.29287   0.32412   0.79129
 Alpha virt. eigenvalues --    0.81783   0.82885   0.84835   0.85257   0.88113
 Alpha virt. eigenvalues --    1.16141   1.19241   1.20579   1.26914   2.55714
 Alpha virt. eigenvalues --    2.62375
          Condensed to atoms (all electrons):
               1          2          3          4          5          6
     1  O    6.224589   0.267124   0.261041  -0.000138   0.000002   0.000008
     2  H    0.267124   0.366455  -0.023033   0.001086  -0.000011  -0.000045
     3  H    0.261041  -0.023033   0.398766   0.000000   0.000000   0.000000
     4  O   -0.000138   0.001086   0.000000   6.219539   0.267522   0.262939
     5  H    0.000002  -0.000011   0.000000   0.267522   0.375492  -0.023147
     6  H    0.000008  -0.000045   0.000000   0.262939  -0.023147   0.388462
 Mulliken charges:
               1
     1  O   -0.752626
     2  H    0.388424
     3  H    0.363225
     4  O   -0.750948
     5  H    0.380143
     6  H    0.371782
 Sum of Mulliken charges =  -0.00000
 Mulliken charges with hydrogens summed into heavy atoms:
               1
     1  O   -0.000977
     4  O    0.000977
 Electronic spatial extent (au):  <R**2>=            306.3237
 Charge=             -0.0000 electrons
 Dipole moment (field-independent basis, Debye):
    X=             -3.2012    Y=             -4.0861    Z=             -0.0000  Tot=              5.1907
 Quadrupole moment (field-independent basis, Debye-Ang):
   XX=            -10.0295   YY=             -7.1896   ZZ=            -14.9939
   XY=             -4.3862   XZ=             -0.0000   YZ=              0.0000
 Traceless Quadrupole moment (field-independent basis, Debye-Ang):
   XX=              0.7082   YY=              3.5481   ZZ=             -4.2562
   XY=             -4.3862   XZ=             -0.0000   YZ=              0.0000
 Octapole moment (field-independent basis, Debye-Ang**2):
  XXX=             -3.5083  YYY=            -53.5557  ZZZ=             -0.0000  XYY=            -15.7304
  XXY=             -3.1470  XXZ=             -0.0000  XZZ=             -0.5998  YZZ=             -0.7945
  YYZ=             -0.0000  XYZ=             -0.0000
 Hexadecapole moment (field-independent basis, Debye-Ang**3):
 XXXX=            -12.2692 YYYY=           -284.3119 ZZZZ=            -12.2307 XXXY=              0.0239
 XXXZ=              0.0000 YYYX=            -44.3434 YYYZ=             -0.0000 ZZZX=              0.0000
 ZZZY=             -0.0000 XXYY=            -46.5292 XXZZ=             -4.5594 YYZZ=            -74.2993
 XXYZ=             -0.0000 YYXZ=             -0.0000 ZZXY=              0.3673
 N-N= 2.143271403958D+01 E-N=-1.244720496048D+02  KE= 2.677669300822D+01
 Symmetry A'   KE= 1.789837812034D+01
 Symmetry A"   KE= 8.878314887881D+00
 Leave Link  601 at Sun Dec 10 06:23:59 2023, MaxMem=   536870912 cpu:               0.1 elap:               0.0
 (Enter /usr/site/hpc/x86_64/glibc-2.17/broadwell/gaussian/g16_a.03/pgi-16.5/g16/l9999.exe)
 1\1\GINC-N033\SP\RCCSD(T)-FC\CEP-31G\H4O2\ROOT\10-Dec-2023\0\\#p CCSD(
 T)/CEP-31G\\H2O_H2O_2833\\0,1\O,0,0.,-0.009833,0.\H,0,-0.799571,-0.580
 965,0.\H,0,0.799571,-0.580965,0.\O,0,-3.499567,-2.504737,0.\H,0,-4.477
 582,-2.599566,0.\H,0,-3.092684,-3.399137,0.\\Version=ES64L-G16RevA.03\
 State=1-A'\HF=-33.6546388\MP2=-33.8830309\MP3=-33.888406\MP4D=-33.8935
 574\MP4DQ=-33.8943072\MP4SDQ=-33.8963515\CCSD=-33.8973898\CCSD(T)=-33.
 8999629\RMSD=5.379e-10\PG=CS [SG(H4O2)]\\@


 KNOWLEDGE IS CHIMERA - FOR BEYOND IT LIES OTHER KNOWLEDGE,
 AND THE INCOMPLETENESS OF WHAT IS KNOWN RENDERS THE KNOWING FALSE.
     -- THE THOMAS COVENANT CHRONICLES
 Job cpu time:       0 days  0 hours  0 minutes  3.2 seconds.
 Elapsed time:       0 days  0 hours  0 minutes  1.0 seconds.
 File lengths (MBytes):  RWF=     72 Int=      0 D2E=      0 Chk=      8 Scr=      8
 Normal termination of Gaussian 16 at Sun Dec 10 06:23:59 2023.
