 Entering Gaussian System, Link 0=g16
 Input=H2O_H2O_4601.com
 Output=H2O_H2O_4601.log
 Initial command:
 /usr/site/hpc/x86_64/glibc-2.17/broadwell/gaussian/g16_a.03/pgi-16.5/g16/l1.exe "/gpfs/gpfs1/scratch/c7441090/OH Coord/Gau-1307837.inp" -scrdir="/gpfs/gpfs1/scratch/c7441090/OH Coord/"
 Entering Link 1 = /usr/site/hpc/x86_64/glibc-2.17/broadwell/gaussian/g16_a.03/pgi-16.5/g16/l1.exe PID=   1307838.
  
 Copyright (c) 1988,1990,1992,1993,1995,1998,2003,2009,2016,
            Gaussian, Inc.  All Rights Reserved.
  
 This is part of the Gaussian(R) 16 program.  It is based on
 the Gaussian(R) 09 system (copyright 2009, Gaussian, Inc.),
 the Gaussian(R) 03 system (copyright 2003, Gaussian, Inc.),
 the Gaussian(R) 98 system (copyright 1998, Gaussian, Inc.),
 the Gaussian(R) 94 system (copyright 1995, Gaussian, Inc.),
 the Gaussian 92(TM) system (copyright 1992, Gaussian, Inc.),
 the Gaussian 90(TM) system (copyright 1990, Gaussian, Inc.),
 the Gaussian 88(TM) system (copyright 1988, Gaussian, Inc.),
 the Gaussian 86(TM) system (copyright 1986, Carnegie Mellon
 University), and the Gaussian 82(TM) system (copyright 1983,
 Carnegie Mellon University). Gaussian is a federally registered
 trademark of Gaussian, Inc.
  
 This software contains proprietary and confidential information,
 including trade secrets, belonging to Gaussian, Inc.
  
 This software is provided under written license and may be
 used, copied, transmitted, or stored only in accord with that
 written license.
  
 The following legend is applicable only to US Government
 contracts under FAR:
  
                    RESTRICTED RIGHTS LEGEND
  
 Use, reproduction and disclosure by the US Government is
 subject to restrictions as set forth in subparagraphs (a)
 and (c) of the Commercial Computer Software - Restricted
 Rights clause in FAR 52.227-19.
  
 Gaussian, Inc.
 340 Quinnipiac St., Bldg. 40, Wallingford CT 06492
  
  
 ---------------------------------------------------------------
 Warning -- This program may not be used in any manner that
 competes with the business of Gaussian, Inc. or will provide
 assistance to any competitor of Gaussian, Inc.  The licensee
 of this program is prohibited from giving any competitor of
 Gaussian, Inc. access to this program.  By using this program,
 the user acknowledges that Gaussian, Inc. is engaged in the
 business of creating and licensing software in the field of
 computational chemistry and represents and warrants to the
 licensee that it is not a competitor of Gaussian, Inc. and that
 it will not use this program in any manner prohibited above.
 ---------------------------------------------------------------
  

 Cite this work as:
 Gaussian 16, Revision A.03,
 M. J. Frisch, G. W. Trucks, H. B. Schlegel, G. E. Scuseria, 
 M. A. Robb, J. R. Cheeseman, G. Scalmani, V. Barone, 
 G. A. Petersson, H. Nakatsuji, X. Li, M. Caricato, A. V. Marenich, 
 J. Bloino, B. G. Janesko, R. Gomperts, B. Mennucci, H. P. Hratchian, 
 J. V. Ortiz, A. F. Izmaylov, J. L. Sonnenberg, D. Williams-Young, 
 F. Ding, F. Lipparini, F. Egidi, J. Goings, B. Peng, A. Petrone, 
 T. Henderson, D. Ranasinghe, V. G. Zakrzewski, J. Gao, N. Rega, 
 G. Zheng, W. Liang, M. Hada, M. Ehara, K. Toyota, R. Fukuda, 
 J. Hasegawa, M. Ishida, T. Nakajima, Y. Honda, O. Kitao, H. Nakai, 
 T. Vreven, K. Throssell, J. A. Montgomery, Jr., J. E. Peralta, 
 F. Ogliaro, M. J. Bearpark, J. J. Heyd, E. N. Brothers, K. N. Kudin, 
 V. N. Staroverov, T. A. Keith, R. Kobayashi, J. Normand, 
 K. Raghavachari, A. P. Rendell, J. C. Burant, S. S. Iyengar, 
 J. Tomasi, M. Cossi, J. M. Millam, M. Klene, C. Adamo, R. Cammi, 
 J. W. Ochterski, R. L. Martin, K. Morokuma, O. Farkas, 
 J. B. Foresman, and D. J. Fox, Gaussian, Inc., Wallingford CT, 2016.
 
 ******************************************
 Gaussian 16:  ES64L-G16RevA.03 25-Dec-2016
                10-Dec-2023 
 ******************************************
 %NProcShared=4
 Will use up to    4 processors via shared memory.
 %Mem=4GB
 %Chk=H2O_H2O_4601.chk
 ------------------
 #p CCSD(T)/CEP-31G
 ------------------
 1/38=1,172=1/1;
 2/12=2,17=6,18=5,40=1/2;
 3/5=9,6=1,11=9,25=1,30=1/1,2,3;
 4//1;
 5/5=2,38=5/2;
 8/6=4,9=120000,10=1/1,4;
 9/5=7,14=2/13;
 6/7=2,8=2,9=2,10=2/1;
 99/5=1,9=1/99;
 Leave Link    1 at Sun Dec 10 06:55:48 2023, MaxMem=   536870912 cpu:               0.2 elap:               0.1
 (Enter /usr/site/hpc/x86_64/glibc-2.17/broadwell/gaussian/g16_a.03/pgi-16.5/g16/l101.exe)
 ------------
 H2O_H2O_4601
 ------------
 Symbolic Z-matrix:
 Charge =  0 Multiplicity = 1
 O                     0.       -0.00983   0. 
 H                    -0.79957  -0.58097   0. 
 H                     0.79957  -0.58097   0. 
 O                    -4.64755  -3.32908   0. 
 H                    -5.48276  -3.8467    0. 
 H                    -3.88704  -3.95129   0. 
 
 ITRead=  0  0  0  0  0  0
 MicOpt= -1 -1 -1 -1 -1 -1
 NAtoms=      6 NQM=        6 NQMF=       0 NMMI=      0 NMMIF=      0
                NMic=       0 NMicF=      0.
                    Isotopes and Nuclear Properties:
 (Nuclear quadrupole moments (NQMom) in fm**2, nuclear magnetic moments (NMagM)
  in nuclear magnetons)

  Atom         1           2           3           4           5           6
 IAtWgt=          16           1           1          16           1           1
 AtmWgt=  15.9949146   1.0078250   1.0078250  15.9949146   1.0078250   1.0078250
 NucSpn=           0           1           1           0           1           1
 AtZEff=  -0.0000000  -0.0000000  -0.0000000  -0.0000000  -0.0000000  -0.0000000
 NQMom=    0.0000000   0.0000000   0.0000000   0.0000000   0.0000000   0.0000000
 NMagM=    0.0000000   2.7928460   2.7928460   0.0000000   2.7928460   2.7928460
 AtZNuc=   8.0000000   1.0000000   1.0000000   8.0000000   1.0000000   1.0000000
 Leave Link  101 at Sun Dec 10 06:55:48 2023, MaxMem=   536870912 cpu:               0.3 elap:               0.1
 (Enter /usr/site/hpc/x86_64/glibc-2.17/broadwell/gaussian/g16_a.03/pgi-16.5/g16/l202.exe)
                          Input orientation:                          
 ---------------------------------------------------------------------
 Center     Atomic      Atomic             Coordinates (Angstroms)
 Number     Number       Type             X           Y           Z
 ---------------------------------------------------------------------
      1          8           0        0.000000   -0.009833    0.000000
      2          1           0       -0.799571   -0.580965    0.000000
      3          1           0        0.799571   -0.580965    0.000000
      4          8           0       -4.647546   -3.329084    0.000000
      5          1           0       -5.482759   -3.846698    0.000000
      6          1           0       -3.887040   -3.951287    0.000000
 ---------------------------------------------------------------------
                    Distance matrix (angstroms):
                    1          2          3          4          5
     1  O    0.000000
     2  H    0.982601   0.000000
     3  H    0.982601   1.599142   0.000000
     4  O    5.711139   4.728538   6.101085   0.000000
     5  H    6.691949   5.709401   7.080444   0.982601   0.000000
     6  H    5.535715   4.570726   5.772642   0.982602   1.599143
                    6
     6  H    0.000000
 Stoichiometry    H4O2
 Framework group  CS[SG(H4O2)]
 Deg. of freedom     9
 Full point group                 CS      NOp   2
 Largest Abelian subgroup         CS      NOp   2
 Largest concise Abelian subgroup C1      NOp   1
                         Standard orientation:                         
 ---------------------------------------------------------------------
 Center     Atomic      Atomic             Coordinates (Angstroms)
 Number     Number       Type             X           Y           Z
 ---------------------------------------------------------------------
      1          8           0        0.090683   -2.924925    0.000000
      2          1           0        0.090616   -1.942324    0.000000
      3          1           0       -0.838788   -3.243656    0.000000
      4          8           0        0.090683    2.786214    0.000000
      5          1           0        0.154882    3.766716    0.000000
      6          1           0       -0.857644    2.528955    0.000000
 ---------------------------------------------------------------------
 Rotational constants (GHZ):         299.7123446           1.7066290           1.6969661
 Leave Link  202 at Sun Dec 10 06:55:48 2023, MaxMem=   536870912 cpu:               0.0 elap:               0.0
 (Enter /usr/site/hpc/x86_64/glibc-2.17/broadwell/gaussian/g16_a.03/pgi-16.5/g16/l301.exe)
 Standard basis: CEP-31G (6D, 10F)
 Ernie: Thresh=  0.10000D-02 Tol=  0.10000D-05 Strict=F.
 There are    20 symmetry adapted cartesian basis functions of A'  symmetry.
 There are     4 symmetry adapted cartesian basis functions of A"  symmetry.
 There are    20 symmetry adapted basis functions of A'  symmetry.
 There are     4 symmetry adapted basis functions of A"  symmetry.
    24 basis functions,    48 primitive gaussians,    24 cartesian basis functions
     8 alpha electrons        8 beta electrons
       nuclear repulsion energy        19.5373777528 Hartrees.
 IExCor=    0 DFT=F Ex=HF Corr=None ExCW=0 ScaHFX=  1.000000
 ScaDFX=  1.000000  1.000000  1.000000  1.000000 ScalE2=  1.000000  1.000000
 IRadAn=      5 IRanWt=     -1 IRanGd=            0 ICorTp=0 IEmpDi=  4
 NAtoms=    6 NActive=    6 NUniq=    6 SFac= 1.00D+00 NAtFMM=   60 NAOKFM=F Big=F
 Integral buffers will be    131072 words long.
 Raffenetti 1 integral format.
 Two-electron integral symmetry is turned on.
 Leave Link  301 at Sun Dec 10 06:55:48 2023, MaxMem=   536870912 cpu:               0.2 elap:               0.1
 (Enter /usr/site/hpc/x86_64/glibc-2.17/broadwell/gaussian/g16_a.03/pgi-16.5/g16/l302.exe)
 NPDir=0 NMtPBC=     1 NCelOv=     1 NCel=       1 NClECP=     1 NCelD=      1
         NCelK=      1 NCelE2=     1 NClLst=     1 CellRange=     0.0.
 One-electron integrals computed using PRISM.
 One-electron integral symmetry used in STVInt
   2 Symmetry operations used in ECPInt.
 ECPInt:  NShTT=      78 NPrTT=     318 LenC2=      78 LenP2D=     252.
 LDataN:  DoStor=T MaxTD1= 2 Len=   12
 NBasis=    24 RedAO= T EigKep=  3.85D-02  NBF=    20     4
 NBsUse=    24 1.00D-06 EigRej= -1.00D+00 NBFU=    20     4
 Leave Link  302 at Sun Dec 10 06:55:48 2023, MaxMem=   536870912 cpu:               0.3 elap:               0.1
 (Enter /usr/site/hpc/x86_64/glibc-2.17/broadwell/gaussian/g16_a.03/pgi-16.5/g16/l303.exe)
 DipDrv:  MaxL=1.
 Leave Link  303 at Sun Dec 10 06:55:48 2023, MaxMem=   536870912 cpu:               0.1 elap:               0.0
 (Enter /usr/site/hpc/x86_64/glibc-2.17/broadwell/gaussian/g16_a.03/pgi-16.5/g16/l401.exe)
 ExpMin= 1.78D-01 ExpMax= 1.92D+01 ExpMxC= 1.92D+01 IAcc=3 IRadAn=         5 AccDes= 0.00D+00
 Harris functional with IExCor=  205 and IRadAn=       5 diagonalized for initial guess.
 HarFok:  IExCor=  205 AccDes= 0.00D+00 IRadAn=         5 IDoV= 1 UseB2=F ITyADJ=14
 ICtDFT=  3500011 ScaDFX=  1.000000  1.000000  1.000000  1.000000
 FoFCou: FMM=F IPFlag=           0 FMFlag=      100000 FMFlg1=           0
         NFxFlg=           0 DoJE=T BraDBF=F KetDBF=T FulRan=T
         wScrn=  0.000000 ICntrl=       500 IOpCl=  0 I1Cent=   200000004 NGrid=           0
         NMat0=    1 NMatS0=      1 NMatT0=    0 NMatD0=    1 NMtDS0=    0 NMtDT0=    0
 Petite list used in FoFCou.
 Harris En= -34.4763450732546    
 JPrj=0 DoOrth=F DoCkMO=F.
 Initial guess orbital symmetries:
       Occupied  (A') (A') (A') (A') (A') (A') (A") (A")
       Virtual   (A') (A') (A') (A') (A") (A") (A') (A') (A') (A')
                 (A') (A') (A') (A') (A') (A')
 The electronic state of the initial guess is 1-A'.
 Leave Link  401 at Sun Dec 10 06:55:48 2023, MaxMem=   536870912 cpu:               0.4 elap:               0.1
 (Enter /usr/site/hpc/x86_64/glibc-2.17/broadwell/gaussian/g16_a.03/pgi-16.5/g16/l502.exe)
 Keep R1 ints in memory in symmetry-blocked form, NReq=851936.
 FoFCou: FMM=F IPFlag=           0 FMFlag=           0 FMFlg1=           0
         NFxFlg=           0 DoJE=F BraDBF=F KetDBF=F FulRan=T
         wScrn=  0.000000 ICntrl=       600 IOpCl=  0 I1Cent=           0 NGrid=           0
         NMat0=    1 NMatS0=    300 NMatT0=    0 NMatD0=    1 NMtDS0=    0 NMtDT0=    0
 Petite list used in FoFCou.
 Closed shell SCF:
 Using DIIS extrapolation, IDIIS=  1040.
 NGot=   536870912 LenX=   536840576 LenY=   536839559
 Requested convergence on RMS density matrix=1.00D-08 within 128 cycles.
 Requested convergence on MAX density matrix=1.00D-06.
 Requested convergence on             energy=1.00D-06.
 No special actions if energy rises.

 Cycle   1  Pass 1  IDiag  1:
 E= -33.5579324251062    
 DIIS: error= 6.87D-02 at cycle   1 NSaved=   1.
 NSaved= 1 IEnMin= 1 EnMin= -33.5579324251062     IErMin= 1 ErrMin= 6.87D-02
 ErrMax= 6.87D-02  0.00D+00 EMaxC= 1.00D-01 BMatC= 1.02D-01 BMatP= 1.02D-01
 IDIUse=3 WtCom= 3.13D-01 WtEn= 6.87D-01
 Coeff-Com:  0.100D+01
 Coeff-En:   0.100D+01
 Coeff:      0.100D+01
 Gap=     0.603 Goal=   None    Shift=    0.000
 GapD=    0.603 DampG=2.000 DampE=0.500 DampFc=1.0000 IDamp=-1.
 RMSDP=1.48D-02 MaxDP=1.17D-01              OVMax= 9.90D-02

 Cycle   2  Pass 1  IDiag  1:
 E= -33.6206667971674     Delta-E=       -0.062734372061 Rises=F Damp=F
 DIIS: error= 3.73D-02 at cycle   2 NSaved=   2.
 NSaved= 2 IEnMin= 2 EnMin= -33.6206667971674     IErMin= 2 ErrMin= 3.73D-02
 ErrMax= 3.73D-02  0.00D+00 EMaxC= 1.00D-01 BMatC= 3.82D-02 BMatP= 1.02D-01
 IDIUse=3 WtCom= 6.27D-01 WtEn= 3.73D-01
 Coeff-Com:  0.377D+00 0.623D+00
 Coeff-En:   0.109D+00 0.891D+00
 Coeff:      0.277D+00 0.723D+00
 Gap=     0.697 Goal=   None    Shift=    0.000
 RMSDP=6.40D-03 MaxDP=5.42D-02 DE=-6.27D-02 OVMax= 3.57D-02

 Cycle   3  Pass 1  IDiag  1:
 E= -33.6511663429135     Delta-E=       -0.030499545746 Rises=F Damp=F
 DIIS: error= 7.16D-03 at cycle   3 NSaved=   3.
 NSaved= 3 IEnMin= 3 EnMin= -33.6511663429135     IErMin= 3 ErrMin= 7.16D-03
 ErrMax= 7.16D-03  0.00D+00 EMaxC= 1.00D-01 BMatC= 8.98D-04 BMatP= 3.82D-02
 IDIUse=3 WtCom= 9.28D-01 WtEn= 7.16D-02
 Coeff-Com: -0.114D+00-0.165D-01 0.113D+01
 Coeff-En:   0.000D+00 0.000D+00 0.100D+01
 Coeff:     -0.106D+00-0.153D-01 0.112D+01
 Gap=     0.690 Goal=   None    Shift=    0.000
 RMSDP=1.07D-03 MaxDP=8.65D-03 DE=-3.05D-02 OVMax= 8.06D-03

 Cycle   4  Pass 1  IDiag  1:
 E= -33.6520620742297     Delta-E=       -0.000895731316 Rises=F Damp=F
 DIIS: error= 7.52D-04 at cycle   4 NSaved=   4.
 NSaved= 4 IEnMin= 4 EnMin= -33.6520620742297     IErMin= 4 ErrMin= 7.52D-04
 ErrMax= 7.52D-04  0.00D+00 EMaxC= 1.00D-01 BMatC= 5.86D-06 BMatP= 8.98D-04
 IDIUse=3 WtCom= 9.92D-01 WtEn= 7.52D-03
 Coeff-Com:  0.438D-01-0.175D-01-0.526D+00 0.150D+01
 Coeff-En:   0.000D+00 0.000D+00 0.000D+00 0.100D+01
 Coeff:      0.434D-01-0.174D-01-0.522D+00 0.150D+01
 Gap=     0.691 Goal=   None    Shift=    0.000
 RMSDP=2.35D-04 MaxDP=2.02D-03 DE=-8.96D-04 OVMax= 9.59D-04

 Cycle   5  Pass 1  IDiag  1:
 E= -33.6520751135529     Delta-E=       -0.000013039323 Rises=F Damp=F
 DIIS: error= 4.98D-05 at cycle   5 NSaved=   5.
 NSaved= 5 IEnMin= 5 EnMin= -33.6520751135529     IErMin= 5 ErrMin= 4.98D-05
 ErrMax= 4.98D-05  0.00D+00 EMaxC= 1.00D-01 BMatC= 3.82D-08 BMatP= 5.86D-06
 IDIUse=1 WtCom= 1.00D+00 WtEn= 0.00D+00
 Coeff-Com: -0.704D-02 0.317D-02 0.857D-01-0.292D+00 0.121D+01
 Coeff:     -0.704D-02 0.317D-02 0.857D-01-0.292D+00 0.121D+01
 Gap=     0.692 Goal=   None    Shift=    0.000
 RMSDP=1.57D-05 MaxDP=1.51D-04 DE=-1.30D-05 OVMax= 1.04D-04

 Cycle   6  Pass 1  IDiag  1:
 E= -33.6520752077599     Delta-E=       -0.000000094207 Rises=F Damp=F
 DIIS: error= 1.08D-05 at cycle   6 NSaved=   6.
 NSaved= 6 IEnMin= 6 EnMin= -33.6520752077599     IErMin= 6 ErrMin= 1.08D-05
 ErrMax= 1.08D-05  0.00D+00 EMaxC= 1.00D-01 BMatC= 2.22D-09 BMatP= 3.82D-08
 IDIUse=1 WtCom= 1.00D+00 WtEn= 0.00D+00
 Coeff-Com:  0.898D-03-0.295D-03-0.105D-01 0.421D-01-0.345D+00 0.131D+01
 Coeff:      0.898D-03-0.295D-03-0.105D-01 0.421D-01-0.345D+00 0.131D+01
 Gap=     0.692 Goal=   None    Shift=    0.000
 RMSDP=3.81D-06 MaxDP=2.49D-05 DE=-9.42D-08 OVMax= 3.55D-05

 Cycle   7  Pass 1  IDiag  1:
 E= -33.6520752135860     Delta-E=       -0.000000005826 Rises=F Damp=F
 DIIS: error= 2.50D-06 at cycle   7 NSaved=   7.
 NSaved= 7 IEnMin= 7 EnMin= -33.6520752135860     IErMin= 7 ErrMin= 2.50D-06
 ErrMax= 2.50D-06  0.00D+00 EMaxC= 1.00D-01 BMatC= 2.25D-10 BMatP= 2.22D-09
 IDIUse=1 WtCom= 1.00D+00 WtEn= 0.00D+00
 Coeff-Com:  0.640D-03-0.279D-03-0.772D-02 0.269D-01-0.129D+00 0.192D+00
 Coeff-Com:  0.917D+00
 Coeff:      0.640D-03-0.279D-03-0.772D-02 0.269D-01-0.129D+00 0.192D+00
 Coeff:      0.917D+00
 Gap=     0.692 Goal=   None    Shift=    0.000
 RMSDP=9.36D-07 MaxDP=6.18D-06 DE=-5.83D-09 OVMax= 9.07D-06

 Cycle   8  Pass 1  IDiag  1:
 E= -33.6520752139749     Delta-E=       -0.000000000389 Rises=F Damp=F
 DIIS: error= 8.53D-07 at cycle   8 NSaved=   8.
 NSaved= 8 IEnMin= 8 EnMin= -33.6520752139749     IErMin= 8 ErrMin= 8.53D-07
 ErrMax= 8.53D-07  0.00D+00 EMaxC= 1.00D-01 BMatC= 2.75D-11 BMatP= 2.25D-10
 IDIUse=1 WtCom= 1.00D+00 WtEn= 0.00D+00
 Coeff-Com: -0.378D-06-0.247D-04-0.659D-04-0.833D-03 0.315D-01-0.175D+00
 Coeff-Com:  0.113D+00 0.103D+01
 Coeff:     -0.378D-06-0.247D-04-0.659D-04-0.833D-03 0.315D-01-0.175D+00
 Coeff:      0.113D+00 0.103D+01
 Gap=     0.692 Goal=   None    Shift=    0.000
 RMSDP=4.58D-07 MaxDP=2.33D-06 DE=-3.89D-10 OVMax= 3.66D-06

 Cycle   9  Pass 1  IDiag  1:
 E= -33.6520752140283     Delta-E=       -0.000000000053 Rises=F Damp=F
 DIIS: error= 1.86D-07 at cycle   9 NSaved=   9.
 NSaved= 9 IEnMin= 9 EnMin= -33.6520752140283     IErMin= 9 ErrMin= 1.86D-07
 ErrMax= 1.86D-07  0.00D+00 EMaxC= 1.00D-01 BMatC= 6.90D-13 BMatP= 2.75D-11
 IDIUse=1 WtCom= 1.00D+00 WtEn= 0.00D+00
 Coeff-Com:  0.365D-05 0.702D-05-0.104D-04 0.404D-03-0.122D-01 0.703D-01
 Coeff-Com: -0.701D-01-0.431D+00 0.144D+01
 Coeff:      0.365D-05 0.702D-05-0.104D-04 0.404D-03-0.122D-01 0.703D-01
 Coeff:     -0.701D-01-0.431D+00 0.144D+01
 Gap=     0.692 Goal=   None    Shift=    0.000
 RMSDP=1.26D-07 MaxDP=4.96D-07 DE=-5.33D-11 OVMax= 8.44D-07

 Cycle  10  Pass 1  IDiag  1:
 E= -33.6520752140301     Delta-E=       -0.000000000002 Rises=F Damp=F
 DIIS: error= 8.63D-09 at cycle  10 NSaved=  10.
 NSaved=10 IEnMin=10 EnMin= -33.6520752140301     IErMin=10 ErrMin= 8.63D-09
 ErrMax= 8.63D-09  0.00D+00 EMaxC= 1.00D-01 BMatC= 2.85D-15 BMatP= 6.90D-13
 IDIUse=1 WtCom= 1.00D+00 WtEn= 0.00D+00
 Coeff-Com:  0.843D-07-0.187D-05-0.892D-05-0.543D-04 0.266D-02-0.160D-01
 Coeff-Com:  0.165D-01 0.975D-01-0.378D+00 0.128D+01
 Coeff:      0.843D-07-0.187D-05-0.892D-05-0.543D-04 0.266D-02-0.160D-01
 Coeff:      0.165D-01 0.975D-01-0.378D+00 0.128D+01
 Gap=     0.692 Goal=   None    Shift=    0.000
 RMSDP=1.19D-08 MaxDP=5.64D-08 DE=-1.87D-12 OVMax= 6.89D-08

 Cycle  11  Pass 1  IDiag  1:
 E= -33.6520752140302     Delta-E=       -0.000000000000 Rises=F Damp=F
 DIIS: error= 3.94D-10 at cycle  11 NSaved=  11.
 NSaved=11 IEnMin=11 EnMin= -33.6520752140302     IErMin=11 ErrMin= 3.94D-10
 ErrMax= 3.94D-10  0.00D+00 EMaxC= 1.00D-01 BMatC= 4.18D-18 BMatP= 2.85D-15
 IDIUse=1 WtCom= 1.00D+00 WtEn= 0.00D+00
 Coeff-Com: -0.752D-07 0.318D-06 0.215D-05 0.667D-05-0.431D-03 0.264D-02
 Coeff-Com: -0.277D-02-0.161D-01 0.638D-01-0.236D+00 0.119D+01
 Coeff:     -0.752D-07 0.318D-06 0.215D-05 0.667D-05-0.431D-03 0.264D-02
 Coeff:     -0.277D-02-0.161D-01 0.638D-01-0.236D+00 0.119D+01
 Gap=     0.692 Goal=   None    Shift=    0.000
 RMSDP=2.51D-10 MaxDP=1.39D-09 DE=-2.13D-14 OVMax= 1.09D-09

 SCF Done:  E(RHF) =  -33.6520752140     A.U. after   11 cycles
            NFock= 11  Conv=0.25D-09     -V/T= 2.2569
 KE= 2.677378716146D+01 PE=-1.206405171205D+02 EE= 4.067727699230D+01
 Leave Link  502 at Sun Dec 10 06:55:49 2023, MaxMem=   536870912 cpu:               0.3 elap:               0.1
 (Enter /usr/site/hpc/x86_64/glibc-2.17/broadwell/gaussian/g16_a.03/pgi-16.5/g16/l801.exe)
 Windowed orbitals will be sorted by symmetry type.
 Range of M.O.s used for correlation:     1    24
 NBasis=    24 NAE=     8 NBE=     8 NFC=     0 NFV=     0
 NROrb=     24 NOA=     8 NOB=     8 NVA=    16 NVB=    16
 Leave Link  801 at Sun Dec 10 06:55:49 2023, MaxMem=   536870912 cpu:               0.1 elap:               0.0
 (Enter /usr/site/hpc/x86_64/glibc-2.17/broadwell/gaussian/g16_a.03/pgi-16.5/g16/l804.exe)
 Closed-shell transformation, MDV=   536870912 ITran=4 ISComp=2.
 Unit  1 TFree=       1025975 TCopy=        210600.
 Semi-Direct transformation.
 ModeAB=           4 MOrb=             8 LenV=     536742448
 LASXX=        22470 LTotXX=       22470 LenRXX=       48678
 LTotAB=       26208 MaxLAS=       56256 LenRXY=           0
 NonZer=       71148 LenScr=      524288 LnRSAI=       56256
 LnScr1=      524288 LExtra=           0 Total=      1153510
 MaxDsk=          -1 SrtSym=           T ITran=            4
 DoSDTr:  NPSUse=  4
 JobTyp=0 Pass  1:  I=   1 to   8.
 (rs|ai) integrals will be sorted in core.
 Complete sort for first half transformation.
 First half transformation complete.
 Complete sort for second half transformation.
 Second half transformation complete.
 Spin components of T(2) and E(2):
     alpha-alpha T2 =       0.9066174748D-02 E2=     -0.2589084504D-01
     alpha-beta  T2 =       0.5991926812D-01 E2=     -0.1765757113D+00
     beta-beta   T2 =       0.9066174748D-02 E2=     -0.2589084504D-01
 ANorm=    0.1038292645D+01
 E2 =    -0.2283574014D+00 EUMP2 =    -0.33880432615389D+02
 Leave Link  804 at Sun Dec 10 06:55:49 2023, MaxMem=   536870912 cpu:               0.2 elap:               0.1
 (Enter /usr/site/hpc/x86_64/glibc-2.17/broadwell/gaussian/g16_a.03/pgi-16.5/g16/l913.exe)
 CIDS:  MDV=   536870912.
 IFCWin=0 IBDFC=1 NFBD=     0     0 NFCmp=     0     0 NFFFC=     0     0
 Using DD3R+UMP44R for 1st iteration.
 Using DD4RQ for 2nd and later iterations.
 Keep R2 and R3 ints in memory in symmetry-blocked form, NReq=864544.
 FoFCou: FMM=F IPFlag=           0 FMFlag=           0 FMFlg1=           0
         NFxFlg=           0 DoJE=F BraDBF=F KetDBF=F FulRan=T
         wScrn=  0.000000 ICntrl=       600 IOpCl=  0 I1Cent=           0 NGrid=           0
         NMat0=    1 NMatS0=    300 NMatT0=    0 NMatD0=    1 NMtDS0=    0 NMtDT0=    0
 Petite list used in FoFCou.
 CIDS: In Core Option IDoMem=           1.
 CCSD(T)
 =======
 Iterations=  50 Convergence= 0.100D-06
 Produce multiple copies of IABC intergrals
 Iteration Nr.   1
 **********************
 DD1Dir will call FoFMem   1 times, MxPair=        72
 NAB=    36 NAA=     0 NBB=     0.
 MP4(R+Q)= -0.74145495D-03
 Maximum subspace dimension=  5
 A-vector RMS=  5.7566682D-03 Max=  1.3215954D-02 conv= 1.00D-05.
 RLE energy=       -0.2344218893
 E3=       -0.54408726D-02        EUMP3=      -0.33885873488D+02
 E4(DQ)=   -0.59096729D-02        UMP4(DQ)=   -0.33891783161D+02
 E4(SDQ)=  -0.79368448D-02        UMP4(SDQ)=  -0.33893810333D+02
 VARIATIONAL ENERGIES WITH THE FIRST-ORDER WAVEFUNCTION:
 DE(Corr)= -0.23426534     E(Corr)=     -33.886340554    
 NORM(A)=   0.10417291D+01
 Iteration Nr.   2
 **********************
 DD1Dir will call FoFMem   1 times, MxPair=        72
 NAB=    36 NAA=     0 NBB=     0.
 A-vector RMS=  9.8353382D-04 Max=  2.7316470D-03 conv= 1.00D-05.
 RLE energy=       -0.2421947329
 DE(Corr)= -0.24025070     E(CORR)=     -33.892325913     Delta=-5.99D-03
 NORM(A)=   0.10455231D+01
 Iteration Nr.   3
 **********************
 DD1Dir will call FoFMem   1 times, MxPair=        72
 NAB=    36 NAA=     0 NBB=     0.
 A-vector RMS=  3.8352927D-04 Max=  1.1340927D-03 conv= 1.00D-05.
 RLE energy=       -0.2427451393
 DE(Corr)= -0.24229754     E(CORR)=     -33.894372753     Delta=-2.05D-03
 NORM(A)=   0.10460847D+01
 Iteration Nr.   4
 **********************
 DD1Dir will call FoFMem   1 times, MxPair=        72
 NAB=    36 NAA=     0 NBB=     0.
 A-vector RMS=  9.2556123D-05 Max=  2.4795397D-04 conv= 1.00D-05.
 RLE energy=       -0.2427919808
 DE(Corr)= -0.24275603     E(CORR)=     -33.894831242     Delta=-4.58D-04
 NORM(A)=   0.10461591D+01
 Iteration Nr.   5
 **********************
 DD1Dir will call FoFMem   1 times, MxPair=        72
 NAB=    36 NAA=     0 NBB=     0.
 A-vector RMS=  4.1597478D-05 Max=  1.4918638D-04 conv= 1.00D-05.
 RLE energy=       -0.2427902034
 DE(Corr)= -0.24278819     E(CORR)=     -33.894863409     Delta=-3.22D-05
 NORM(A)=   0.10461697D+01
 Iteration Nr.   6
 **********************
 DD1Dir will call FoFMem   1 times, MxPair=        72
 NAB=    36 NAA=     0 NBB=     0.
 A-vector RMS=  1.1368916D-05 Max=  4.0276520D-05 conv= 1.00D-05.
 RLE energy=       -0.2427893543
 DE(Corr)= -0.24279036     E(CORR)=     -33.894865572     Delta=-2.16D-06
 NORM(A)=   0.10461732D+01
 Iteration Nr.   7
 **********************
 DD1Dir will call FoFMem   1 times, MxPair=        72
 NAB=    36 NAA=     0 NBB=     0.
 A-vector RMS=  3.3500607D-06 Max=  1.1570167D-05 conv= 1.00D-05.
 RLE energy=       -0.2427902744
 DE(Corr)= -0.24278974     E(CORR)=     -33.894864954     Delta= 6.18D-07
 NORM(A)=   0.10461746D+01
 Iteration Nr.   8
 **********************
 DD1Dir will call FoFMem   1 times, MxPair=        72
 NAB=    36 NAA=     0 NBB=     0.
 A-vector RMS=  5.9651647D-07 Max=  1.8863458D-06 conv= 1.00D-05.
 RLE energy=       -0.2427897817
 DE(Corr)= -0.24278979     E(CORR)=     -33.894865006     Delta=-5.24D-08
 NORM(A)=   0.10461747D+01
 CI/CC converged in    8 iterations to DelEn=-5.24D-08 Conv= 1.00D-07 ErrA1= 5.97D-07 Conv= 1.00D-05
 Wavefunction amplitudes converged. E(Corr)=     -33.894865006    
 Largest amplitude= 5.86D-02
 IPart=  2 IA=    2   12.50% done.
 IPart=  4 IA=    3   24.17% done.
 IPart=  3 IA=    4   35.00% done.
 IPart=  3 IA=    5   45.00% done.
 IPart=  4 IA=    6   54.17% done.
 IPart=  2 IA=    7   62.50% done.
 IPart=  1 IA=    8   70.00% done.
 IPart=  4 IA=   10   82.50% done.
 IPart=  3 IA=   12   91.67% done.
 Time for triples=        0.25 seconds.
 T4(CCSD)= -0.30875207D-02
 T5(CCSD)=  0.52607439D-03
 CCSD(T)= -0.33897426453D+02
 Discarding MO integrals.
 Leave Link  913 at Sun Dec 10 06:55:49 2023, MaxMem=   536870912 cpu:               0.8 elap:               0.2
 (Enter /usr/site/hpc/x86_64/glibc-2.17/broadwell/gaussian/g16_a.03/pgi-16.5/g16/l601.exe)
 Copying SCF densities to generalized density rwf, IOpCl= 0 IROHF=0.

 **********************************************************************

            Population analysis using the SCF density.

 **********************************************************************

 Orbital symmetries:
       Occupied  (A') (A') (A') (A') (A') (A') (A") (A")
       Virtual   (A') (A') (A') (A') (A") (A") (A') (A') (A') (A')
                 (A') (A') (A') (A') (A') (A')
 The electronic state is 1-A'.
 Alpha  occ. eigenvalues --   -1.36282  -1.35144  -0.71929  -0.70763  -0.56038
 Alpha  occ. eigenvalues --   -0.54881  -0.50856  -0.49716
 Alpha virt. eigenvalues --    0.19441   0.20716   0.29748   0.30932   0.79707
 Alpha virt. eigenvalues --    0.80825   0.82674   0.83843   0.85740   0.87016
 Alpha virt. eigenvalues --    1.16624   1.17777   1.21085   1.22276   2.56535
 Alpha virt. eigenvalues --    2.57919
          Condensed to atoms (all electrons):
               1          2          3          4          5          6
     1  O    6.215583   0.264453   0.262269  -0.000000   0.000000   0.000000
     2  H    0.264453   0.384208  -0.023486   0.000003  -0.000000   0.000000
     3  H    0.262269  -0.023486   0.393739  -0.000000   0.000000   0.000000
     4  O   -0.000000   0.000003  -0.000000   6.215063   0.265050   0.262467
     5  H    0.000000  -0.000000   0.000000   0.265050   0.384067  -0.023457
     6  H    0.000000   0.000000   0.000000   0.262467  -0.023457   0.392745
 Mulliken charges:
               1
     1  O   -0.742304
     2  H    0.374823
     3  H    0.367478
     4  O   -0.742582
     5  H    0.374340
     6  H    0.368245
 Sum of Mulliken charges =  -0.00000
 Mulliken charges with hydrogens summed into heavy atoms:
               1
     1  O   -0.000004
     4  O    0.000004
 Electronic spatial extent (au):  <R**2>=            505.9213
 Charge=             -0.0000 electrons
 Dipole moment (field-independent basis, Debye):
    X=             -4.1728    Y=              3.2543    Z=              0.0000  Tot=              5.2918
 Quadrupole moment (field-independent basis, Debye-Ang):
   XX=            -11.1254   YY=             -9.0246   ZZ=            -14.9886
   XY=              2.6524   XZ=              0.0000   YZ=              0.0000
 Traceless Quadrupole moment (field-independent basis, Debye-Ang):
   XX=              0.5875   YY=              2.6882   ZZ=             -3.2758
   XY=              2.6524   XZ=              0.0000   YZ=              0.0000
 Octapole moment (field-independent basis, Debye-Ang**2):
  XXX=             -4.1281  YYY=             82.5087  ZZZ=              0.0000  XYY=            -34.5439
  XXY=              0.1726  XXZ=              0.0000  XZZ=             -0.7828  YZZ=              0.6186
  YYZ=              0.0000  XYZ=              0.0000
 Hexadecapole moment (field-independent basis, Debye-Ang**3):
 XXXX=            -12.5894 YYYY=           -479.2303 ZZZZ=            -12.2210 XXXY=              0.4208
 XXXZ=              0.0000 YYYX=             61.6097 YYYZ=              0.0000 ZZZX=              0.0000
 ZZZY=              0.0000 XXYY=            -94.9095 XXZZ=             -4.5299 YYZZ=           -126.8844
 XXYZ=              0.0000 YYXZ=              0.0000 ZZXY=             -0.1106
 N-N= 1.953737775276D+01 E-N=-1.206405171248D+02  KE= 2.677378716146D+01
 Symmetry A'   KE= 1.789059535494D+01
 Symmetry A"   KE= 8.883191806514D+00
 Leave Link  601 at Sun Dec 10 06:55:49 2023, MaxMem=   536870912 cpu:               0.1 elap:               0.0
 (Enter /usr/site/hpc/x86_64/glibc-2.17/broadwell/gaussian/g16_a.03/pgi-16.5/g16/l9999.exe)
 1\1\GINC-N033\SP\RCCSD(T)-FC\CEP-31G\H4O2\ROOT\10-Dec-2023\0\\#p CCSD(
 T)/CEP-31G\\H2O_H2O_4601\\0,1\O,0,0.,-0.009833,0.\H,0,-0.799571,-0.580
 965,0.\H,0,0.799571,-0.580965,0.\O,0,-4.647546,-3.329084,0.\H,0,-5.482
 759,-3.846698,0.\H,0,-3.88704,-3.951287,0.\\Version=ES64L-G16RevA.03\S
 tate=1-A'\HF=-33.6520752\MP2=-33.8804326\MP3=-33.8858735\MP4D=-33.8910
 417\MP4DQ=-33.8917832\MP4SDQ=-33.8938103\CCSD=-33.894865\CCSD(T)=-33.8
 974265\RMSD=2.507e-10\PG=CS [SG(H4O2)]\\@


 I WANT TO KNOW HOW GOD CREATED THE WORLD.  I AM NOT INTERESTED IN
 THIS OR THAT PHENOMENON, IN THE SPECTRUM OF THIS OR THAT ELEMENT.
 I WANT TO KNOW HIS THOUGHTS, THE REST ARE DETAILS.
     -- ALBERT EINSTEIN
 Job cpu time:       0 days  0 hours  0 minutes  3.2 seconds.
 Elapsed time:       0 days  0 hours  0 minutes  1.0 seconds.
 File lengths (MBytes):  RWF=     72 Int=      0 D2E=      0 Chk=      8 Scr=      8
 Normal termination of Gaussian 16 at Sun Dec 10 06:55:49 2023.
