 Entering Gaussian System, Link 0=g16
 Input=H2O_H2O_4796.com
 Output=H2O_H2O_4796.log
 Initial command:
 /usr/site/hpc/x86_64/glibc-2.17/broadwell/gaussian/g16_a.03/pgi-16.5/g16/l1.exe "/gpfs/gpfs1/scratch/c7441090/OH Coord/Gau-1324674.inp" -scrdir="/gpfs/gpfs1/scratch/c7441090/OH Coord/"
 Entering Link 1 = /usr/site/hpc/x86_64/glibc-2.17/broadwell/gaussian/g16_a.03/pgi-16.5/g16/l1.exe PID=   1324675.
  
 Copyright (c) 1988,1990,1992,1993,1995,1998,2003,2009,2016,
            Gaussian, Inc.  All Rights Reserved.
  
 This is part of the Gaussian(R) 16 program.  It is based on
 the Gaussian(R) 09 system (copyright 2009, Gaussian, Inc.),
 the Gaussian(R) 03 system (copyright 2003, Gaussian, Inc.),
 the Gaussian(R) 98 system (copyright 1998, Gaussian, Inc.),
 the Gaussian(R) 94 system (copyright 1995, Gaussian, Inc.),
 the Gaussian 92(TM) system (copyright 1992, Gaussian, Inc.),
 the Gaussian 90(TM) system (copyright 1990, Gaussian, Inc.),
 the Gaussian 88(TM) system (copyright 1988, Gaussian, Inc.),
 the Gaussian 86(TM) system (copyright 1986, Carnegie Mellon
 University), and the Gaussian 82(TM) system (copyright 1983,
 Carnegie Mellon University). Gaussian is a federally registered
 trademark of Gaussian, Inc.
  
 This software contains proprietary and confidential information,
 including trade secrets, belonging to Gaussian, Inc.
  
 This software is provided under written license and may be
 used, copied, transmitted, or stored only in accord with that
 written license.
  
 The following legend is applicable only to US Government
 contracts under FAR:
  
                    RESTRICTED RIGHTS LEGEND
  
 Use, reproduction and disclosure by the US Government is
 subject to restrictions as set forth in subparagraphs (a)
 and (c) of the Commercial Computer Software - Restricted
 Rights clause in FAR 52.227-19.
  
 Gaussian, Inc.
 340 Quinnipiac St., Bldg. 40, Wallingford CT 06492
  
  
 ---------------------------------------------------------------
 Warning -- This program may not be used in any manner that
 competes with the business of Gaussian, Inc. or will provide
 assistance to any competitor of Gaussian, Inc.  The licensee
 of this program is prohibited from giving any competitor of
 Gaussian, Inc. access to this program.  By using this program,
 the user acknowledges that Gaussian, Inc. is engaged in the
 business of creating and licensing software in the field of
 computational chemistry and represents and warrants to the
 licensee that it is not a competitor of Gaussian, Inc. and that
 it will not use this program in any manner prohibited above.
 ---------------------------------------------------------------
  

 Cite this work as:
 Gaussian 16, Revision A.03,
 M. J. Frisch, G. W. Trucks, H. B. Schlegel, G. E. Scuseria, 
 M. A. Robb, J. R. Cheeseman, G. Scalmani, V. Barone, 
 G. A. Petersson, H. Nakatsuji, X. Li, M. Caricato, A. V. Marenich, 
 J. Bloino, B. G. Janesko, R. Gomperts, B. Mennucci, H. P. Hratchian, 
 J. V. Ortiz, A. F. Izmaylov, J. L. Sonnenberg, D. Williams-Young, 
 F. Ding, F. Lipparini, F. Egidi, J. Goings, B. Peng, A. Petrone, 
 T. Henderson, D. Ranasinghe, V. G. Zakrzewski, J. Gao, N. Rega, 
 G. Zheng, W. Liang, M. Hada, M. Ehara, K. Toyota, R. Fukuda, 
 J. Hasegawa, M. Ishida, T. Nakajima, Y. Honda, O. Kitao, H. Nakai, 
 T. Vreven, K. Throssell, J. A. Montgomery, Jr., J. E. Peralta, 
 F. Ogliaro, M. J. Bearpark, J. J. Heyd, E. N. Brothers, K. N. Kudin, 
 V. N. Staroverov, T. A. Keith, R. Kobayashi, J. Normand, 
 K. Raghavachari, A. P. Rendell, J. C. Burant, S. S. Iyengar, 
 J. Tomasi, M. Cossi, J. M. Millam, M. Klene, C. Adamo, R. Cammi, 
 J. W. Ochterski, R. L. Martin, K. Morokuma, O. Farkas, 
 J. B. Foresman, and D. J. Fox, Gaussian, Inc., Wallingford CT, 2016.
 
 ******************************************
 Gaussian 16:  ES64L-G16RevA.03 25-Dec-2016
                10-Dec-2023 
 ******************************************
 %NProcShared=4
 Will use up to    4 processors via shared memory.
 %Mem=4GB
 %Chk=H2O_H2O_4796.chk
 ------------------
 #p CCSD(T)/CEP-31G
 ------------------
 1/38=1,172=1/1;
 2/12=2,17=6,18=5,40=1/2;
 3/5=9,6=1,11=9,25=1,30=1/1,2,3;
 4//1;
 5/5=2,38=5/2;
 8/6=4,9=120000,10=1/1,4;
 9/5=7,14=2/13;
 6/7=2,8=2,9=2,10=2/1;
 99/5=1,9=1/99;
 Leave Link    1 at Sun Dec 10 06:59:19 2023, MaxMem=   536870912 cpu:               0.2 elap:               0.1
 (Enter /usr/site/hpc/x86_64/glibc-2.17/broadwell/gaussian/g16_a.03/pgi-16.5/g16/l101.exe)
 ------------
 H2O_H2O_4796
 ------------
 Symbolic Z-matrix:
 Charge =  0 Multiplicity = 1
 O                     0.       -0.00983   0. 
 H                    -0.79957  -0.58097   0. 
 H                     0.79957  -0.58097   0. 
 O                    -4.77015  -3.40234   0. 
 H                    -5.4863   -2.72955   0. 
 H                    -5.17432  -4.29797   0. 
 
 ITRead=  0  0  0  0  0  0
 MicOpt= -1 -1 -1 -1 -1 -1
 NAtoms=      6 NQM=        6 NQMF=       0 NMMI=      0 NMMIF=      0
                NMic=       0 NMicF=      0.
                    Isotopes and Nuclear Properties:
 (Nuclear quadrupole moments (NQMom) in fm**2, nuclear magnetic moments (NMagM)
  in nuclear magnetons)

  Atom         1           2           3           4           5           6
 IAtWgt=          16           1           1          16           1           1
 AtmWgt=  15.9949146   1.0078250   1.0078250  15.9949146   1.0078250   1.0078250
 NucSpn=           0           1           1           0           1           1
 AtZEff=  -0.0000000  -0.0000000  -0.0000000  -0.0000000  -0.0000000  -0.0000000
 NQMom=    0.0000000   0.0000000   0.0000000   0.0000000   0.0000000   0.0000000
 NMagM=    0.0000000   2.7928460   2.7928460   0.0000000   2.7928460   2.7928460
 AtZNuc=   8.0000000   1.0000000   1.0000000   8.0000000   1.0000000   1.0000000
 Leave Link  101 at Sun Dec 10 06:59:19 2023, MaxMem=   536870912 cpu:               0.3 elap:               0.1
 (Enter /usr/site/hpc/x86_64/glibc-2.17/broadwell/gaussian/g16_a.03/pgi-16.5/g16/l202.exe)
                          Input orientation:                          
 ---------------------------------------------------------------------
 Center     Atomic      Atomic             Coordinates (Angstroms)
 Number     Number       Type             X           Y           Z
 ---------------------------------------------------------------------
      1          8           0        0.000000   -0.009833    0.000000
      2          1           0       -0.799571   -0.580965    0.000000
      3          1           0        0.799571   -0.580965    0.000000
      4          8           0       -4.770149   -3.402336    0.000000
      5          1           0       -5.486295   -2.729550    0.000000
      6          1           0       -5.174318   -4.297966    0.000000
 ---------------------------------------------------------------------
                    Distance matrix (angstroms):
                    1          2          3          4          5
     1  O    0.000000
     2  H    0.982601   0.000000
     3  H    0.982601   1.599142   0.000000
     4  O    5.853495   4.870896   6.243550   0.000000
     5  H    6.123422   5.155754   6.642931   0.982602   0.000000
     6  H    6.720242   5.740602   7.035869   0.982601   1.599143
                    6
     6  H    0.000000
 Stoichiometry    H4O2
 Framework group  CS[SG(H4O2)]
 Deg. of freedom     9
 Full point group                 CS      NOp   2
 Largest Abelian subgroup         CS      NOp   2
 Largest concise Abelian subgroup C1      NOp   1
                         Standard orientation:                         
 ---------------------------------------------------------------------
 Center     Atomic      Atomic             Coordinates (Angstroms)
 Number     Number       Type             X           Y           Z
 ---------------------------------------------------------------------
      1          8           0       -0.023158    3.011955    0.000000
      2          1           0       -0.021136    2.029355    0.000000
      3          1           0        0.905677    3.332533    0.000000
      4          8           0       -0.023158   -2.841540    0.000000
      5          1           0       -0.986483   -3.035218    0.000000
      6          1           0        0.472468   -3.689986    0.000000
 ---------------------------------------------------------------------
 Rotational constants (GHZ):         254.0616390           1.6166488           1.6064268
 Leave Link  202 at Sun Dec 10 06:59:19 2023, MaxMem=   536870912 cpu:               0.1 elap:               0.0
 (Enter /usr/site/hpc/x86_64/glibc-2.17/broadwell/gaussian/g16_a.03/pgi-16.5/g16/l301.exe)
 Standard basis: CEP-31G (6D, 10F)
 Ernie: Thresh=  0.10000D-02 Tol=  0.10000D-05 Strict=F.
 There are    20 symmetry adapted cartesian basis functions of A'  symmetry.
 There are     4 symmetry adapted cartesian basis functions of A"  symmetry.
 There are    20 symmetry adapted basis functions of A'  symmetry.
 There are     4 symmetry adapted basis functions of A"  symmetry.
    24 basis functions,    48 primitive gaussians,    24 cartesian basis functions
     8 alpha electrons        8 beta electrons
       nuclear repulsion energy        19.3425320764 Hartrees.
 IExCor=    0 DFT=F Ex=HF Corr=None ExCW=0 ScaHFX=  1.000000
 ScaDFX=  1.000000  1.000000  1.000000  1.000000 ScalE2=  1.000000  1.000000
 IRadAn=      5 IRanWt=     -1 IRanGd=            0 ICorTp=0 IEmpDi=  4
 NAtoms=    6 NActive=    6 NUniq=    6 SFac= 1.00D+00 NAtFMM=   60 NAOKFM=F Big=F
 Integral buffers will be    131072 words long.
 Raffenetti 1 integral format.
 Two-electron integral symmetry is turned on.
 Leave Link  301 at Sun Dec 10 06:59:19 2023, MaxMem=   536870912 cpu:               0.2 elap:               0.1
 (Enter /usr/site/hpc/x86_64/glibc-2.17/broadwell/gaussian/g16_a.03/pgi-16.5/g16/l302.exe)
 NPDir=0 NMtPBC=     1 NCelOv=     1 NCel=       1 NClECP=     1 NCelD=      1
         NCelK=      1 NCelE2=     1 NClLst=     1 CellRange=     0.0.
 One-electron integrals computed using PRISM.
 One-electron integral symmetry used in STVInt
   2 Symmetry operations used in ECPInt.
 ECPInt:  NShTT=      78 NPrTT=     318 LenC2=      78 LenP2D=     248.
 LDataN:  DoStor=T MaxTD1= 2 Len=   12
 NBasis=    24 RedAO= T EigKep=  3.86D-02  NBF=    20     4
 NBsUse=    24 1.00D-06 EigRej= -1.00D+00 NBFU=    20     4
 Leave Link  302 at Sun Dec 10 06:59:19 2023, MaxMem=   536870912 cpu:               0.3 elap:               0.1
 (Enter /usr/site/hpc/x86_64/glibc-2.17/broadwell/gaussian/g16_a.03/pgi-16.5/g16/l303.exe)
 DipDrv:  MaxL=1.
 Leave Link  303 at Sun Dec 10 06:59:20 2023, MaxMem=   536870912 cpu:               0.1 elap:               0.0
 (Enter /usr/site/hpc/x86_64/glibc-2.17/broadwell/gaussian/g16_a.03/pgi-16.5/g16/l401.exe)
 ExpMin= 1.78D-01 ExpMax= 1.92D+01 ExpMxC= 1.92D+01 IAcc=3 IRadAn=         5 AccDes= 0.00D+00
 Harris functional with IExCor=  205 and IRadAn=       5 diagonalized for initial guess.
 HarFok:  IExCor=  205 AccDes= 0.00D+00 IRadAn=         5 IDoV= 1 UseB2=F ITyADJ=14
 ICtDFT=  3500011 ScaDFX=  1.000000  1.000000  1.000000  1.000000
 FoFCou: FMM=F IPFlag=           0 FMFlag=      100000 FMFlg1=           0
         NFxFlg=           0 DoJE=T BraDBF=F KetDBF=T FulRan=T
         wScrn=  0.000000 ICntrl=       500 IOpCl=  0 I1Cent=   200000004 NGrid=           0
         NMat0=    1 NMatS0=      1 NMatT0=    0 NMatD0=    1 NMtDS0=    0 NMtDT0=    0
 Petite list used in FoFCou.
 Harris En= -34.4763625321939    
 JPrj=0 DoOrth=F DoCkMO=F.
 Initial guess orbital symmetries:
       Occupied  (A') (A') (A') (A') (A') (A') (A") (A")
       Virtual   (A') (A') (A') (A') (A") (A") (A') (A') (A') (A')
                 (A') (A') (A') (A') (A') (A')
 The electronic state of the initial guess is 1-A'.
 Leave Link  401 at Sun Dec 10 06:59:20 2023, MaxMem=   536870912 cpu:               0.4 elap:               0.1
 (Enter /usr/site/hpc/x86_64/glibc-2.17/broadwell/gaussian/g16_a.03/pgi-16.5/g16/l502.exe)
 Keep R1 ints in memory in symmetry-blocked form, NReq=851878.
 FoFCou: FMM=F IPFlag=           0 FMFlag=           0 FMFlg1=           0
         NFxFlg=           0 DoJE=F BraDBF=F KetDBF=F FulRan=T
         wScrn=  0.000000 ICntrl=       600 IOpCl=  0 I1Cent=           0 NGrid=           0
         NMat0=    1 NMatS0=    300 NMatT0=    0 NMatD0=    1 NMtDS0=    0 NMtDT0=    0
 Petite list used in FoFCou.
 Closed shell SCF:
 Using DIIS extrapolation, IDIIS=  1040.
 NGot=   536870912 LenX=   536840576 LenY=   536839559
 Requested convergence on RMS density matrix=1.00D-08 within 128 cycles.
 Requested convergence on MAX density matrix=1.00D-06.
 Requested convergence on             energy=1.00D-06.
 No special actions if energy rises.

 Cycle   1  Pass 1  IDiag  1:
 E= -33.5597059811839    
 DIIS: error= 6.84D-02 at cycle   1 NSaved=   1.
 NSaved= 1 IEnMin= 1 EnMin= -33.5597059811839     IErMin= 1 ErrMin= 6.84D-02
 ErrMax= 6.84D-02  0.00D+00 EMaxC= 1.00D-01 BMatC= 1.02D-01 BMatP= 1.02D-01
 IDIUse=3 WtCom= 3.16D-01 WtEn= 6.84D-01
 Coeff-Com:  0.100D+01
 Coeff-En:   0.100D+01
 Coeff:      0.100D+01
 Gap=     0.605 Goal=   None    Shift=    0.000
 GapD=    0.605 DampG=2.000 DampE=0.500 DampFc=1.0000 IDamp=-1.
 RMSDP=1.47D-02 MaxDP=1.17D-01              OVMax= 9.83D-02

 Cycle   2  Pass 1  IDiag  1:
 E= -33.6220296581984     Delta-E=       -0.062323677014 Rises=F Damp=F
 DIIS: error= 3.71D-02 at cycle   2 NSaved=   2.
 NSaved= 2 IEnMin= 2 EnMin= -33.6220296581984     IErMin= 2 ErrMin= 3.71D-02
 ErrMax= 3.71D-02  0.00D+00 EMaxC= 1.00D-01 BMatC= 3.79D-02 BMatP= 1.02D-01
 IDIUse=3 WtCom= 6.29D-01 WtEn= 3.71D-01
 Coeff-Com:  0.377D+00 0.623D+00
 Coeff-En:   0.110D+00 0.890D+00
 Coeff:      0.278D+00 0.722D+00
 Gap=     0.696 Goal=   None    Shift=    0.000
 RMSDP=6.37D-03 MaxDP=5.39D-02 DE=-6.23D-02 OVMax= 3.56D-02

 Cycle   3  Pass 1  IDiag  1:
 E= -33.6523444433699     Delta-E=       -0.030314785171 Rises=F Damp=F
 DIIS: error= 7.08D-03 at cycle   3 NSaved=   3.
 NSaved= 3 IEnMin= 3 EnMin= -33.6523444433699     IErMin= 3 ErrMin= 7.08D-03
 ErrMax= 7.08D-03  0.00D+00 EMaxC= 1.00D-01 BMatC= 8.79D-04 BMatP= 3.79D-02
 IDIUse=3 WtCom= 9.29D-01 WtEn= 7.08D-02
 Coeff-Com: -0.114D+00-0.173D-01 0.113D+01
 Coeff-En:   0.000D+00 0.000D+00 0.100D+01
 Coeff:     -0.106D+00-0.161D-01 0.112D+01
 Gap=     0.689 Goal=   None    Shift=    0.000
 RMSDP=1.05D-03 MaxDP=8.91D-03 DE=-3.03D-02 OVMax= 7.95D-03

 Cycle   4  Pass 1  IDiag  1:
 E= -33.6532196384475     Delta-E=       -0.000875195078 Rises=F Damp=F
 DIIS: error= 7.39D-04 at cycle   4 NSaved=   4.
 NSaved= 4 IEnMin= 4 EnMin= -33.6532196384475     IErMin= 4 ErrMin= 7.39D-04
 ErrMax= 7.39D-04  0.00D+00 EMaxC= 1.00D-01 BMatC= 5.67D-06 BMatP= 8.79D-04
 IDIUse=3 WtCom= 9.93D-01 WtEn= 7.39D-03
 Coeff-Com:  0.439D-01-0.171D-01-0.531D+00 0.150D+01
 Coeff-En:   0.000D+00 0.000D+00 0.000D+00 0.100D+01
 Coeff:      0.436D-01-0.169D-01-0.527D+00 0.150D+01
 Gap=     0.690 Goal=   None    Shift=    0.000
 RMSDP=2.33D-04 MaxDP=1.99D-03 DE=-8.75D-04 OVMax= 9.41D-04

 Cycle   5  Pass 1  IDiag  1:
 E= -33.6532323349735     Delta-E=       -0.000012696526 Rises=F Damp=F
 DIIS: error= 4.84D-05 at cycle   5 NSaved=   5.
 NSaved= 5 IEnMin= 5 EnMin= -33.6532323349735     IErMin= 5 ErrMin= 4.84D-05
 ErrMax= 4.84D-05  0.00D+00 EMaxC= 1.00D-01 BMatC= 3.56D-08 BMatP= 5.67D-06
 IDIUse=1 WtCom= 1.00D+00 WtEn= 0.00D+00
 Coeff-Com: -0.706D-02 0.310D-02 0.866D-01-0.292D+00 0.121D+01
 Coeff:     -0.706D-02 0.310D-02 0.866D-01-0.292D+00 0.121D+01
 Gap=     0.691 Goal=   None    Shift=    0.000
 RMSDP=1.52D-05 MaxDP=1.43D-04 DE=-1.27D-05 OVMax= 9.62D-05

 Cycle   6  Pass 1  IDiag  1:
 E= -33.6532324225015     Delta-E=       -0.000000087528 Rises=F Damp=F
 DIIS: error= 1.05D-05 at cycle   6 NSaved=   6.
 NSaved= 6 IEnMin= 6 EnMin= -33.6532324225015     IErMin= 6 ErrMin= 1.05D-05
 ErrMax= 1.05D-05  0.00D+00 EMaxC= 1.00D-01 BMatC= 1.97D-09 BMatP= 3.56D-08
 IDIUse=1 WtCom= 1.00D+00 WtEn= 0.00D+00
 Coeff-Com:  0.132D-02-0.472D-03-0.158D-01 0.591D-01-0.413D+00 0.137D+01
 Coeff:      0.132D-02-0.472D-03-0.158D-01 0.591D-01-0.413D+00 0.137D+01
 Gap=     0.691 Goal=   None    Shift=    0.000
 RMSDP=3.78D-06 MaxDP=2.80D-05 DE=-8.75D-08 OVMax= 3.25D-05

 Cycle   7  Pass 1  IDiag  1:
 E= -33.6532324279876     Delta-E=       -0.000000005486 Rises=F Damp=F
 DIIS: error= 2.10D-06 at cycle   7 NSaved=   7.
 NSaved= 7 IEnMin= 7 EnMin= -33.6532324279876     IErMin= 7 ErrMin= 2.10D-06
 ErrMax= 2.10D-06  0.00D+00 EMaxC= 1.00D-01 BMatC= 8.98D-11 BMatP= 1.97D-09
 IDIUse=1 WtCom= 1.00D+00 WtEn= 0.00D+00
 Coeff-Com:  0.388D-04-0.701D-04-0.623D-03-0.161D-03 0.658D-01-0.434D+00
 Coeff-Com:  0.137D+01
 Coeff:      0.388D-04-0.701D-04-0.623D-03-0.161D-03 0.658D-01-0.434D+00
 Coeff:      0.137D+01
 Gap=     0.691 Goal=   None    Shift=    0.000
 RMSDP=1.02D-06 MaxDP=6.11D-06 DE=-5.49D-09 OVMax= 8.18D-06

 Cycle   8  Pass 1  IDiag  1:
 E= -33.6532324282444     Delta-E=       -0.000000000257 Rises=F Damp=F
 DIIS: error= 3.27D-07 at cycle   8 NSaved=   8.
 NSaved= 8 IEnMin= 8 EnMin= -33.6532324282444     IErMin= 8 ErrMin= 3.27D-07
 ErrMax= 3.27D-07  0.00D+00 EMaxC= 1.00D-01 BMatC= 3.41D-12 BMatP= 8.98D-11
 IDIUse=1 WtCom= 1.00D+00 WtEn= 0.00D+00
 Coeff-Com:  0.231D-05-0.624D-05-0.312D-04-0.102D-03 0.543D-02-0.284D-01
 Coeff-Com:  0.190D-01 0.100D+01
 Coeff:      0.231D-05-0.624D-05-0.312D-04-0.102D-03 0.543D-02-0.284D-01
 Coeff:      0.190D-01 0.100D+01
 Gap=     0.691 Goal=   None    Shift=    0.000
 RMSDP=1.62D-07 MaxDP=6.51D-07 DE=-2.57D-10 OVMax= 1.20D-06

 Cycle   9  Pass 1  IDiag  1:
 E= -33.6532324282504     Delta-E=       -0.000000000006 Rises=F Damp=F
 DIIS: error= 1.18D-07 at cycle   9 NSaved=   9.
 NSaved= 9 IEnMin= 9 EnMin= -33.6532324282504     IErMin= 9 ErrMin= 1.18D-07
 ErrMax= 1.18D-07  0.00D+00 EMaxC= 1.00D-01 BMatC= 5.92D-13 BMatP= 3.41D-12
 IDIUse=1 WtCom= 1.00D+00 WtEn= 0.00D+00
 Coeff-Com:  0.406D-05 0.613D-05-0.214D-04 0.413D-03-0.121D-01 0.737D-01
 Coeff-Com: -0.239D+00 0.223D+00 0.955D+00
 Coeff:      0.406D-05 0.613D-05-0.214D-04 0.413D-03-0.121D-01 0.737D-01
 Coeff:     -0.239D+00 0.223D+00 0.955D+00
 Gap=     0.691 Goal=   None    Shift=    0.000
 RMSDP=7.63D-08 MaxDP=3.29D-07 DE=-6.05D-12 OVMax= 5.35D-07

 Cycle  10  Pass 1  IDiag  1:
 E= -33.6532324282515     Delta-E=       -0.000000000001 Rises=F Damp=F
 DIIS: error= 8.40D-09 at cycle  10 NSaved=  10.
 NSaved=10 IEnMin=10 EnMin= -33.6532324282515     IErMin=10 ErrMin= 8.40D-09
 ErrMax= 8.40D-09  0.00D+00 EMaxC= 1.00D-01 BMatC= 2.82D-15 BMatP= 5.92D-13
 IDIUse=1 WtCom= 1.00D+00 WtEn= 0.00D+00
 Coeff-Com:  0.236D-07-0.175D-05-0.718D-05-0.578D-04 0.274D-02-0.175D-01
 Coeff-Com:  0.579D-01-0.760D-01-0.246D+00 0.128D+01
 Coeff:      0.236D-07-0.175D-05-0.718D-05-0.578D-04 0.274D-02-0.175D-01
 Coeff:      0.579D-01-0.760D-01-0.246D+00 0.128D+01
 Gap=     0.691 Goal=   None    Shift=    0.000
 RMSDP=1.17D-08 MaxDP=5.56D-08 DE=-1.05D-12 OVMax= 6.87D-08

 Cycle  11  Pass 1  IDiag  1:
 E= -33.6532324282514     Delta-E=        0.000000000000 Rises=F Damp=F
 DIIS: error= 3.74D-10 at cycle  11 NSaved=  11.
 NSaved=11 IEnMin=10 EnMin= -33.6532324282515     IErMin=11 ErrMin= 3.74D-10
 ErrMax= 3.74D-10  0.00D+00 EMaxC= 1.00D-01 BMatC= 3.53D-18 BMatP= 2.82D-15
 IDIUse=1 WtCom= 1.00D+00 WtEn= 0.00D+00
 Coeff-Com: -0.703D-07 0.315D-06 0.199D-05 0.748D-05-0.465D-03 0.301D-02
 Coeff-Com: -0.101D-01 0.137D-01 0.433D-01-0.244D+00 0.119D+01
 Coeff:     -0.703D-07 0.315D-06 0.199D-05 0.748D-05-0.465D-03 0.301D-02
 Coeff:     -0.101D-01 0.137D-01 0.433D-01-0.244D+00 0.119D+01
 Gap=     0.691 Goal=   None    Shift=    0.000
 RMSDP=2.16D-10 MaxDP=1.24D-09 DE= 8.53D-14 OVMax= 8.58D-10

 SCF Done:  E(RHF) =  -33.6532324283     A.U. after   11 cycles
            NFock= 11  Conv=0.22D-09     -V/T= 2.2569
 KE= 2.677549627088D+01 PE=-1.202846475515D+02 EE= 4.051338677594D+01
 Leave Link  502 at Sun Dec 10 06:59:20 2023, MaxMem=   536870912 cpu:               0.3 elap:               0.1
 (Enter /usr/site/hpc/x86_64/glibc-2.17/broadwell/gaussian/g16_a.03/pgi-16.5/g16/l801.exe)
 Windowed orbitals will be sorted by symmetry type.
 Range of M.O.s used for correlation:     1    24
 NBasis=    24 NAE=     8 NBE=     8 NFC=     0 NFV=     0
 NROrb=     24 NOA=     8 NOB=     8 NVA=    16 NVB=    16
 Leave Link  801 at Sun Dec 10 06:59:20 2023, MaxMem=   536870912 cpu:               0.1 elap:               0.0
 (Enter /usr/site/hpc/x86_64/glibc-2.17/broadwell/gaussian/g16_a.03/pgi-16.5/g16/l804.exe)
 Closed-shell transformation, MDV=   536870912 ITran=4 ISComp=2.
 Unit  1 TFree=       1025975 TCopy=        210600.
 Semi-Direct transformation.
 ModeAB=           4 MOrb=             8 LenV=     536742520
 LASXX=        22470 LTotXX=       22470 LenRXX=       48678
 LTotAB=       26208 MaxLAS=       56064 LenRXY=           0
 NonZer=       71148 LenScr=      524288 LnRSAI=       56064
 LnScr1=      524288 LExtra=           0 Total=      1153318
 MaxDsk=          -1 SrtSym=           T ITran=            4
 DoSDTr:  NPSUse=  4
 JobTyp=0 Pass  1:  I=   1 to   8.
 (rs|ai) integrals will be sorted in core.
 Complete sort for first half transformation.
 First half transformation complete.
 Complete sort for second half transformation.
 Second half transformation complete.
 Spin components of T(2) and E(2):
     alpha-alpha T2 =       0.9062668907D-02 E2=     -0.2589063309D-01
     alpha-beta  T2 =       0.5986771137D-01 E2=     -0.1765169006D+00
     beta-beta   T2 =       0.9062668907D-02 E2=     -0.2589063309D-01
 ANorm=    0.1038264441D+01
 E2 =    -0.2282981668D+00 EUMP2 =    -0.33881530595029D+02
 Leave Link  804 at Sun Dec 10 06:59:20 2023, MaxMem=   536870912 cpu:               0.2 elap:               0.1
 (Enter /usr/site/hpc/x86_64/glibc-2.17/broadwell/gaussian/g16_a.03/pgi-16.5/g16/l913.exe)
 CIDS:  MDV=   536870912.
 IFCWin=0 IBDFC=1 NFBD=     0     0 NFCmp=     0     0 NFFFC=     0     0
 Using DD3R+UMP44R for 1st iteration.
 Using DD4RQ for 2nd and later iterations.
 Keep R2 and R3 ints in memory in symmetry-blocked form, NReq=864486.
 FoFCou: FMM=F IPFlag=           0 FMFlag=           0 FMFlg1=           0
         NFxFlg=           0 DoJE=F BraDBF=F KetDBF=F FulRan=T
         wScrn=  0.000000 ICntrl=       600 IOpCl=  0 I1Cent=           0 NGrid=           0
         NMat0=    1 NMatS0=    300 NMatT0=    0 NMatD0=    1 NMtDS0=    0 NMtDT0=    0
 Petite list used in FoFCou.
 CIDS: In Core Option IDoMem=           1.
 CCSD(T)
 =======
 Iterations=  50 Convergence= 0.100D-06
 Produce multiple copies of IABC intergrals
 Iteration Nr.   1
 **********************
 DD1Dir will call FoFMem   1 times, MxPair=        72
 NAB=    36 NAA=     0 NBB=     0.
 MP4(R+Q)= -0.74708089D-03
 Maximum subspace dimension=  5
 A-vector RMS=  5.7487664D-03 Max=  1.3205934D-02 conv= 1.00D-05.
 RLE energy=       -0.2343469009
 E3=       -0.54202978D-02        EUMP3=      -0.33886950893D+02
 E4(DQ)=   -0.59060462D-02        UMP4(DQ)=   -0.33892856939D+02
 E4(SDQ)=  -0.79299133D-02        UMP4(SDQ)=  -0.33894880806D+02
 VARIATIONAL ENERGIES WITH THE FIRST-ORDER WAVEFUNCTION:
 DE(Corr)= -0.23419112     E(Corr)=     -33.887423545    
 NORM(A)=   0.10416892D+01
 Iteration Nr.   2
 **********************
 DD1Dir will call FoFMem   1 times, MxPair=        72
 NAB=    36 NAA=     0 NBB=     0.
 A-vector RMS=  9.8200963D-04 Max=  2.7284200D-03 conv= 1.00D-05.
 RLE energy=       -0.2421071264
 DE(Corr)= -0.24016585     E(CORR)=     -33.893398277     Delta=-5.97D-03
 NORM(A)=   0.10454727D+01
 Iteration Nr.   3
 **********************
 DD1Dir will call FoFMem   1 times, MxPair=        72
 NAB=    36 NAA=     0 NBB=     0.
 A-vector RMS=  3.8072015D-04 Max=  1.1413583D-03 conv= 1.00D-05.
 RLE energy=       -0.2426567804
 DE(Corr)= -0.24221030     E(CORR)=     -33.895442726     Delta=-2.04D-03
 NORM(A)=   0.10460317D+01
 Iteration Nr.   4
 **********************
 DD1Dir will call FoFMem   1 times, MxPair=        72
 NAB=    36 NAA=     0 NBB=     0.
 A-vector RMS=  9.1734769D-05 Max=  2.4799244D-04 conv= 1.00D-05.
 RLE energy=       -0.2427033108
 DE(Corr)= -0.24266756     E(CORR)=     -33.895899988     Delta=-4.57D-04
 NORM(A)=   0.10461051D+01
 Iteration Nr.   5
 **********************
 DD1Dir will call FoFMem   1 times, MxPair=        72
 NAB=    36 NAA=     0 NBB=     0.
 A-vector RMS=  4.1102037D-05 Max=  1.5028678D-04 conv= 1.00D-05.
 RLE energy=       -0.2427015448
 DE(Corr)= -0.24269957     E(CORR)=     -33.895932001     Delta=-3.20D-05
 NORM(A)=   0.10461155D+01
 Iteration Nr.   6
 **********************
 DD1Dir will call FoFMem   1 times, MxPair=        72
 NAB=    36 NAA=     0 NBB=     0.
 A-vector RMS=  1.1244238D-05 Max=  4.0091978D-05 conv= 1.00D-05.
 RLE energy=       -0.2427007247
 DE(Corr)= -0.24270171     E(CORR)=     -33.895934135     Delta=-2.13D-06
 NORM(A)=   0.10461189D+01
 Iteration Nr.   7
 **********************
 DD1Dir will call FoFMem   1 times, MxPair=        72
 NAB=    36 NAA=     0 NBB=     0.
 A-vector RMS=  3.3189328D-06 Max=  1.1851513D-05 conv= 1.00D-05.
 RLE energy=       -0.2427016371
 DE(Corr)= -0.24270110     E(CORR)=     -33.895933532     Delta= 6.04D-07
 NORM(A)=   0.10461203D+01
 Iteration Nr.   8
 **********************
 DD1Dir will call FoFMem   1 times, MxPair=        72
 NAB=    36 NAA=     0 NBB=     0.
 A-vector RMS=  5.7853447D-07 Max=  1.8062442D-06 conv= 1.00D-05.
 RLE energy=       -0.2427011497
 DE(Corr)= -0.24270116     E(CORR)=     -33.895933586     Delta=-5.42D-08
 NORM(A)=   0.10461204D+01
 CI/CC converged in    8 iterations to DelEn=-5.42D-08 Conv= 1.00D-07 ErrA1= 5.79D-07 Conv= 1.00D-05
 Wavefunction amplitudes converged. E(Corr)=     -33.895933586    
 Largest amplitude= 5.86D-02
 IPart=  3 IA=    2   12.50% done.
 IPart=  4 IA=    3   24.17% done.
 IPart=  2 IA=    4   35.00% done.
 IPart=  2 IA=    5   45.00% done.
 IPart=  4 IA=    6   54.17% done.
 IPart=  1 IA=    7   62.50% done.
 IPart=  3 IA=    8   70.00% done.
 IPart=  3 IA=   10   82.50% done.
 IPart=  4 IA=   12   91.67% done.
 Time for triples=        0.27 seconds.
 T4(CCSD)= -0.30826537D-02
 T5(CCSD)=  0.52537405D-03
 CCSD(T)= -0.33898490866D+02
 Discarding MO integrals.
 Leave Link  913 at Sun Dec 10 06:59:20 2023, MaxMem=   536870912 cpu:               0.9 elap:               0.2
 (Enter /usr/site/hpc/x86_64/glibc-2.17/broadwell/gaussian/g16_a.03/pgi-16.5/g16/l601.exe)
 Copying SCF densities to generalized density rwf, IOpCl= 0 IROHF=0.

 **********************************************************************

            Population analysis using the SCF density.

 **********************************************************************

 Orbital symmetries:
       Occupied  (A') (A') (A') (A') (A') (A') (A") (A")
       Virtual   (A') (A') (A') (A') (A") (A") (A') (A') (A') (A')
                 (A') (A') (A') (A') (A') (A')
 The electronic state is 1-A'.
 Alpha  occ. eigenvalues --   -1.36197  -1.34816  -0.71836  -0.70453  -0.56012
 Alpha  occ. eigenvalues --   -0.54602  -0.50790  -0.49413
 Alpha virt. eigenvalues --    0.19649   0.21066   0.29904   0.31343   0.79760
 Alpha virt. eigenvalues --    0.81109   0.82638   0.84094   0.85803   0.87190
 Alpha virt. eigenvalues --    1.16768   1.18151   1.21211   1.22633   2.56741
 Alpha virt. eigenvalues --    2.58143
          Condensed to atoms (all electrons):
               1          2          3          4          5          6
     1  O    6.218335   0.265088   0.263309  -0.000000   0.000000   0.000000
     2  H    0.265088   0.381154  -0.023310   0.000002  -0.000000  -0.000000
     3  H    0.263309  -0.023310   0.390339  -0.000000   0.000000   0.000000
     4  O   -0.000000   0.000002  -0.000000   6.217615   0.264256   0.264444
     5  H    0.000000  -0.000000   0.000000   0.264256   0.385839  -0.023383
     6  H    0.000000  -0.000000   0.000000   0.264444  -0.023383   0.385904
 Mulliken charges:
               1
     1  O   -0.746732
     2  H    0.377066
     3  H    0.369662
     4  O   -0.746318
     5  H    0.373287
     6  H    0.373034
 Sum of Mulliken charges =   0.00000
 Mulliken charges with hydrogens summed into heavy atoms:
               1
     1  O   -0.000003
     4  O    0.000003
 Electronic spatial extent (au):  <R**2>=            533.0657
 Charge=             -0.0000 electrons
 Dipole moment (field-independent basis, Debye):
    X=              1.0642    Y=             -3.9880    Z=              0.0000  Tot=              4.1276
 Quadrupole moment (field-independent basis, Debye-Ang):
   XX=             -9.5991   YY=             -5.7665   ZZ=            -14.9915
   XY=              9.8511   XZ=              0.0000   YZ=              0.0000
 Traceless Quadrupole moment (field-independent basis, Debye-Ang):
   XX=              0.5199   YY=              4.3525   ZZ=             -4.8724
   XY=              9.8511   XZ=              0.0000   YZ=              0.0000
 Octapole moment (field-independent basis, Debye-Ang**2):
  XXX=              0.2470  YYY=            -96.8854  ZZZ=              0.0000  XYY=             20.6681
  XXY=             -3.6673  XXZ=              0.0000  XZZ=              0.1998  YZZ=             -0.7585
  YYZ=              0.0000  XYZ=              0.0000
 Hexadecapole moment (field-independent basis, Debye-Ang**3):
 XXXX=            -11.5007 YYYY=           -490.5133 ZZZZ=            -12.2267 XXXY=              5.2920
 XXXZ=              0.0000 YYYX=             85.0297 YYYZ=              0.0000 ZZZX=              0.0000
 ZZZY=              0.0000 XXYY=            -81.1954 XXZZ=             -4.5434 YYZZ=           -133.6627
 XXYZ=              0.0000 YYXZ=              0.0000 ZZXY=             -1.2844
 N-N= 1.934253207641D+01 E-N=-1.202846475555D+02  KE= 2.677549627088D+01
 Symmetry A'   KE= 1.789573762417D+01
 Symmetry A"   KE= 8.879758646714D+00
 Leave Link  601 at Sun Dec 10 06:59:20 2023, MaxMem=   536870912 cpu:               0.1 elap:               0.0
 (Enter /usr/site/hpc/x86_64/glibc-2.17/broadwell/gaussian/g16_a.03/pgi-16.5/g16/l9999.exe)
 1\1\GINC-N033\SP\RCCSD(T)-FC\CEP-31G\H4O2\ROOT\10-Dec-2023\0\\#p CCSD(
 T)/CEP-31G\\H2O_H2O_4796\\0,1\O,0,0.,-0.009833,0.\H,0,-0.799571,-0.580
 965,0.\H,0,0.799571,-0.580965,0.\O,0,-4.770149,-3.402336,0.\H,0,-5.486
 295,-2.72955,0.\H,0,-5.174318,-4.297966,0.\\Version=ES64L-G16RevA.03\S
 tate=1-A'\HF=-33.6532324\MP2=-33.8815306\MP3=-33.8869509\MP4D=-33.8921
 099\MP4DQ=-33.8928569\MP4SDQ=-33.8948808\CCSD=-33.8959336\CCSD(T)=-33.
 8984909\RMSD=2.163e-10\PG=CS [SG(H4O2)]\\@


 IF YOU DON'T HAVE THE LAW - ARGUE THE FACTS.
 IF YOU DON'T HAVE THE FACTS - ARGUE THE LAW.
 IF YOU DON'T HAVE EITHER - POUND THE TABLE.
 Job cpu time:       0 days  0 hours  0 minutes  3.2 seconds.
 Elapsed time:       0 days  0 hours  0 minutes  1.0 seconds.
 File lengths (MBytes):  RWF=     72 Int=      0 D2E=      0 Chk=      8 Scr=      8
 Normal termination of Gaussian 16 at Sun Dec 10 06:59:20 2023.
