 Entering Gaussian System, Link 0=g16
 Input=H2O_H2O_3965.com
 Output=H2O_H2O_3965.log
 Initial command:
 /usr/site/hpc/x86_64/glibc-2.17/broadwell/gaussian/g16_a.03/pgi-16.5/g16/l1.exe "/gpfs/gpfs1/scratch/c7441090/OH Coord/Gau-1252795.inp" -scrdir="/gpfs/gpfs1/scratch/c7441090/OH Coord/"
 Entering Link 1 = /usr/site/hpc/x86_64/glibc-2.17/broadwell/gaussian/g16_a.03/pgi-16.5/g16/l1.exe PID=   1252796.
  
 Copyright (c) 1988,1990,1992,1993,1995,1998,2003,2009,2016,
            Gaussian, Inc.  All Rights Reserved.
  
 This is part of the Gaussian(R) 16 program.  It is based on
 the Gaussian(R) 09 system (copyright 2009, Gaussian, Inc.),
 the Gaussian(R) 03 system (copyright 2003, Gaussian, Inc.),
 the Gaussian(R) 98 system (copyright 1998, Gaussian, Inc.),
 the Gaussian(R) 94 system (copyright 1995, Gaussian, Inc.),
 the Gaussian 92(TM) system (copyright 1992, Gaussian, Inc.),
 the Gaussian 90(TM) system (copyright 1990, Gaussian, Inc.),
 the Gaussian 88(TM) system (copyright 1988, Gaussian, Inc.),
 the Gaussian 86(TM) system (copyright 1986, Carnegie Mellon
 University), and the Gaussian 82(TM) system (copyright 1983,
 Carnegie Mellon University). Gaussian is a federally registered
 trademark of Gaussian, Inc.
  
 This software contains proprietary and confidential information,
 including trade secrets, belonging to Gaussian, Inc.
  
 This software is provided under written license and may be
 used, copied, transmitted, or stored only in accord with that
 written license.
  
 The following legend is applicable only to US Government
 contracts under FAR:
  
                    RESTRICTED RIGHTS LEGEND
  
 Use, reproduction and disclosure by the US Government is
 subject to restrictions as set forth in subparagraphs (a)
 and (c) of the Commercial Computer Software - Restricted
 Rights clause in FAR 52.227-19.
  
 Gaussian, Inc.
 340 Quinnipiac St., Bldg. 40, Wallingford CT 06492
  
  
 ---------------------------------------------------------------
 Warning -- This program may not be used in any manner that
 competes with the business of Gaussian, Inc. or will provide
 assistance to any competitor of Gaussian, Inc.  The licensee
 of this program is prohibited from giving any competitor of
 Gaussian, Inc. access to this program.  By using this program,
 the user acknowledges that Gaussian, Inc. is engaged in the
 business of creating and licensing software in the field of
 computational chemistry and represents and warrants to the
 licensee that it is not a competitor of Gaussian, Inc. and that
 it will not use this program in any manner prohibited above.
 ---------------------------------------------------------------
  

 Cite this work as:
 Gaussian 16, Revision A.03,
 M. J. Frisch, G. W. Trucks, H. B. Schlegel, G. E. Scuseria, 
 M. A. Robb, J. R. Cheeseman, G. Scalmani, V. Barone, 
 G. A. Petersson, H. Nakatsuji, X. Li, M. Caricato, A. V. Marenich, 
 J. Bloino, B. G. Janesko, R. Gomperts, B. Mennucci, H. P. Hratchian, 
 J. V. Ortiz, A. F. Izmaylov, J. L. Sonnenberg, D. Williams-Young, 
 F. Ding, F. Lipparini, F. Egidi, J. Goings, B. Peng, A. Petrone, 
 T. Henderson, D. Ranasinghe, V. G. Zakrzewski, J. Gao, N. Rega, 
 G. Zheng, W. Liang, M. Hada, M. Ehara, K. Toyota, R. Fukuda, 
 J. Hasegawa, M. Ishida, T. Nakajima, Y. Honda, O. Kitao, H. Nakai, 
 T. Vreven, K. Throssell, J. A. Montgomery, Jr., J. E. Peralta, 
 F. Ogliaro, M. J. Bearpark, J. J. Heyd, E. N. Brothers, K. N. Kudin, 
 V. N. Staroverov, T. A. Keith, R. Kobayashi, J. Normand, 
 K. Raghavachari, A. P. Rendell, J. C. Burant, S. S. Iyengar, 
 J. Tomasi, M. Cossi, J. M. Millam, M. Klene, C. Adamo, R. Cammi, 
 J. W. Ochterski, R. L. Martin, K. Morokuma, O. Farkas, 
 J. B. Foresman, and D. J. Fox, Gaussian, Inc., Wallingford CT, 2016.
 
 ******************************************
 Gaussian 16:  ES64L-G16RevA.03 25-Dec-2016
                10-Dec-2023 
 ******************************************
 %NProcShared=4
 Will use up to    4 processors via shared memory.
 %Mem=4GB
 %Chk=H2O_H2O_3965.chk
 ------------------
 #p CCSD(T)/CEP-31G
 ------------------
 1/38=1,172=1/1;
 2/12=2,17=6,18=5,40=1/2;
 3/5=9,6=1,11=9,25=1,30=1/1,2,3;
 4//1;
 5/5=2,38=5/2;
 8/6=4,9=120000,10=1/1,4;
 9/5=7,14=2/13;
 6/7=2,8=2,9=2,10=2/1;
 99/5=1,9=1/99;
 Leave Link    1 at Sun Dec 10 06:44:20 2023, MaxMem=   536870912 cpu:               0.2 elap:               0.1
 (Enter /usr/site/hpc/x86_64/glibc-2.17/broadwell/gaussian/g16_a.03/pgi-16.5/g16/l101.exe)
 ------------
 H2O_H2O_3965
 ------------
 Symbolic Z-matrix:
 Charge =  0 Multiplicity = 1
 O                     0.       -0.00983   0. 
 H                    -0.79957  -0.58097   0. 
 H                     0.79957  -0.58097   0. 
 O                    -4.23313  -3.02334   0. 
 H                    -5.15222  -2.67582   0. 
 H                    -4.26379  -4.00546   0. 
 
 ITRead=  0  0  0  0  0  0
 MicOpt= -1 -1 -1 -1 -1 -1
 NAtoms=      6 NQM=        6 NQMF=       0 NMMI=      0 NMMIF=      0
                NMic=       0 NMicF=      0.
                    Isotopes and Nuclear Properties:
 (Nuclear quadrupole moments (NQMom) in fm**2, nuclear magnetic moments (NMagM)
  in nuclear magnetons)

  Atom         1           2           3           4           5           6
 IAtWgt=          16           1           1          16           1           1
 AtmWgt=  15.9949146   1.0078250   1.0078250  15.9949146   1.0078250   1.0078250
 NucSpn=           0           1           1           0           1           1
 AtZEff=  -0.0000000  -0.0000000  -0.0000000  -0.0000000  -0.0000000  -0.0000000
 NQMom=    0.0000000   0.0000000   0.0000000   0.0000000   0.0000000   0.0000000
 NMagM=    0.0000000   2.7928460   2.7928460   0.0000000   2.7928460   2.7928460
 AtZNuc=   8.0000000   1.0000000   1.0000000   8.0000000   1.0000000   1.0000000
 Leave Link  101 at Sun Dec 10 06:44:21 2023, MaxMem=   536870912 cpu:               0.3 elap:               0.1
 (Enter /usr/site/hpc/x86_64/glibc-2.17/broadwell/gaussian/g16_a.03/pgi-16.5/g16/l202.exe)
                          Input orientation:                          
 ---------------------------------------------------------------------
 Center     Atomic      Atomic             Coordinates (Angstroms)
 Number     Number       Type             X           Y           Z
 ---------------------------------------------------------------------
      1          8           0        0.000000   -0.009833    0.000000
      2          1           0       -0.799571   -0.580965    0.000000
      3          1           0        0.799571   -0.580965    0.000000
      4          8           0       -4.233127   -3.023336    0.000000
      5          1           0       -5.152224   -2.675820    0.000000
      6          1           0       -4.263788   -4.005459    0.000000
 ---------------------------------------------------------------------
                    Distance matrix (angstroms):
                    1          2          3          4          5
     1  O    0.000000
     2  H    0.982601   0.000000
     3  H    0.982601   1.599142   0.000000
     4  O    5.196207   4.213607   5.594035   0.000000
     5  H    5.801112   4.830529   6.309697   0.982602   0.000000
     6  H    5.843365   4.871135   6.112672   0.982601   1.599143
                    6
     6  H    0.000000
 Stoichiometry    H4O2
 Framework group  CS[SG(H4O2)]
 Deg. of freedom     9
 Full point group                 CS      NOp   2
 Largest Abelian subgroup         CS      NOp   2
 Largest concise Abelian subgroup C1      NOp   1
                         Standard orientation:                         
 ---------------------------------------------------------------------
 Center     Atomic      Atomic             Coordinates (Angstroms)
 Number     Number       Type             X           Y           Z
 ---------------------------------------------------------------------
      1          8           0        0.044837    2.688314   -0.000000
      2          1           0        0.043265    1.705714   -0.000000
      3          1           0       -0.884145    3.008466   -0.000000
      4          8           0        0.044837   -2.507893    0.000000
      5          1           0        0.860967   -3.055102    0.000000
      6          1           0       -0.737475   -3.102446    0.000000
 ---------------------------------------------------------------------
 Rotational constants (GHZ):         240.4233889           2.0433095           2.0260902
 Leave Link  202 at Sun Dec 10 06:44:21 2023, MaxMem=   536870912 cpu:               0.1 elap:               0.0
 (Enter /usr/site/hpc/x86_64/glibc-2.17/broadwell/gaussian/g16_a.03/pgi-16.5/g16/l301.exe)
 Standard basis: CEP-31G (6D, 10F)
 Ernie: Thresh=  0.10000D-02 Tol=  0.10000D-05 Strict=F.
 There are    20 symmetry adapted cartesian basis functions of A'  symmetry.
 There are     4 symmetry adapted cartesian basis functions of A"  symmetry.
 There are    20 symmetry adapted basis functions of A'  symmetry.
 There are     4 symmetry adapted basis functions of A"  symmetry.
    24 basis functions,    48 primitive gaussians,    24 cartesian basis functions
     8 alpha electrons        8 beta electrons
       nuclear repulsion energy        20.0535749930 Hartrees.
 IExCor=    0 DFT=F Ex=HF Corr=None ExCW=0 ScaHFX=  1.000000
 ScaDFX=  1.000000  1.000000  1.000000  1.000000 ScalE2=  1.000000  1.000000
 IRadAn=      5 IRanWt=     -1 IRanGd=            0 ICorTp=0 IEmpDi=  4
 NAtoms=    6 NActive=    6 NUniq=    6 SFac= 1.00D+00 NAtFMM=   60 NAOKFM=F Big=F
 Integral buffers will be    131072 words long.
 Raffenetti 1 integral format.
 Two-electron integral symmetry is turned on.
 Leave Link  301 at Sun Dec 10 06:44:21 2023, MaxMem=   536870912 cpu:               0.2 elap:               0.1
 (Enter /usr/site/hpc/x86_64/glibc-2.17/broadwell/gaussian/g16_a.03/pgi-16.5/g16/l302.exe)
 NPDir=0 NMtPBC=     1 NCelOv=     1 NCel=       1 NClECP=     1 NCelD=      1
         NCelK=      1 NCelE2=     1 NClLst=     1 CellRange=     0.0.
 One-electron integrals computed using PRISM.
 One-electron integral symmetry used in STVInt
   2 Symmetry operations used in ECPInt.
 ECPInt:  NShTT=      78 NPrTT=     318 LenC2=      79 LenP2D=     255.
 LDataN:  DoStor=T MaxTD1= 2 Len=   12
 NBasis=    24 RedAO= T EigKep=  3.84D-02  NBF=    20     4
 NBsUse=    24 1.00D-06 EigRej= -1.00D+00 NBFU=    20     4
 Leave Link  302 at Sun Dec 10 06:44:21 2023, MaxMem=   536870912 cpu:               0.3 elap:               0.1
 (Enter /usr/site/hpc/x86_64/glibc-2.17/broadwell/gaussian/g16_a.03/pgi-16.5/g16/l303.exe)
 DipDrv:  MaxL=1.
 Leave Link  303 at Sun Dec 10 06:44:21 2023, MaxMem=   536870912 cpu:               0.1 elap:               0.0
 (Enter /usr/site/hpc/x86_64/glibc-2.17/broadwell/gaussian/g16_a.03/pgi-16.5/g16/l401.exe)
 ExpMin= 1.78D-01 ExpMax= 1.92D+01 ExpMxC= 1.92D+01 IAcc=3 IRadAn=         5 AccDes= 0.00D+00
 Harris functional with IExCor=  205 and IRadAn=       5 diagonalized for initial guess.
 HarFok:  IExCor=  205 AccDes= 0.00D+00 IRadAn=         5 IDoV= 1 UseB2=F ITyADJ=14
 ICtDFT=  3500011 ScaDFX=  1.000000  1.000000  1.000000  1.000000
 FoFCou: FMM=F IPFlag=           0 FMFlag=      100000 FMFlg1=           0
         NFxFlg=           0 DoJE=T BraDBF=F KetDBF=T FulRan=T
         wScrn=  0.000000 ICntrl=       500 IOpCl=  0 I1Cent=   200000004 NGrid=           0
         NMat0=    1 NMatS0=      1 NMatT0=    0 NMatD0=    1 NMtDS0=    0 NMtDT0=    0
 Petite list used in FoFCou.
 Harris En= -34.4763833514446    
 JPrj=0 DoOrth=F DoCkMO=F.
 Initial guess orbital symmetries:
       Occupied  (A') (A') (A') (A') (A') (A') (A") (A")
       Virtual   (A') (A') (A') (A') (A") (A") (A') (A') (A') (A')
                 (A') (A') (A') (A') (A') (A')
 The electronic state of the initial guess is 1-A'.
 Leave Link  401 at Sun Dec 10 06:44:21 2023, MaxMem=   536870912 cpu:               0.4 elap:               0.1
 (Enter /usr/site/hpc/x86_64/glibc-2.17/broadwell/gaussian/g16_a.03/pgi-16.5/g16/l502.exe)
 Keep R1 ints in memory in symmetry-blocked form, NReq=851993.
 FoFCou: FMM=F IPFlag=           0 FMFlag=           0 FMFlg1=           0
         NFxFlg=           0 DoJE=F BraDBF=F KetDBF=F FulRan=T
         wScrn=  0.000000 ICntrl=       600 IOpCl=  0 I1Cent=           0 NGrid=           0
         NMat0=    1 NMatS0=    300 NMatT0=    0 NMatD0=    1 NMtDS0=    0 NMtDT0=    0
 Petite list used in FoFCou.
 Closed shell SCF:
 Using DIIS extrapolation, IDIIS=  1040.
 NGot=   536870912 LenX=   536840576 LenY=   536839559
 Requested convergence on RMS density matrix=1.00D-08 within 128 cycles.
 Requested convergence on MAX density matrix=1.00D-06.
 Requested convergence on             energy=1.00D-06.
 No special actions if energy rises.

 Cycle   1  Pass 1  IDiag  1:
 E= -33.5605918337740    
 DIIS: error= 6.76D-02 at cycle   1 NSaved=   1.
 NSaved= 1 IEnMin= 1 EnMin= -33.5605918337740     IErMin= 1 ErrMin= 6.76D-02
 ErrMax= 6.76D-02  0.00D+00 EMaxC= 1.00D-01 BMatC= 1.01D-01 BMatP= 1.01D-01
 IDIUse=3 WtCom= 3.24D-01 WtEn= 6.76D-01
 Coeff-Com:  0.100D+01
 Coeff-En:   0.100D+01
 Coeff:      0.100D+01
 Gap=     0.603 Goal=   None    Shift=    0.000
 GapD=    0.603 DampG=2.000 DampE=0.500 DampFc=1.0000 IDamp=-1.
 RMSDP=1.47D-02 MaxDP=1.17D-01              OVMax= 9.79D-02

 Cycle   2  Pass 1  IDiag  1:
 E= -33.6227151181268     Delta-E=       -0.062123284353 Rises=F Damp=F
 DIIS: error= 3.71D-02 at cycle   2 NSaved=   2.
 NSaved= 2 IEnMin= 2 EnMin= -33.6227151181268     IErMin= 2 ErrMin= 3.71D-02
 ErrMax= 3.71D-02  0.00D+00 EMaxC= 1.00D-01 BMatC= 3.78D-02 BMatP= 1.01D-01
 IDIUse=3 WtCom= 6.29D-01 WtEn= 3.71D-01
 Coeff-Com:  0.377D+00 0.623D+00
 Coeff-En:   0.110D+00 0.890D+00
 Coeff:      0.278D+00 0.722D+00
 Gap=     0.691 Goal=   None    Shift=    0.000
 RMSDP=6.35D-03 MaxDP=5.38D-02 DE=-6.21D-02 OVMax= 3.55D-02

 Cycle   3  Pass 1  IDiag  1:
 E= -33.6529368803795     Delta-E=       -0.030221762253 Rises=F Damp=F
 DIIS: error= 6.98D-03 at cycle   3 NSaved=   3.
 NSaved= 3 IEnMin= 3 EnMin= -33.6529368803795     IErMin= 3 ErrMin= 6.98D-03
 ErrMax= 6.98D-03  0.00D+00 EMaxC= 1.00D-01 BMatC= 8.72D-04 BMatP= 3.78D-02
 IDIUse=3 WtCom= 9.30D-01 WtEn= 6.98D-02
 Coeff-Com: -0.113D+00-0.174D-01 0.113D+01
 Coeff-En:   0.000D+00 0.000D+00 0.100D+01
 Coeff:     -0.105D+00-0.161D-01 0.112D+01
 Gap=     0.683 Goal=   None    Shift=    0.000
 RMSDP=1.04D-03 MaxDP=9.11D-03 DE=-3.02D-02 OVMax= 7.90D-03

 Cycle   4  Pass 1  IDiag  1:
 E= -33.6538033290324     Delta-E=       -0.000866448653 Rises=F Damp=F
 DIIS: error= 7.31D-04 at cycle   4 NSaved=   4.
 NSaved= 4 IEnMin= 4 EnMin= -33.6538033290324     IErMin= 4 ErrMin= 7.31D-04
 ErrMax= 7.31D-04  0.00D+00 EMaxC= 1.00D-01 BMatC= 5.56D-06 BMatP= 8.72D-04
 IDIUse=3 WtCom= 9.93D-01 WtEn= 7.31D-03
 Coeff-Com:  0.439D-01-0.169D-01-0.532D+00 0.151D+01
 Coeff-En:   0.000D+00 0.000D+00 0.000D+00 0.100D+01
 Coeff:      0.436D-01-0.168D-01-0.528D+00 0.150D+01
 Gap=     0.685 Goal=   None    Shift=    0.000
 RMSDP=2.31D-04 MaxDP=1.98D-03 DE=-8.66D-04 OVMax= 9.35D-04

 Cycle   5  Pass 1  IDiag  1:
 E= -33.6538158602316     Delta-E=       -0.000012531199 Rises=F Damp=F
 DIIS: error= 4.79D-05 at cycle   5 NSaved=   5.
 NSaved= 5 IEnMin= 5 EnMin= -33.6538158602316     IErMin= 5 ErrMin= 4.79D-05
 ErrMax= 4.79D-05  0.00D+00 EMaxC= 1.00D-01 BMatC= 3.47D-08 BMatP= 5.56D-06
 IDIUse=1 WtCom= 1.00D+00 WtEn= 0.00D+00
 Coeff-Com: -0.699D-02 0.304D-02 0.861D-01-0.289D+00 0.121D+01
 Coeff:     -0.699D-02 0.304D-02 0.861D-01-0.289D+00 0.121D+01
 Gap=     0.685 Goal=   None    Shift=    0.000
 RMSDP=1.50D-05 MaxDP=1.45D-04 DE=-1.25D-05 OVMax= 9.72D-05

 Cycle   6  Pass 1  IDiag  1:
 E= -33.6538159453159     Delta-E=       -0.000000085084 Rises=F Damp=F
 DIIS: error= 1.03D-05 at cycle   6 NSaved=   6.
 NSaved= 6 IEnMin= 6 EnMin= -33.6538159453159     IErMin= 6 ErrMin= 1.03D-05
 ErrMax= 1.03D-05  0.00D+00 EMaxC= 1.00D-01 BMatC= 1.99D-09 BMatP= 3.47D-08
 IDIUse=1 WtCom= 1.00D+00 WtEn= 0.00D+00
 Coeff-Com:  0.983D-03-0.328D-03-0.118D-01 0.453D-01-0.355D+00 0.132D+01
 Coeff:      0.983D-03-0.328D-03-0.118D-01 0.453D-01-0.355D+00 0.132D+01
 Gap=     0.685 Goal=   None    Shift=    0.000
 RMSDP=3.65D-06 MaxDP=3.11D-05 DE=-8.51D-08 OVMax= 3.37D-05

 Cycle   7  Pass 1  IDiag  1:
 E= -33.6538159505939     Delta-E=       -0.000000005278 Rises=F Damp=F
 DIIS: error= 2.39D-06 at cycle   7 NSaved=   7.
 NSaved= 7 IEnMin= 7 EnMin= -33.6538159505939     IErMin= 7 ErrMin= 2.39D-06
 ErrMax= 2.39D-06  0.00D+00 EMaxC= 1.00D-01 BMatC= 1.83D-10 BMatP= 1.99D-09
 IDIUse=1 WtCom= 1.00D+00 WtEn= 0.00D+00
 Coeff-Com:  0.589D-03-0.253D-03-0.721D-02 0.245D-01-0.112D+00 0.139D+00
 Coeff-Com:  0.955D+00
 Coeff:      0.589D-03-0.253D-03-0.721D-02 0.245D-01-0.112D+00 0.139D+00
 Coeff:      0.955D+00
 Gap=     0.685 Goal=   None    Shift=    0.000
 RMSDP=8.91D-07 MaxDP=9.51D-06 DE=-5.28D-09 OVMax= 8.53D-06

 Cycle   8  Pass 1  IDiag  1:
 E= -33.6538159509265     Delta-E=       -0.000000000333 Rises=F Damp=F
 DIIS: error= 8.91D-07 at cycle   8 NSaved=   8.
 NSaved= 8 IEnMin= 8 EnMin= -33.6538159509265     IErMin= 8 ErrMin= 8.91D-07
 ErrMax= 8.91D-07  0.00D+00 EMaxC= 1.00D-01 BMatC= 2.53D-11 BMatP= 1.83D-10
 IDIUse=1 WtCom= 1.00D+00 WtEn= 0.00D+00
 Coeff-Com: -0.129D-05-0.224D-04-0.384D-04-0.800D-03 0.305D-01-0.176D+00
 Coeff-Com:  0.162D+00 0.985D+00
 Coeff:     -0.129D-05-0.224D-04-0.384D-04-0.800D-03 0.305D-01-0.176D+00
 Coeff:      0.162D+00 0.985D+00
 Gap=     0.685 Goal=   None    Shift=    0.000
 RMSDP=4.08D-07 MaxDP=2.48D-06 DE=-3.33D-10 OVMax= 3.34D-06

 Cycle   9  Pass 1  IDiag  1:
 E= -33.6538159509722     Delta-E=       -0.000000000046 Rises=F Damp=F
 DIIS: error= 1.38D-07 at cycle   9 NSaved=   9.
 NSaved= 9 IEnMin= 9 EnMin= -33.6538159509722     IErMin= 9 ErrMin= 1.38D-07
 ErrMax= 1.38D-07  0.00D+00 EMaxC= 1.00D-01 BMatC= 6.18D-13 BMatP= 2.53D-11
 IDIUse=1 WtCom= 1.00D+00 WtEn= 0.00D+00
 Coeff-Com:  0.400D-05 0.607D-05-0.221D-04 0.393D-03-0.118D-01 0.709D-01
 Coeff-Com: -0.921D-01-0.400D+00 0.143D+01
 Coeff:      0.400D-05 0.607D-05-0.221D-04 0.393D-03-0.118D-01 0.709D-01
 Coeff:     -0.921D-01-0.400D+00 0.143D+01
 Gap=     0.685 Goal=   None    Shift=    0.000
 RMSDP=1.16D-07 MaxDP=5.44D-07 DE=-4.57D-11 OVMax= 7.69D-07

 Cycle  10  Pass 1  IDiag  1:
 E= -33.6538159509738     Delta-E=       -0.000000000002 Rises=F Damp=F
 DIIS: error= 8.54D-09 at cycle  10 NSaved=  10.
 NSaved=10 IEnMin=10 EnMin= -33.6538159509738     IErMin=10 ErrMin= 8.54D-09
 ErrMax= 8.54D-09  0.00D+00 EMaxC= 1.00D-01 BMatC= 2.91D-15 BMatP= 6.18D-13
 IDIUse=1 WtCom= 1.00D+00 WtEn= 0.00D+00
 Coeff-Com:  0.810D-07-0.168D-05-0.731D-05-0.487D-04 0.254D-02-0.161D-01
 Coeff-Com:  0.216D-01 0.904D-01-0.380D+00 0.128D+01
 Coeff:      0.810D-07-0.168D-05-0.731D-05-0.487D-04 0.254D-02-0.161D-01
 Coeff:      0.216D-01 0.904D-01-0.380D+00 0.128D+01
 Gap=     0.685 Goal=   None    Shift=    0.000
 RMSDP=1.19D-08 MaxDP=5.67D-08 DE=-1.56D-12 OVMax= 7.00D-08

 Cycle  11  Pass 1  IDiag  1:
 E= -33.6538159509738     Delta-E=       -0.000000000000 Rises=F Damp=F
 DIIS: error= 4.18D-10 at cycle  11 NSaved=  11.
 NSaved=11 IEnMin=11 EnMin= -33.6538159509738     IErMin=11 ErrMin= 4.18D-10
 ErrMax= 4.18D-10  0.00D+00 EMaxC= 1.00D-01 BMatC= 5.07D-18 BMatP= 2.91D-15
 IDIUse=1 WtCom= 1.00D+00 WtEn= 0.00D+00
 Coeff-Com: -0.715D-07 0.279D-06 0.183D-05 0.557D-05-0.400D-03 0.258D-02
 Coeff-Com: -0.351D-02-0.145D-01 0.624D-01-0.234D+00 0.119D+01
 Coeff:     -0.715D-07 0.279D-06 0.183D-05 0.557D-05-0.400D-03 0.258D-02
 Coeff:     -0.351D-02-0.145D-01 0.624D-01-0.234D+00 0.119D+01
 Gap=     0.685 Goal=   None    Shift=    0.000
 RMSDP=2.97D-10 MaxDP=1.70D-09 DE=-4.26D-14 OVMax= 1.52D-09

 SCF Done:  E(RHF) =  -33.6538159510     A.U. after   11 cycles
            NFock= 11  Conv=0.30D-09     -V/T= 2.2569
 KE= 2.677596250406D+01 PE=-1.217203006092D+02 EE= 4.123694716118D+01
 Leave Link  502 at Sun Dec 10 06:44:21 2023, MaxMem=   536870912 cpu:               0.3 elap:               0.1
 (Enter /usr/site/hpc/x86_64/glibc-2.17/broadwell/gaussian/g16_a.03/pgi-16.5/g16/l801.exe)
 Windowed orbitals will be sorted by symmetry type.
 Range of M.O.s used for correlation:     1    24
 NBasis=    24 NAE=     8 NBE=     8 NFC=     0 NFV=     0
 NROrb=     24 NOA=     8 NOB=     8 NVA=    16 NVB=    16
 Leave Link  801 at Sun Dec 10 06:44:21 2023, MaxMem=   536870912 cpu:               0.1 elap:               0.0
 (Enter /usr/site/hpc/x86_64/glibc-2.17/broadwell/gaussian/g16_a.03/pgi-16.5/g16/l804.exe)
 Closed-shell transformation, MDV=   536870912 ITran=4 ISComp=2.
 Unit  1 TFree=       1025975 TCopy=        210600.
 Semi-Direct transformation.
 ModeAB=           4 MOrb=             8 LenV=     536742318
 LASXX=        22470 LTotXX=       22470 LenRXX=       48678
 LTotAB=       26208 MaxLAS=       56448 LenRXY=           0
 NonZer=       71148 LenScr=      524288 LnRSAI=       56448
 LnScr1=      524288 LExtra=           0 Total=      1153702
 MaxDsk=          -1 SrtSym=           T ITran=            4
 DoSDTr:  NPSUse=  4
 JobTyp=0 Pass  1:  I=   1 to   8.
 (rs|ai) integrals will be sorted in core.
 Complete sort for first half transformation.
 First half transformation complete.
 Complete sort for second half transformation.
 Second half transformation complete.
 Spin components of T(2) and E(2):
     alpha-alpha T2 =       0.9063443894D-02 E2=     -0.2589509535D-01
     alpha-beta  T2 =       0.5984880350D-01 E2=     -0.1764982594D+00
     beta-beta   T2 =       0.9063443894D-02 E2=     -0.2589509535D-01
 ANorm=    0.1038256082D+01
 E2 =    -0.2282884501D+00 EUMP2 =    -0.33882104401077D+02
 Leave Link  804 at Sun Dec 10 06:44:21 2023, MaxMem=   536870912 cpu:               0.2 elap:               0.1
 (Enter /usr/site/hpc/x86_64/glibc-2.17/broadwell/gaussian/g16_a.03/pgi-16.5/g16/l913.exe)
 CIDS:  MDV=   536870912.
 IFCWin=0 IBDFC=1 NFBD=     0     0 NFCmp=     0     0 NFFFC=     0     0
 Using DD3R+UMP44R for 1st iteration.
 Using DD4RQ for 2nd and later iterations.
 Keep R2 and R3 ints in memory in symmetry-blocked form, NReq=864601.
 FoFCou: FMM=F IPFlag=           0 FMFlag=           0 FMFlg1=           0
         NFxFlg=           0 DoJE=F BraDBF=F KetDBF=F FulRan=T
         wScrn=  0.000000 ICntrl=       600 IOpCl=  0 I1Cent=           0 NGrid=           0
         NMat0=    1 NMatS0=    300 NMatT0=    0 NMatD0=    1 NMtDS0=    0 NMtDT0=    0
 Petite list used in FoFCou.
 CIDS: In Core Option IDoMem=           1.
 CCSD(T)
 =======
 Iterations=  50 Convergence= 0.100D-06
 Produce multiple copies of IABC intergrals
 Iteration Nr.   1
 **********************
 DD1Dir will call FoFMem   1 times, MxPair=        72
 NAB=    36 NAA=     0 NBB=     0.
 MP4(R+Q)= -0.74935701D-03
 Maximum subspace dimension=  5
 A-vector RMS=  5.7484790D-03 Max=  1.3206330D-02 conv= 1.00D-05.
 RLE energy=       -0.2343256875
 E3=       -0.54073413D-02        EUMP3=      -0.33887511742D+02
 E4(DQ)=   -0.59040587D-02        UMP4(DQ)=   -0.33893415801D+02
 E4(SDQ)=  -0.79281169D-02        UMP4(SDQ)=  -0.33895439859D+02
 VARIATIONAL ENERGIES WITH THE FIRST-ORDER WAVEFUNCTION:
 DE(Corr)= -0.23417048     E(Corr)=     -33.887986433    
 NORM(A)=   0.10416747D+01
 Iteration Nr.   2
 **********************
 DD1Dir will call FoFMem   1 times, MxPair=        72
 NAB=    36 NAA=     0 NBB=     0.
 A-vector RMS=  9.8115029D-04 Max=  2.7306237D-03 conv= 1.00D-05.
 RLE energy=       -0.2420801144
 DE(Corr)= -0.24014128     E(CORR)=     -33.893957236     Delta=-5.97D-03
 NORM(A)=   0.10454529D+01
 Iteration Nr.   3
 **********************
 DD1Dir will call FoFMem   1 times, MxPair=        72
 NAB=    36 NAA=     0 NBB=     0.
 A-vector RMS=  3.7973329D-04 Max=  1.1182904D-03 conv= 1.00D-05.
 RLE energy=       -0.2426295487
 DE(Corr)= -0.24218340     E(CORR)=     -33.895999352     Delta=-2.04D-03
 NORM(A)=   0.10460106D+01
 Iteration Nr.   4
 **********************
 DD1Dir will call FoFMem   1 times, MxPair=        72
 NAB=    36 NAA=     0 NBB=     0.
 A-vector RMS=  9.1757390D-05 Max=  2.4873608D-04 conv= 1.00D-05.
 RLE energy=       -0.2426760241
 DE(Corr)= -0.24264035     E(CORR)=     -33.896456297     Delta=-4.57D-04
 NORM(A)=   0.10460836D+01
 Iteration Nr.   5
 **********************
 DD1Dir will call FoFMem   1 times, MxPair=        72
 NAB=    36 NAA=     0 NBB=     0.
 A-vector RMS=  4.0910199D-05 Max=  1.4674520D-04 conv= 1.00D-05.
 RLE energy=       -0.2426743133
 DE(Corr)= -0.24267231     E(CORR)=     -33.896488265     Delta=-3.20D-05
 NORM(A)=   0.10460939D+01
 Iteration Nr.   6
 **********************
 DD1Dir will call FoFMem   1 times, MxPair=        72
 NAB=    36 NAA=     0 NBB=     0.
 A-vector RMS=  1.1496707D-05 Max=  4.1166930D-05 conv= 1.00D-05.
 RLE energy=       -0.2426733644
 DE(Corr)= -0.24267446     E(CORR)=     -33.896490407     Delta=-2.14D-06
 NORM(A)=   0.10460972D+01
 Iteration Nr.   7
 **********************
 DD1Dir will call FoFMem   1 times, MxPair=        72
 NAB=    36 NAA=     0 NBB=     0.
 A-vector RMS=  3.4667672D-06 Max=  1.1619930D-05 conv= 1.00D-05.
 RLE energy=       -0.2426743176
 DE(Corr)= -0.24267386     E(CORR)=     -33.896489814     Delta= 5.93D-07
 NORM(A)=   0.10460986D+01
 Iteration Nr.   8
 **********************
 DD1Dir will call FoFMem   1 times, MxPair=        72
 NAB=    36 NAA=     0 NBB=     0.
 A-vector RMS=  7.9733261D-07 Max=  2.5375894D-06 conv= 1.00D-05.
 RLE energy=       -0.2426738122
 DE(Corr)= -0.24267388     E(CORR)=     -33.896489830     Delta=-1.61D-08
 NORM(A)=   0.10460986D+01
 CI/CC converged in    8 iterations to DelEn=-1.61D-08 Conv= 1.00D-07 ErrA1= 7.97D-07 Conv= 1.00D-05
 Wavefunction amplitudes converged. E(Corr)=     -33.896489830    
 Largest amplitude= 5.86D-02
 IPart=  2 IA=    2   12.50% done.
 IPart=  3 IA=    3   24.17% done.
 IPart=  4 IA=    4   35.00% done.
 IPart=  4 IA=    5   45.00% done.
 IPart=  3 IA=    6   54.17% done.
 IPart=  2 IA=    7   62.50% done.
 IPart=  1 IA=    8   70.00% done.
 IPart=  4 IA=   10   82.50% done.
 IPart=  3 IA=   12   91.67% done.
 Time for triples=        0.25 seconds.
 T4(CCSD)= -0.30827414D-02
 T5(CCSD)=  0.52548249D-03
 CCSD(T)= -0.33899047089D+02
 Discarding MO integrals.
 Leave Link  913 at Sun Dec 10 06:44:21 2023, MaxMem=   536870912 cpu:               0.8 elap:               0.2
 (Enter /usr/site/hpc/x86_64/glibc-2.17/broadwell/gaussian/g16_a.03/pgi-16.5/g16/l601.exe)
 Copying SCF densities to generalized density rwf, IOpCl= 0 IROHF=0.

 **********************************************************************

            Population analysis using the SCF density.

 **********************************************************************

 Orbital symmetries:
       Occupied  (A') (A') (A') (A') (A') (A') (A") (A")
       Virtual   (A') (A') (A') (A') (A") (A") (A') (A') (A') (A')
                 (A') (A') (A') (A') (A') (A')
 The electronic state is 1-A'.
 Alpha  occ. eigenvalues --   -1.36374  -1.34476  -0.72015  -0.70104  -0.56227
 Alpha  occ. eigenvalues --   -0.54272  -0.50976  -0.49079
 Alpha virt. eigenvalues --    0.19444   0.21499   0.29757   0.31763   0.79581
 Alpha virt. eigenvalues --    0.81427   0.82354   0.84434   0.85600   0.87549
 Alpha virt. eigenvalues --    1.16614   1.18538   1.21052   1.23157   2.56571
 Alpha virt. eigenvalues --    2.58597
          Condensed to atoms (all electrons):
               1          2          3          4          5          6
     1  O    6.220420   0.265974   0.262635  -0.000004   0.000000   0.000000
     2  H    0.265974   0.375799  -0.023208   0.000061  -0.000001  -0.000001
     3  H    0.262635  -0.023208   0.392999  -0.000000   0.000000   0.000000
     4  O   -0.000004   0.000061  -0.000000   6.218634   0.265316   0.264187
     5  H    0.000000  -0.000001   0.000000   0.265316   0.382649  -0.023359
     6  H    0.000000  -0.000001   0.000000   0.264187  -0.023359   0.386299
 Mulliken charges:
               1
     1  O   -0.749025
     2  H    0.381376
     3  H    0.367574
     4  O   -0.748192
     5  H    0.375394
     6  H    0.372874
 Sum of Mulliken charges =  -0.00000
 Mulliken charges with hydrogens summed into heavy atoms:
               1
     1  O   -0.000075
     4  O    0.000075
 Electronic spatial extent (au):  <R**2>=            429.8111
 Charge=              0.0000 electrons
 Dipole moment (field-independent basis, Debye):
    X=             -2.0550    Y=             -4.2492    Z=              0.0000  Tot=              4.7200
 Quadrupole moment (field-independent basis, Debye-Ang):
   XX=             -9.4276   YY=             -5.5902   ZZ=            -14.9927
   XY=             -6.9963   XZ=              0.0000   YZ=             -0.0000
 Traceless Quadrupole moment (field-independent basis, Debye-Ang):
   XX=              0.5759   YY=              4.4133   ZZ=             -4.9892
   XY=             -6.9963   XZ=              0.0000   YZ=             -0.0000
 Octapole moment (field-independent basis, Debye-Ang**2):
  XXX=             -1.6889  YYY=            -78.3768  ZZZ=              0.0000  XYY=            -20.0494
  XXY=             -4.9865  XXZ=              0.0000  XZZ=             -0.3855  YZZ=             -0.8130
  YYZ=              0.0000  XYZ=              0.0000
 Hexadecapole moment (field-independent basis, Debye-Ang**3):
 XXXX=            -11.9884 YYYY=           -403.1960 ZZZZ=            -12.2290 XXXY=             -2.7803
 XXXZ=              0.0000 YYYX=            -62.8658 YYYZ=              0.0000 ZZZX=             -0.0000
 ZZZY=              0.0000 XXYY=            -60.0822 XXZZ=             -4.5621 YYZZ=           -106.5342
 XXYZ=              0.0000 YYXZ=              0.0000 ZZXY=              0.8124
 N-N= 2.005357499297D+01 E-N=-1.217203006120D+02  KE= 2.677596250406D+01
 Symmetry A'   KE= 1.789738147674D+01
 Symmetry A"   KE= 8.878581027321D+00
 Leave Link  601 at Sun Dec 10 06:44:21 2023, MaxMem=   536870912 cpu:               0.1 elap:               0.0
 (Enter /usr/site/hpc/x86_64/glibc-2.17/broadwell/gaussian/g16_a.03/pgi-16.5/g16/l9999.exe)
 1\1\GINC-N033\SP\RCCSD(T)-FC\CEP-31G\H4O2\ROOT\10-Dec-2023\0\\#p CCSD(
 T)/CEP-31G\\H2O_H2O_3965\\0,1\O,0,0.,-0.009833,0.\H,0,-0.799571,-0.580
 965,0.\H,0,0.799571,-0.580965,0.\O,0,-4.233127,-3.023336,0.\H,0,-5.152
 224,-2.67582,0.\H,0,-4.263788,-4.005459,0.\\Version=ES64L-G16RevA.03\S
 tate=1-A'\HF=-33.653816\MP2=-33.8821044\MP3=-33.8875117\MP4D=-33.89266
 64\MP4DQ=-33.8934158\MP4SDQ=-33.8954399\CCSD=-33.8964898\CCSD(T)=-33.8
 990471\RMSD=2.974e-10\PG=CS [SG(H4O2)]\\@


 DEPRESSION IS WAITING FOR YOUR SHIP TO COME IN,
 AND FINDING OUT IT'S THE TITANIC.
 Job cpu time:       0 days  0 hours  0 minutes  3.3 seconds.
 Elapsed time:       0 days  0 hours  0 minutes  1.0 seconds.
 File lengths (MBytes):  RWF=     72 Int=      0 D2E=      0 Chk=      8 Scr=      8
 Normal termination of Gaussian 16 at Sun Dec 10 06:44:22 2023.
