 Entering Gaussian System, Link 0=g16
 Input=H2O_H2O_2718.com
 Output=H2O_H2O_2718.log
 Initial command:
 /usr/site/hpc/x86_64/glibc-2.17/broadwell/gaussian/g16_a.03/pgi-16.5/g16/l1.exe "/gpfs/gpfs1/scratch/c7441090/OH Coord/Gau-1151496.inp" -scrdir="/gpfs/gpfs1/scratch/c7441090/OH Coord/"
 Entering Link 1 = /usr/site/hpc/x86_64/glibc-2.17/broadwell/gaussian/g16_a.03/pgi-16.5/g16/l1.exe PID=   1151497.
  
 Copyright (c) 1988,1990,1992,1993,1995,1998,2003,2009,2016,
            Gaussian, Inc.  All Rights Reserved.
  
 This is part of the Gaussian(R) 16 program.  It is based on
 the Gaussian(R) 09 system (copyright 2009, Gaussian, Inc.),
 the Gaussian(R) 03 system (copyright 2003, Gaussian, Inc.),
 the Gaussian(R) 98 system (copyright 1998, Gaussian, Inc.),
 the Gaussian(R) 94 system (copyright 1995, Gaussian, Inc.),
 the Gaussian 92(TM) system (copyright 1992, Gaussian, Inc.),
 the Gaussian 90(TM) system (copyright 1990, Gaussian, Inc.),
 the Gaussian 88(TM) system (copyright 1988, Gaussian, Inc.),
 the Gaussian 86(TM) system (copyright 1986, Carnegie Mellon
 University), and the Gaussian 82(TM) system (copyright 1983,
 Carnegie Mellon University). Gaussian is a federally registered
 trademark of Gaussian, Inc.
  
 This software contains proprietary and confidential information,
 including trade secrets, belonging to Gaussian, Inc.
  
 This software is provided under written license and may be
 used, copied, transmitted, or stored only in accord with that
 written license.
  
 The following legend is applicable only to US Government
 contracts under FAR:
  
                    RESTRICTED RIGHTS LEGEND
  
 Use, reproduction and disclosure by the US Government is
 subject to restrictions as set forth in subparagraphs (a)
 and (c) of the Commercial Computer Software - Restricted
 Rights clause in FAR 52.227-19.
  
 Gaussian, Inc.
 340 Quinnipiac St., Bldg. 40, Wallingford CT 06492
  
  
 ---------------------------------------------------------------
 Warning -- This program may not be used in any manner that
 competes with the business of Gaussian, Inc. or will provide
 assistance to any competitor of Gaussian, Inc.  The licensee
 of this program is prohibited from giving any competitor of
 Gaussian, Inc. access to this program.  By using this program,
 the user acknowledges that Gaussian, Inc. is engaged in the
 business of creating and licensing software in the field of
 computational chemistry and represents and warrants to the
 licensee that it is not a competitor of Gaussian, Inc. and that
 it will not use this program in any manner prohibited above.
 ---------------------------------------------------------------
  

 Cite this work as:
 Gaussian 16, Revision A.03,
 M. J. Frisch, G. W. Trucks, H. B. Schlegel, G. E. Scuseria, 
 M. A. Robb, J. R. Cheeseman, G. Scalmani, V. Barone, 
 G. A. Petersson, H. Nakatsuji, X. Li, M. Caricato, A. V. Marenich, 
 J. Bloino, B. G. Janesko, R. Gomperts, B. Mennucci, H. P. Hratchian, 
 J. V. Ortiz, A. F. Izmaylov, J. L. Sonnenberg, D. Williams-Young, 
 F. Ding, F. Lipparini, F. Egidi, J. Goings, B. Peng, A. Petrone, 
 T. Henderson, D. Ranasinghe, V. G. Zakrzewski, J. Gao, N. Rega, 
 G. Zheng, W. Liang, M. Hada, M. Ehara, K. Toyota, R. Fukuda, 
 J. Hasegawa, M. Ishida, T. Nakajima, Y. Honda, O. Kitao, H. Nakai, 
 T. Vreven, K. Throssell, J. A. Montgomery, Jr., J. E. Peralta, 
 F. Ogliaro, M. J. Bearpark, J. J. Heyd, E. N. Brothers, K. N. Kudin, 
 V. N. Staroverov, T. A. Keith, R. Kobayashi, J. Normand, 
 K. Raghavachari, A. P. Rendell, J. C. Burant, S. S. Iyengar, 
 J. Tomasi, M. Cossi, J. M. Millam, M. Klene, C. Adamo, R. Cammi, 
 J. W. Ochterski, R. L. Martin, K. Morokuma, O. Farkas, 
 J. B. Foresman, and D. J. Fox, Gaussian, Inc., Wallingford CT, 2016.
 
 ******************************************
 Gaussian 16:  ES64L-G16RevA.03 25-Dec-2016
                10-Dec-2023 
 ******************************************
 %NProcShared=4
 Will use up to    4 processors via shared memory.
 %Mem=4GB
 %Chk=H2O_H2O_2718.chk
 ------------------
 #p CCSD(T)/CEP-31G
 ------------------
 1/38=1,172=1/1;
 2/12=2,17=6,18=5,40=1/2;
 3/5=9,6=1,11=9,25=1,30=1/1,2,3;
 4//1;
 5/5=2,38=5/2;
 8/6=4,9=120000,10=1/1,4;
 9/5=7,14=2/13;
 6/7=2,8=2,9=2,10=2/1;
 99/5=1,9=1/99;
 Leave Link    1 at Sun Dec 10 06:21:54 2023, MaxMem=   536870912 cpu:               0.2 elap:               0.1
 (Enter /usr/site/hpc/x86_64/glibc-2.17/broadwell/gaussian/g16_a.03/pgi-16.5/g16/l101.exe)
 ------------
 H2O_H2O_2718
 ------------
 Symbolic Z-matrix:
 Charge =  0 Multiplicity = 1
 O                     0.       -0.00983   0. 
 H                    -0.79957  -0.58097   0. 
 H                     0.79957  -0.58097   0. 
 O                    -3.42259  -2.44202   0. 
 H                    -4.25623  -1.92188   0. 
 H                    -3.64427  -3.39929   0. 
 
 ITRead=  0  0  0  0  0  0
 MicOpt= -1 -1 -1 -1 -1 -1
 NAtoms=      6 NQM=        6 NQMF=       0 NMMI=      0 NMMIF=      0
                NMic=       0 NMicF=      0.
                    Isotopes and Nuclear Properties:
 (Nuclear quadrupole moments (NQMom) in fm**2, nuclear magnetic moments (NMagM)
  in nuclear magnetons)

  Atom         1           2           3           4           5           6
 IAtWgt=          16           1           1          16           1           1
 AtmWgt=  15.9949146   1.0078250   1.0078250  15.9949146   1.0078250   1.0078250
 NucSpn=           0           1           1           0           1           1
 AtZEff=  -0.0000000  -0.0000000  -0.0000000  -0.0000000  -0.0000000  -0.0000000
 NQMom=    0.0000000   0.0000000   0.0000000   0.0000000   0.0000000   0.0000000
 NMagM=    0.0000000   2.7928460   2.7928460   0.0000000   2.7928460   2.7928460
 AtZNuc=   8.0000000   1.0000000   1.0000000   8.0000000   1.0000000   1.0000000
 Leave Link  101 at Sun Dec 10 06:21:55 2023, MaxMem=   536870912 cpu:               0.3 elap:               0.1
 (Enter /usr/site/hpc/x86_64/glibc-2.17/broadwell/gaussian/g16_a.03/pgi-16.5/g16/l202.exe)
                          Input orientation:                          
 ---------------------------------------------------------------------
 Center     Atomic      Atomic             Coordinates (Angstroms)
 Number     Number       Type             X           Y           Z
 ---------------------------------------------------------------------
      1          8           0        0.000000   -0.009833    0.000000
      2          1           0       -0.799571   -0.580965    0.000000
      3          1           0        0.799571   -0.580965    0.000000
      4          8           0       -3.422591   -2.442022    0.000000
      5          1           0       -4.256231   -1.921878    0.000000
      6          1           0       -3.644265   -3.399293    0.000000
 ---------------------------------------------------------------------
                    Distance matrix (angstroms):
                    1          2          3          4          5
     1  O    0.000000
     2  H    0.982601   0.000000
     3  H    0.982601   1.599142   0.000000
     4  O    4.198770   3.216173   4.614129   0.000000
     5  H    4.665985   3.707633   5.230600   0.982601   0.000000
     6  H    4.976857   4.004405   5.262191   0.982602   1.599143
                    6
     6  H    0.000000
 Stoichiometry    H4O2
 Framework group  CS[SG(H4O2)]
 Deg. of freedom     9
 Full point group                 CS      NOp   2
 Largest Abelian subgroup         CS      NOp   2
 Largest concise Abelian subgroup C1      NOp   1
                         Standard orientation:                         
 ---------------------------------------------------------------------
 Center     Atomic      Atomic             Coordinates (Angstroms)
 Number     Number       Type             X           Y           Z
 ---------------------------------------------------------------------
      1          8           0        0.033806    2.188141    0.000000
      2          1           0        0.031414    1.205542    0.000000
      3          1           0       -0.894908    2.509069   -0.000000
      4          8           0        0.033806   -2.010630    0.000000
      5          1           0        0.940693   -2.388864    0.000000
      6          1           0       -0.618098   -2.745836   -0.000000
 ---------------------------------------------------------------------
 Rotational constants (GHZ):         244.3877600           3.1120457           3.0729151
 Leave Link  202 at Sun Dec 10 06:21:55 2023, MaxMem=   536870912 cpu:               0.0 elap:               0.0
 (Enter /usr/site/hpc/x86_64/glibc-2.17/broadwell/gaussian/g16_a.03/pgi-16.5/g16/l301.exe)
 Standard basis: CEP-31G (6D, 10F)
 Ernie: Thresh=  0.10000D-02 Tol=  0.10000D-05 Strict=F.
 There are    20 symmetry adapted cartesian basis functions of A'  symmetry.
 There are     4 symmetry adapted cartesian basis functions of A"  symmetry.
 There are    20 symmetry adapted basis functions of A'  symmetry.
 There are     4 symmetry adapted basis functions of A"  symmetry.
    24 basis functions,    48 primitive gaussians,    24 cartesian basis functions
     8 alpha electrons        8 beta electrons
       nuclear repulsion energy        21.5944667786 Hartrees.
 IExCor=    0 DFT=F Ex=HF Corr=None ExCW=0 ScaHFX=  1.000000
 ScaDFX=  1.000000  1.000000  1.000000  1.000000 ScalE2=  1.000000  1.000000
 IRadAn=      5 IRanWt=     -1 IRanGd=            0 ICorTp=0 IEmpDi=  4
 NAtoms=    6 NActive=    6 NUniq=    6 SFac= 1.00D+00 NAtFMM=   60 NAOKFM=F Big=F
 Integral buffers will be    131072 words long.
 Raffenetti 1 integral format.
 Two-electron integral symmetry is turned on.
 Leave Link  301 at Sun Dec 10 06:21:55 2023, MaxMem=   536870912 cpu:               0.2 elap:               0.1
 (Enter /usr/site/hpc/x86_64/glibc-2.17/broadwell/gaussian/g16_a.03/pgi-16.5/g16/l302.exe)
 NPDir=0 NMtPBC=     1 NCelOv=     1 NCel=       1 NClECP=     1 NCelD=      1
         NCelK=      1 NCelE2=     1 NClLst=     1 CellRange=     0.0.
 One-electron integrals computed using PRISM.
 One-electron integral symmetry used in STVInt
   2 Symmetry operations used in ECPInt.
 ECPInt:  NShTT=      78 NPrTT=     318 LenC2=      79 LenP2D=     276.
 LDataN:  DoStor=T MaxTD1= 2 Len=   12
 NBasis=    24 RedAO= T EigKep=  3.68D-02  NBF=    20     4
 NBsUse=    24 1.00D-06 EigRej= -1.00D+00 NBFU=    20     4
 Leave Link  302 at Sun Dec 10 06:21:55 2023, MaxMem=   536870912 cpu:               0.3 elap:               0.1
 (Enter /usr/site/hpc/x86_64/glibc-2.17/broadwell/gaussian/g16_a.03/pgi-16.5/g16/l303.exe)
 DipDrv:  MaxL=1.
 Leave Link  303 at Sun Dec 10 06:21:55 2023, MaxMem=   536870912 cpu:               0.1 elap:               0.0
 (Enter /usr/site/hpc/x86_64/glibc-2.17/broadwell/gaussian/g16_a.03/pgi-16.5/g16/l401.exe)
 ExpMin= 1.78D-01 ExpMax= 1.92D+01 ExpMxC= 1.92D+01 IAcc=3 IRadAn=         5 AccDes= 0.00D+00
 Harris functional with IExCor=  205 and IRadAn=       5 diagonalized for initial guess.
 HarFok:  IExCor=  205 AccDes= 0.00D+00 IRadAn=         5 IDoV= 1 UseB2=F ITyADJ=14
 ICtDFT=  3500011 ScaDFX=  1.000000  1.000000  1.000000  1.000000
 FoFCou: FMM=F IPFlag=           0 FMFlag=      100000 FMFlg1=           0
         NFxFlg=           0 DoJE=T BraDBF=F KetDBF=T FulRan=T
         wScrn=  0.000000 ICntrl=       500 IOpCl=  0 I1Cent=   200000004 NGrid=           0
         NMat0=    1 NMatS0=      1 NMatT0=    0 NMatD0=    1 NMtDS0=    0 NMtDT0=    0
 Petite list used in FoFCou.
 Harris En= -34.4768059594644    
 JPrj=0 DoOrth=F DoCkMO=F.
 Initial guess orbital symmetries:
       Occupied  (A') (A') (A') (A') (A') (A') (A") (A")
       Virtual   (A') (A') (A') (A') (A") (A") (A') (A') (A') (A')
                 (A') (A') (A') (A') (A') (A')
 The electronic state of the initial guess is 1-A'.
 Leave Link  401 at Sun Dec 10 06:21:55 2023, MaxMem=   536870912 cpu:               0.4 elap:               0.1
 (Enter /usr/site/hpc/x86_64/glibc-2.17/broadwell/gaussian/g16_a.03/pgi-16.5/g16/l502.exe)
 Keep R1 ints in memory in symmetry-blocked form, NReq=852266.
 FoFCou: FMM=F IPFlag=           0 FMFlag=           0 FMFlg1=           0
         NFxFlg=           0 DoJE=F BraDBF=F KetDBF=F FulRan=T
         wScrn=  0.000000 ICntrl=       600 IOpCl=  0 I1Cent=           0 NGrid=           0
         NMat0=    1 NMatS0=    300 NMatT0=    0 NMatD0=    1 NMtDS0=    0 NMtDT0=    0
 Petite list used in FoFCou.
 Closed shell SCF:
 Using DIIS extrapolation, IDIIS=  1040.
 NGot=   536870912 LenX=   536840576 LenY=   536839559
 Requested convergence on RMS density matrix=1.00D-08 within 128 cycles.
 Requested convergence on MAX density matrix=1.00D-06.
 Requested convergence on             energy=1.00D-06.
 No special actions if energy rises.

 Cycle   1  Pass 1  IDiag  1:
 E= -33.5646693898996    
 DIIS: error= 6.66D-02 at cycle   1 NSaved=   1.
 NSaved= 1 IEnMin= 1 EnMin= -33.5646693898996     IErMin= 1 ErrMin= 6.66D-02
 ErrMax= 6.66D-02  0.00D+00 EMaxC= 1.00D-01 BMatC= 1.00D-01 BMatP= 1.00D-01
 IDIUse=3 WtCom= 3.34D-01 WtEn= 6.66D-01
 Coeff-Com:  0.100D+01
 Coeff-En:   0.100D+01
 Coeff:      0.100D+01
 Gap=     0.595 Goal=   None    Shift=    0.000
 GapD=    0.595 DampG=2.000 DampE=0.500 DampFc=1.0000 IDamp=-1.
 RMSDP=1.45D-02 MaxDP=1.17D-01              OVMax= 9.72D-02

 Cycle   2  Pass 1  IDiag  1:
 E= -33.6256880941374     Delta-E=       -0.061018704238 Rises=F Damp=F
 DIIS: error= 3.67D-02 at cycle   2 NSaved=   2.
 NSaved= 2 IEnMin= 2 EnMin= -33.6256880941374     IErMin= 2 ErrMin= 3.67D-02
 ErrMax= 3.67D-02  0.00D+00 EMaxC= 1.00D-01 BMatC= 3.71D-02 BMatP= 1.00D-01
 IDIUse=3 WtCom= 6.33D-01 WtEn= 3.67D-01
 Coeff-Com:  0.376D+00 0.624D+00
 Coeff-En:   0.110D+00 0.890D+00
 Coeff:      0.278D+00 0.722D+00
 Gap=     0.676 Goal=   None    Shift=    0.000
 RMSDP=6.29D-03 MaxDP=5.32D-02 DE=-6.10D-02 OVMax= 3.52D-02

 Cycle   3  Pass 1  IDiag  1:
 E= -33.6553616865503     Delta-E=       -0.029673592413 Rises=F Damp=F
 DIIS: error= 6.82D-03 at cycle   3 NSaved=   3.
 NSaved= 3 IEnMin= 3 EnMin= -33.6553616865503     IErMin= 3 ErrMin= 6.82D-03
 ErrMax= 6.82D-03  0.00D+00 EMaxC= 1.00D-01 BMatC= 8.41D-04 BMatP= 3.71D-02
 IDIUse=3 WtCom= 9.32D-01 WtEn= 6.82D-02
 Coeff-Com: -0.112D+00-0.180D-01 0.113D+01
 Coeff-En:   0.000D+00 0.000D+00 0.100D+01
 Coeff:     -0.105D+00-0.167D-01 0.112D+01
 Gap=     0.669 Goal=   None    Shift=    0.000
 RMSDP=1.01D-03 MaxDP=8.91D-03 DE=-2.97D-02 OVMax= 7.74D-03

 Cycle   4  Pass 1  IDiag  1:
 E= -33.6561921275539     Delta-E=       -0.000830441004 Rises=F Damp=F
 DIIS: error= 7.02D-04 at cycle   4 NSaved=   4.
 NSaved= 4 IEnMin= 4 EnMin= -33.6561921275539     IErMin= 4 ErrMin= 7.02D-04
 ErrMax= 7.02D-04  0.00D+00 EMaxC= 1.00D-01 BMatC= 5.23D-06 BMatP= 8.41D-04
 IDIUse=3 WtCom= 9.93D-01 WtEn= 7.02D-03
 Coeff-Com:  0.433D-01-0.164D-01-0.531D+00 0.150D+01
 Coeff-En:   0.000D+00 0.000D+00 0.000D+00 0.100D+01
 Coeff:      0.430D-01-0.163D-01-0.527D+00 0.150D+01
 Gap=     0.670 Goal=   None    Shift=    0.000
 RMSDP=2.26D-04 MaxDP=1.95D-03 DE=-8.30D-04 OVMax= 9.42D-04

 Cycle   5  Pass 1  IDiag  1:
 E= -33.6562040409398     Delta-E=       -0.000011913386 Rises=F Damp=F
 DIIS: error= 4.78D-05 at cycle   5 NSaved=   5.
 NSaved= 5 IEnMin= 5 EnMin= -33.6562040409398     IErMin= 5 ErrMin= 4.78D-05
 ErrMax= 4.78D-05  0.00D+00 EMaxC= 1.00D-01 BMatC= 4.37D-08 BMatP= 5.23D-06
 IDIUse=1 WtCom= 1.00D+00 WtEn= 0.00D+00
 Coeff-Com: -0.181D-02 0.109D-02 0.240D-01-0.116D+00 0.109D+01
 Coeff:     -0.181D-02 0.109D-02 0.240D-01-0.116D+00 0.109D+01
 Gap=     0.671 Goal=   None    Shift=    0.000
 RMSDP=1.48D-05 MaxDP=1.71D-04 DE=-1.19D-05 OVMax= 1.12D-04

 Cycle   6  Pass 1  IDiag  1:
 E= -33.6562041227817     Delta-E=       -0.000000081842 Rises=F Damp=F
 DIIS: error= 1.45D-05 at cycle   6 NSaved=   6.
 NSaved= 6 IEnMin= 6 EnMin= -33.6562041227817     IErMin= 6 ErrMin= 1.45D-05
 ErrMax= 1.45D-05  0.00D+00 EMaxC= 1.00D-01 BMatC= 8.26D-09 BMatP= 4.37D-08
 IDIUse=1 WtCom= 1.00D+00 WtEn= 0.00D+00
 Coeff-Com: -0.321D-02 0.135D-02 0.400D-01-0.125D+00 0.281D+00 0.806D+00
 Coeff:     -0.321D-02 0.135D-02 0.400D-01-0.125D+00 0.281D+00 0.806D+00
 Gap=     0.670 Goal=   None    Shift=    0.000
 RMSDP=3.93D-06 MaxDP=3.88D-05 DE=-8.18D-08 OVMax= 3.74D-05

 Cycle   7  Pass 1  IDiag  1:
 E= -33.6562041332921     Delta-E=       -0.000000010510 Rises=F Damp=F
 DIIS: error= 5.49D-06 at cycle   7 NSaved=   7.
 NSaved= 7 IEnMin= 7 EnMin= -33.6562041332921     IErMin= 7 ErrMin= 5.49D-06
 ErrMax= 5.49D-06  0.00D+00 EMaxC= 1.00D-01 BMatC= 5.63D-10 BMatP= 8.26D-09
 IDIUse=1 WtCom= 1.00D+00 WtEn= 0.00D+00
 Coeff-Com:  0.876D-03-0.341D-03-0.108D-01 0.373D-01-0.171D+00-0.147D+00
 Coeff-Com:  0.129D+01
 Coeff:      0.876D-03-0.341D-03-0.108D-01 0.373D-01-0.171D+00-0.147D+00
 Coeff:      0.129D+01
 Gap=     0.670 Goal=   None    Shift=    0.000
 RMSDP=2.01D-06 MaxDP=1.95D-05 DE=-1.05D-08 OVMax= 1.87D-05

 Cycle   8  Pass 1  IDiag  1:
 E= -33.6562041347547     Delta-E=       -0.000000001463 Rises=F Damp=F
 DIIS: error= 9.93D-07 at cycle   8 NSaved=   8.
 NSaved= 8 IEnMin= 8 EnMin= -33.6562041347547     IErMin= 8 ErrMin= 9.93D-07
 ErrMax= 9.93D-07  0.00D+00 EMaxC= 1.00D-01 BMatC= 2.11D-11 BMatP= 5.63D-10
 IDIUse=1 WtCom= 1.00D+00 WtEn= 0.00D+00
 Coeff-Com: -0.209D-05-0.209D-04-0.150D-04-0.700D-03 0.248D-01-0.964D-02
 Coeff-Com: -0.311D+00 0.130D+01
 Coeff:     -0.209D-05-0.209D-04-0.150D-04-0.700D-03 0.248D-01-0.964D-02
 Coeff:     -0.311D+00 0.130D+01
 Gap=     0.670 Goal=   None    Shift=    0.000
 RMSDP=4.98D-07 MaxDP=3.07D-06 DE=-1.46D-09 OVMax= 3.81D-06

 Cycle   9  Pass 1  IDiag  1:
 E= -33.6562041348127     Delta-E=       -0.000000000058 Rises=F Damp=F
 DIIS: error= 1.26D-07 at cycle   9 NSaved=   9.
 NSaved= 9 IEnMin= 9 EnMin= -33.6562041348127     IErMin= 9 ErrMin= 1.26D-07
 ErrMax= 1.26D-07  0.00D+00 EMaxC= 1.00D-01 BMatC= 5.44D-13 BMatP= 2.11D-11
 IDIUse=1 WtCom= 1.00D+00 WtEn= 0.00D+00
 Coeff-Com:  0.466D-05 0.516D-05-0.367D-04 0.353D-03-0.919D-02 0.419D-02
 Coeff-Com:  0.116D+00-0.545D+00 0.143D+01
 Coeff:      0.466D-05 0.516D-05-0.367D-04 0.353D-03-0.919D-02 0.419D-02
 Coeff:      0.116D+00-0.545D+00 0.143D+01
 Gap=     0.670 Goal=   None    Shift=    0.000
 RMSDP=1.07D-07 MaxDP=4.86D-07 DE=-5.80D-11 OVMax= 7.14D-07

 Cycle  10  Pass 1  IDiag  1:
 E= -33.6562041348140     Delta-E=       -0.000000000001 Rises=F Damp=F
 DIIS: error= 9.06D-09 at cycle  10 NSaved=  10.
 NSaved=10 IEnMin=10 EnMin= -33.6562041348140     IErMin=10 ErrMin= 9.06D-09
 ErrMax= 9.06D-09  0.00D+00 EMaxC= 1.00D-01 BMatC= 3.60D-15 BMatP= 5.44D-13
 IDIUse=1 WtCom= 1.00D+00 WtEn= 0.00D+00
 Coeff-Com:  0.188D-06-0.146D-05-0.694D-05-0.243D-04 0.176D-02-0.111D-02
 Coeff-Com: -0.235D-01 0.114D+00-0.368D+00 0.128D+01
 Coeff:      0.188D-06-0.146D-05-0.694D-05-0.243D-04 0.176D-02-0.111D-02
 Coeff:     -0.235D-01 0.114D+00-0.368D+00 0.128D+01
 Gap=     0.670 Goal=   None    Shift=    0.000
 RMSDP=1.25D-08 MaxDP=6.01D-08 DE=-1.36D-12 OVMax= 7.56D-08

 Cycle  11  Pass 1  IDiag  1:
 E= -33.6562041348142     Delta-E=       -0.000000000000 Rises=F Damp=F
 DIIS: error= 5.42D-10 at cycle  11 NSaved=  11.
 NSaved=11 IEnMin=11 EnMin= -33.6562041348142     IErMin=11 ErrMin= 5.42D-10
 ErrMax= 5.42D-10  0.00D+00 EMaxC= 1.00D-01 BMatC= 1.23D-17 BMatP= 3.60D-15
 IDIUse=1 WtCom= 1.00D+00 WtEn= 0.00D+00
 Coeff-Com: -0.741D-07 0.247D-06 0.161D-05 0.221D-05-0.282D-03 0.188D-03
 Coeff-Com:  0.381D-02-0.188D-01 0.620D-01-0.250D+00 0.120D+01
 Coeff:     -0.741D-07 0.247D-06 0.161D-05 0.221D-05-0.282D-03 0.188D-03
 Coeff:      0.381D-02-0.188D-01 0.620D-01-0.250D+00 0.120D+01
 Gap=     0.670 Goal=   None    Shift=    0.000
 RMSDP=5.46D-10 MaxDP=2.99D-09 DE=-1.28D-13 OVMax= 3.08D-09

 SCF Done:  E(RHF) =  -33.6562041348     A.U. after   11 cycles
            NFock= 11  Conv=0.55D-09     -V/T= 2.2568
 KE= 2.677908047239D+01 PE=-1.248185417734D+02 EE= 4.278879038755D+01
 Leave Link  502 at Sun Dec 10 06:21:55 2023, MaxMem=   536870912 cpu:               0.3 elap:               0.1
 (Enter /usr/site/hpc/x86_64/glibc-2.17/broadwell/gaussian/g16_a.03/pgi-16.5/g16/l801.exe)
 Windowed orbitals will be sorted by symmetry type.
 Range of M.O.s used for correlation:     1    24
 NBasis=    24 NAE=     8 NBE=     8 NFC=     0 NFV=     0
 NROrb=     24 NOA=     8 NOB=     8 NVA=    16 NVB=    16
 Leave Link  801 at Sun Dec 10 06:21:55 2023, MaxMem=   536870912 cpu:               0.1 elap:               0.0
 (Enter /usr/site/hpc/x86_64/glibc-2.17/broadwell/gaussian/g16_a.03/pgi-16.5/g16/l804.exe)
 Closed-shell transformation, MDV=   536870912 ITran=4 ISComp=2.
 Unit  1 TFree=       1025975 TCopy=        210600.
 Semi-Direct transformation.
 ModeAB=           2 MOrb=             8 LenV=     536742060
 LASXX=        22470 LTotXX=       22470 LenRXX=       22470
 LTotAB=       26208 MaxLAS=       57600 LenRXY=       57600
 NonZer=       61824 LenScr=      524288 LnRSAI=           0
 LnScr1=           0 LExtra=           0 Total=       604358
 MaxDsk=          -1 SrtSym=           F ITran=            4
 DoSDTr:  NPSUse=  4
 JobTyp=0 Pass  1:  I=   1 to   8.
 (rs|ai) integrals will be sorted in core.
 Complete sort for first half transformation.
 First half transformation complete.
 Complete sort for second half transformation.
 Second half transformation complete.
 Spin components of T(2) and E(2):
     alpha-alpha T2 =       0.9070966833D-02 E2=     -0.2593182410D-01
     alpha-beta  T2 =       0.5978056375D-01 E2=     -0.1764933777D+00
     beta-beta   T2 =       0.9070966833D-02 E2=     -0.2593182410D-01
 ANorm=    0.1038230464D+01
 E2 =    -0.2283570259D+00 EUMP2 =    -0.33884561160749D+02
 Leave Link  804 at Sun Dec 10 06:21:55 2023, MaxMem=   536870912 cpu:               0.2 elap:               0.1
 (Enter /usr/site/hpc/x86_64/glibc-2.17/broadwell/gaussian/g16_a.03/pgi-16.5/g16/l913.exe)
 CIDS:  MDV=   536870912.
 IFCWin=0 IBDFC=1 NFBD=     0     0 NFCmp=     0     0 NFFFC=     0     0
 Using DD3R+UMP44R for 1st iteration.
 Using DD4RQ for 2nd and later iterations.
 Keep R2 and R3 ints in memory in symmetry-blocked form, NReq=864874.
 FoFCou: FMM=F IPFlag=           0 FMFlag=           0 FMFlg1=           0
         NFxFlg=           0 DoJE=F BraDBF=F KetDBF=F FulRan=T
         wScrn=  0.000000 ICntrl=       600 IOpCl=  0 I1Cent=           0 NGrid=           0
         NMat0=    1 NMatS0=    300 NMatT0=    0 NMatD0=    1 NMtDS0=    0 NMtDT0=    0
 Petite list used in FoFCou.
 CIDS: In Core Option IDoMem=           1.
 CCSD(T)
 =======
 Iterations=  50 Convergence= 0.100D-06
 Produce multiple copies of IABC intergrals
 Iteration Nr.   1
 **********************
 DD1Dir will call FoFMem   1 times, MxPair=        72
 NAB=    36 NAA=     0 NBB=     0.
 MP4(R+Q)= -0.75578163D-03
 Maximum subspace dimension=  5
 A-vector RMS=  5.7893489D-03 Max=  1.3155607D-02 conv= 1.00D-05.
 RLE energy=       -0.2343325291
 E3=       -0.53445347D-02        EUMP3=      -0.33889905695D+02
 E4(DQ)=   -0.58960647D-02        UMP4(DQ)=   -0.33895801760D+02
 E4(SDQ)=  -0.79418843D-02        UMP4(SDQ)=  -0.33897847580D+02
 VARIATIONAL ENERGIES WITH THE FIRST-ORDER WAVEFUNCTION:
 DE(Corr)= -0.23418050     E(Corr)=     -33.890384633    
 NORM(A)=   0.10416315D+01
 Iteration Nr.   2
 **********************
 DD1Dir will call FoFMem   1 times, MxPair=        72
 NAB=    36 NAA=     0 NBB=     0.
 A-vector RMS=  9.7576927D-04 Max=  2.6970267D-03 conv= 1.00D-05.
 RLE energy=       -0.2420821851
 DE(Corr)= -0.24015449     E(CORR)=     -33.896358621     Delta=-5.97D-03
 NORM(A)=   0.10454004D+01
 Iteration Nr.   3
 **********************
 DD1Dir will call FoFMem   1 times, MxPair=        72
 NAB=    36 NAA=     0 NBB=     0.
 A-vector RMS=  3.8001584D-04 Max=  9.7815916D-04 conv= 1.00D-05.
 RLE energy=       -0.2426324030
 DE(Corr)= -0.24218512     E(CORR)=     -33.898389252     Delta=-2.03D-03
 NORM(A)=   0.10459562D+01
 Iteration Nr.   4
 **********************
 DD1Dir will call FoFMem   1 times, MxPair=        72
 NAB=    36 NAA=     0 NBB=     0.
 A-vector RMS=  9.2903215D-05 Max=  2.5561494D-04 conv= 1.00D-05.
 RLE energy=       -0.2426792257
 DE(Corr)= -0.24264377     E(CORR)=     -33.898847904     Delta=-4.59D-04
 NORM(A)=   0.10460271D+01
 Iteration Nr.   5
 **********************
 DD1Dir will call FoFMem   1 times, MxPair=        72
 NAB=    36 NAA=     0 NBB=     0.
 A-vector RMS=  4.0276784D-05 Max=  1.2675474D-04 conv= 1.00D-05.
 RLE energy=       -0.2426780724
 DE(Corr)= -0.24267567     E(CORR)=     -33.898879805     Delta=-3.19D-05
 NORM(A)=   0.10460366D+01
 Iteration Nr.   6
 **********************
 DD1Dir will call FoFMem   1 times, MxPair=        72
 NAB=    36 NAA=     0 NBB=     0.
 A-vector RMS=  1.3474776D-05 Max=  4.8505483D-05 conv= 1.00D-05.
 RLE energy=       -0.2426758608
 DE(Corr)= -0.24267801     E(CORR)=     -33.898882142     Delta=-2.34D-06
 NORM(A)=   0.10460393D+01
 Iteration Nr.   7
 **********************
 DD1Dir will call FoFMem   1 times, MxPair=        72
 NAB=    36 NAA=     0 NBB=     0.
 A-vector RMS=  4.3204902D-06 Max=  1.1703321D-05 conv= 1.00D-05.
 RLE energy=       -0.2426774096
 DE(Corr)= -0.24267750     E(CORR)=     -33.898881633     Delta= 5.09D-07
 NORM(A)=   0.10460408D+01
 Iteration Nr.   8
 **********************
 DD1Dir will call FoFMem   1 times, MxPair=        72
 NAB=    36 NAA=     0 NBB=     0.
 A-vector RMS=  1.3860172D-06 Max=  4.6939837D-06 conv= 1.00D-05.
 RLE energy=       -0.2426771564
 DE(Corr)= -0.24267729     E(CORR)=     -33.898881429     Delta= 2.05D-07
 NORM(A)=   0.10460412D+01
 Iteration Nr.   9
 **********************
 DD1Dir will call FoFMem   1 times, MxPair=        72
 NAB=    36 NAA=     0 NBB=     0.
 A-vector RMS=  3.0674276D-07 Max=  1.0872610D-06 conv= 1.00D-05.
 RLE energy=       -0.2426773647
 DE(Corr)= -0.24267738     E(CORR)=     -33.898881519     Delta=-9.01D-08
 NORM(A)=   0.10460414D+01
 CI/CC converged in    9 iterations to DelEn=-9.01D-08 Conv= 1.00D-07 ErrA1= 3.07D-07 Conv= 1.00D-05
 Wavefunction amplitudes converged. E(Corr)=     -33.898881519    
 Largest amplitude= 5.80D-02
 IPart=  3 IA=    2   12.50% done.
 IPart=  4 IA=    3   24.17% done.
 IPart=  2 IA=    4   35.00% done.
 IPart=  2 IA=    5   45.00% done.
 IPart=  4 IA=    6   54.17% done.
 IPart=  3 IA=    7   62.50% done.
 IPart=  1 IA=    8   70.00% done.
 IPart=  1 IA=   10   82.50% done.
 IPart=  2 IA=   12   91.67% done.
 Time for triples=        0.26 seconds.
 T4(CCSD)= -0.31041032D-02
 T5(CCSD)=  0.53129623D-03
 CCSD(T)= -0.33901454326D+02
 Discarding MO integrals.
 Leave Link  913 at Sun Dec 10 06:21:55 2023, MaxMem=   536870912 cpu:               0.9 elap:               0.2
 (Enter /usr/site/hpc/x86_64/glibc-2.17/broadwell/gaussian/g16_a.03/pgi-16.5/g16/l601.exe)
 Copying SCF densities to generalized density rwf, IOpCl= 0 IROHF=0.

 **********************************************************************

            Population analysis using the SCF density.

 **********************************************************************

 Orbital symmetries:
       Occupied  (A') (A') (A') (A') (A') (A') (A") (A")
       Virtual   (A') (A') (A') (A') (A") (A") (A') (A') (A') (A')
                 (A') (A') (A') (A') (A') (A')
 The electronic state is 1-A'.
 Alpha  occ. eigenvalues --   -1.36854  -1.33819  -0.72502  -0.69451  -0.56855
 Alpha  occ. eigenvalues --   -0.53668  -0.51489  -0.48456
 Alpha virt. eigenvalues --    0.18591   0.22682   0.29394   0.32818   0.79066
 Alpha virt. eigenvalues --    0.82031   0.83307   0.84519   0.85711   0.88090
 Alpha virt. eigenvalues --    1.16211   1.19613   1.20635   1.27546   2.55251
 Alpha virt. eigenvalues --    2.63915
          Condensed to atoms (all electrons):
               1          2          3          4          5          6
     1  O    6.228675   0.267877   0.262509  -0.000202   0.000007   0.000003
     2  H    0.267877   0.361895  -0.022784   0.001415  -0.000038  -0.000019
     3  H    0.262509  -0.022784   0.394371   0.000001   0.000000  -0.000000
     4  O   -0.000202   0.001415   0.000001   6.222043   0.266176   0.265719
     5  H    0.000007  -0.000038   0.000000   0.266176   0.377687  -0.023097
     6  H    0.000003  -0.000019  -0.000000   0.265719  -0.023097   0.380195
 Mulliken charges:
               1
     1  O   -0.758869
     2  H    0.391654
     3  H    0.365903
     4  O   -0.755152
     5  H    0.379265
     6  H    0.377199
 Sum of Mulliken charges =   0.00000
 Mulliken charges with hydrogens summed into heavy atoms:
               1
     1  O   -0.001312
     4  O    0.001312
 Electronic spatial extent (au):  <R**2>=            294.8880
 Charge=              0.0000 electrons
 Dipole moment (field-independent basis, Debye):
    X=             -1.5356    Y=             -4.2684    Z=             -0.0000  Tot=              4.5362
 Quadrupole moment (field-independent basis, Debye-Ang):
   XX=             -9.4287   YY=             -6.8715   ZZ=            -14.9973
   XY=             -6.5156   XZ=              0.0000   YZ=             -0.0000
 Traceless Quadrupole moment (field-independent basis, Debye-Ang):
   XX=              1.0038   YY=              3.5610   ZZ=             -4.5648
   XY=             -6.5156   XZ=              0.0000   YZ=             -0.0000
 Octapole moment (field-independent basis, Debye-Ang**2):
  XXX=             -0.8307  YYY=            -51.5319  ZZZ=             -0.0000  XYY=            -13.8118
  XXY=             -3.9002  XXZ=             -0.0000  XZZ=             -0.2874  YZZ=             -0.8340
  YYZ=             -0.0000  XYZ=             -0.0000
 Hexadecapole moment (field-independent basis, Debye-Ang**3):
 XXXX=            -11.7162 YYYY=           -277.4913 ZZZZ=            -12.2375 XXXY=             -3.4494
 XXXZ=              0.0000 YYYX=            -32.4642 YYYZ=             -0.0000 ZZZX=             -0.0000
 ZZZY=              0.0000 XXYY=            -40.2755 XXZZ=             -4.5545 YYZZ=            -71.2507
 XXYZ=             -0.0000 YYXZ=              0.0000 ZZXY=              0.7917
 N-N= 2.159446677861D+01 E-N=-1.248185417731D+02  KE= 2.677908047239D+01
 Symmetry A'   KE= 1.790467473555D+01
 Symmetry A"   KE= 8.874405736838D+00
 Leave Link  601 at Sun Dec 10 06:21:55 2023, MaxMem=   536870912 cpu:               0.1 elap:               0.0
 (Enter /usr/site/hpc/x86_64/glibc-2.17/broadwell/gaussian/g16_a.03/pgi-16.5/g16/l9999.exe)
 1\1\GINC-N033\SP\RCCSD(T)-FC\CEP-31G\H4O2\ROOT\10-Dec-2023\0\\#p CCSD(
 T)/CEP-31G\\H2O_H2O_2718\\0,1\O,0,0.,-0.009833,0.\H,0,-0.799571,-0.580
 965,0.\H,0,0.799571,-0.580965,0.\O,0,-3.422591,-2.442022,0.\H,0,-4.256
 231,-1.921878,0.\H,0,-3.644265,-3.399293,0.\\Version=ES64L-G16RevA.03\
 State=1-A'\HF=-33.6562041\MP2=-33.8845612\MP3=-33.8899057\MP4D=-33.895
 046\MP4DQ=-33.8958018\MP4SDQ=-33.8978476\CCSD=-33.8988815\CCSD(T)=-33.
 9014543\RMSD=5.465e-10\PG=CS [SG(H4O2)]\\@


 Not by the face shall a man be known, but by the mask.
                               -- Karen Blixen
 Job cpu time:       0 days  0 hours  0 minutes  3.3 seconds.
 Elapsed time:       0 days  0 hours  0 minutes  1.0 seconds.
 File lengths (MBytes):  RWF=     72 Int=      0 D2E=      0 Chk=      8 Scr=      8
 Normal termination of Gaussian 16 at Sun Dec 10 06:21:55 2023.
