 Entering Gaussian System, Link 0=g16
 Input=H2O_H2O_3677.com
 Output=H2O_H2O_3677.log
 Initial command:
 /usr/site/hpc/x86_64/glibc-2.17/broadwell/gaussian/g16_a.03/pgi-16.5/g16/l1.exe "/gpfs/gpfs1/scratch/c7441090/OO Coord/Gau-1780069.inp" -scrdir="/gpfs/gpfs1/scratch/c7441090/OO Coord/"
 Entering Link 1 = /usr/site/hpc/x86_64/glibc-2.17/broadwell/gaussian/g16_a.03/pgi-16.5/g16/l1.exe PID=   1780070.
  
 Copyright (c) 1988,1990,1992,1993,1995,1998,2003,2009,2016,
            Gaussian, Inc.  All Rights Reserved.
  
 This is part of the Gaussian(R) 16 program.  It is based on
 the Gaussian(R) 09 system (copyright 2009, Gaussian, Inc.),
 the Gaussian(R) 03 system (copyright 2003, Gaussian, Inc.),
 the Gaussian(R) 98 system (copyright 1998, Gaussian, Inc.),
 the Gaussian(R) 94 system (copyright 1995, Gaussian, Inc.),
 the Gaussian 92(TM) system (copyright 1992, Gaussian, Inc.),
 the Gaussian 90(TM) system (copyright 1990, Gaussian, Inc.),
 the Gaussian 88(TM) system (copyright 1988, Gaussian, Inc.),
 the Gaussian 86(TM) system (copyright 1986, Carnegie Mellon
 University), and the Gaussian 82(TM) system (copyright 1983,
 Carnegie Mellon University). Gaussian is a federally registered
 trademark of Gaussian, Inc.
  
 This software contains proprietary and confidential information,
 including trade secrets, belonging to Gaussian, Inc.
  
 This software is provided under written license and may be
 used, copied, transmitted, or stored only in accord with that
 written license.
  
 The following legend is applicable only to US Government
 contracts under FAR:
  
                    RESTRICTED RIGHTS LEGEND
  
 Use, reproduction and disclosure by the US Government is
 subject to restrictions as set forth in subparagraphs (a)
 and (c) of the Commercial Computer Software - Restricted
 Rights clause in FAR 52.227-19.
  
 Gaussian, Inc.
 340 Quinnipiac St., Bldg. 40, Wallingford CT 06492
  
  
 ---------------------------------------------------------------
 Warning -- This program may not be used in any manner that
 competes with the business of Gaussian, Inc. or will provide
 assistance to any competitor of Gaussian, Inc.  The licensee
 of this program is prohibited from giving any competitor of
 Gaussian, Inc. access to this program.  By using this program,
 the user acknowledges that Gaussian, Inc. is engaged in the
 business of creating and licensing software in the field of
 computational chemistry and represents and warrants to the
 licensee that it is not a competitor of Gaussian, Inc. and that
 it will not use this program in any manner prohibited above.
 ---------------------------------------------------------------
  

 Cite this work as:
 Gaussian 16, Revision A.03,
 M. J. Frisch, G. W. Trucks, H. B. Schlegel, G. E. Scuseria, 
 M. A. Robb, J. R. Cheeseman, G. Scalmani, V. Barone, 
 G. A. Petersson, H. Nakatsuji, X. Li, M. Caricato, A. V. Marenich, 
 J. Bloino, B. G. Janesko, R. Gomperts, B. Mennucci, H. P. Hratchian, 
 J. V. Ortiz, A. F. Izmaylov, J. L. Sonnenberg, D. Williams-Young, 
 F. Ding, F. Lipparini, F. Egidi, J. Goings, B. Peng, A. Petrone, 
 T. Henderson, D. Ranasinghe, V. G. Zakrzewski, J. Gao, N. Rega, 
 G. Zheng, W. Liang, M. Hada, M. Ehara, K. Toyota, R. Fukuda, 
 J. Hasegawa, M. Ishida, T. Nakajima, Y. Honda, O. Kitao, H. Nakai, 
 T. Vreven, K. Throssell, J. A. Montgomery, Jr., J. E. Peralta, 
 F. Ogliaro, M. J. Bearpark, J. J. Heyd, E. N. Brothers, K. N. Kudin, 
 V. N. Staroverov, T. A. Keith, R. Kobayashi, J. Normand, 
 K. Raghavachari, A. P. Rendell, J. C. Burant, S. S. Iyengar, 
 J. Tomasi, M. Cossi, J. M. Millam, M. Klene, C. Adamo, R. Cammi, 
 J. W. Ochterski, R. L. Martin, K. Morokuma, O. Farkas, 
 J. B. Foresman, and D. J. Fox, Gaussian, Inc., Wallingford CT, 2016.
 
 ******************************************
 Gaussian 16:  ES64L-G16RevA.03 25-Dec-2016
                10-Dec-2023 
 ******************************************
 %NProcShared=4
 Will use up to    4 processors via shared memory.
 %Mem=4GB
 %Chk=H2O_H2O_3677.chk
 ------------------
 #p CCSD(T)/CEP-31G
 ------------------
 1/38=1,172=1/1;
 2/12=2,17=6,18=5,40=1/2;
 3/5=9,6=1,11=9,25=1,30=1/1,2,3;
 4//1;
 5/5=2,38=5/2;
 8/6=4,9=120000,10=1/1,4;
 9/5=7,14=2/13;
 6/7=2,8=2,9=2,10=2/1;
 99/5=1,9=1/99;
 Leave Link    1 at Sun Dec 10 06:46:06 2023, MaxMem=   536870912 cpu:               0.2 elap:               0.1
 (Enter /usr/site/hpc/x86_64/glibc-2.17/broadwell/gaussian/g16_a.03/pgi-16.5/g16/l101.exe)
 ------------
 H2O_H2O_3677
 ------------
 Symbolic Z-matrix:
 Charge =  0 Multiplicity = 1
 O                     0.       -0.00983   0. 
 H                    -0.79957  -0.58097   0. 
 H                     0.79957  -0.58097   0. 
 O                    -0.00128   5.50628   0. 
 H                     0.7169    6.17689   0. 
 H                    -0.86856   5.96816   0. 
 
 ITRead=  0  0  0  0  0  0
 MicOpt= -1 -1 -1 -1 -1 -1
 NAtoms=      6 NQM=        6 NQMF=       0 NMMI=      0 NMMIF=      0
                NMic=       0 NMicF=      0.
                    Isotopes and Nuclear Properties:
 (Nuclear quadrupole moments (NQMom) in fm**2, nuclear magnetic moments (NMagM)
  in nuclear magnetons)

  Atom         1           2           3           4           5           6
 IAtWgt=          16           1           1          16           1           1
 AtmWgt=  15.9949146   1.0078250   1.0078250  15.9949146   1.0078250   1.0078250
 NucSpn=           0           1           1           0           1           1
 AtZEff=  -0.0000000  -0.0000000  -0.0000000  -0.0000000  -0.0000000  -0.0000000
 NQMom=    0.0000000   0.0000000   0.0000000   0.0000000   0.0000000   0.0000000
 NMagM=    0.0000000   2.7928460   2.7928460   0.0000000   2.7928460   2.7928460
 AtZNuc=   8.0000000   1.0000000   1.0000000   8.0000000   1.0000000   1.0000000
 Leave Link  101 at Sun Dec 10 06:46:07 2023, MaxMem=   536870912 cpu:               0.3 elap:               0.1
 (Enter /usr/site/hpc/x86_64/glibc-2.17/broadwell/gaussian/g16_a.03/pgi-16.5/g16/l202.exe)
                          Input orientation:                          
 ---------------------------------------------------------------------
 Center     Atomic      Atomic             Coordinates (Angstroms)
 Number     Number       Type             X           Y           Z
 ---------------------------------------------------------------------
      1          8           0        0.000000   -0.009833    0.000000
      2          1           0       -0.799571   -0.580965    0.000000
      3          1           0        0.799571   -0.580965    0.000000
      4          8           0       -0.001283    5.506278    0.000000
      5          1           0        0.716900    6.176889    0.000000
      6          1           0       -0.868562    5.968159    0.000000
 ---------------------------------------------------------------------
                    Distance matrix (angstroms):
                    1          2          3          4          5
     1  O    0.000000
     2  H    0.982601   0.000000
     3  H    0.982601   1.599142   0.000000
     4  O    5.516111   6.139364   6.139698   0.000000
     5  H    6.228120   6.925913   6.758360   0.982602   0.000000
     6  H    6.040761   6.549487   6.758231   0.982602   1.599143
                    6
     6  H    0.000000
 Stoichiometry    H4O2
 Framework group  CS[SG(H4O2)]
 Deg. of freedom     9
 Full point group                 CS      NOp   2
 Largest Abelian subgroup         CS      NOp   2
 Largest concise Abelian subgroup C1      NOp   1
                         Standard orientation:                         
 ---------------------------------------------------------------------
 Center     Atomic      Atomic             Coordinates (Angstroms)
 Number     Number       Type             X           Y           Z
 ---------------------------------------------------------------------
      1          8           0        0.007455   -2.757569    0.000000
      2          1           0       -0.792249   -3.328515    0.000000
      3          1           0        0.806893   -3.328887    0.000000
      4          8           0        0.007455    2.758542    0.000000
      5          1           0        0.725794    3.428986    0.000000
      6          1           0       -0.859717    3.220625    0.000000
 ---------------------------------------------------------------------
 Rotational constants (GHZ):         196.9873685           1.7549081           1.7394121
 Leave Link  202 at Sun Dec 10 06:46:07 2023, MaxMem=   536870912 cpu:               0.1 elap:               0.0
 (Enter /usr/site/hpc/x86_64/glibc-2.17/broadwell/gaussian/g16_a.03/pgi-16.5/g16/l301.exe)
 Standard basis: CEP-31G (6D, 10F)
 Ernie: Thresh=  0.10000D-02 Tol=  0.10000D-05 Strict=F.
 There are    20 symmetry adapted cartesian basis functions of A'  symmetry.
 There are     4 symmetry adapted cartesian basis functions of A"  symmetry.
 There are    20 symmetry adapted basis functions of A'  symmetry.
 There are     4 symmetry adapted basis functions of A"  symmetry.
    24 basis functions,    48 primitive gaussians,    24 cartesian basis functions
     8 alpha electrons        8 beta electrons
       nuclear repulsion energy        19.4240499557 Hartrees.
 IExCor=    0 DFT=F Ex=HF Corr=None ExCW=0 ScaHFX=  1.000000
 ScaDFX=  1.000000  1.000000  1.000000  1.000000 ScalE2=  1.000000  1.000000
 IRadAn=      5 IRanWt=     -1 IRanGd=            0 ICorTp=0 IEmpDi=  4
 NAtoms=    6 NActive=    6 NUniq=    6 SFac= 1.00D+00 NAtFMM=   60 NAOKFM=F Big=F
 Integral buffers will be    131072 words long.
 Raffenetti 1 integral format.
 Two-electron integral symmetry is turned on.
 Leave Link  301 at Sun Dec 10 06:46:07 2023, MaxMem=   536870912 cpu:               0.2 elap:               0.1
 (Enter /usr/site/hpc/x86_64/glibc-2.17/broadwell/gaussian/g16_a.03/pgi-16.5/g16/l302.exe)
 NPDir=0 NMtPBC=     1 NCelOv=     1 NCel=       1 NClECP=     1 NCelD=      1
         NCelK=      1 NCelE2=     1 NClLst=     1 CellRange=     0.0.
 One-electron integrals computed using PRISM.
 One-electron integral symmetry used in STVInt
   2 Symmetry operations used in ECPInt.
 ECPInt:  NShTT=      78 NPrTT=     318 LenC2=      78 LenP2D=     245.
 LDataN:  DoStor=T MaxTD1= 2 Len=   12
 NBasis=    24 RedAO= T EigKep=  3.86D-02  NBF=    20     4
 NBsUse=    24 1.00D-06 EigRej= -1.00D+00 NBFU=    20     4
 Leave Link  302 at Sun Dec 10 06:46:07 2023, MaxMem=   536870912 cpu:               0.3 elap:               0.1
 (Enter /usr/site/hpc/x86_64/glibc-2.17/broadwell/gaussian/g16_a.03/pgi-16.5/g16/l303.exe)
 DipDrv:  MaxL=1.
 Leave Link  303 at Sun Dec 10 06:46:07 2023, MaxMem=   536870912 cpu:               0.1 elap:               0.0
 (Enter /usr/site/hpc/x86_64/glibc-2.17/broadwell/gaussian/g16_a.03/pgi-16.5/g16/l401.exe)
 ExpMin= 1.78D-01 ExpMax= 1.92D+01 ExpMxC= 1.92D+01 IAcc=3 IRadAn=         5 AccDes= 0.00D+00
 Harris functional with IExCor=  205 and IRadAn=       5 diagonalized for initial guess.
 HarFok:  IExCor=  205 AccDes= 0.00D+00 IRadAn=         5 IDoV= 1 UseB2=F ITyADJ=14
 ICtDFT=  3500011 ScaDFX=  1.000000  1.000000  1.000000  1.000000
 FoFCou: FMM=F IPFlag=           0 FMFlag=      100000 FMFlg1=           0
         NFxFlg=           0 DoJE=T BraDBF=F KetDBF=T FulRan=T
         wScrn=  0.000000 ICntrl=       500 IOpCl=  0 I1Cent=   200000004 NGrid=           0
         NMat0=    1 NMatS0=      1 NMatT0=    0 NMatD0=    1 NMtDS0=    0 NMtDT0=    0
 Petite list used in FoFCou.
 Harris En= -34.4763700449693    
 JPrj=0 DoOrth=F DoCkMO=F.
 Initial guess orbital symmetries:
       Occupied  (A') (A') (A') (A') (A') (A') (A") (A")
       Virtual   (A') (A') (A') (A') (A") (A") (A') (A') (A') (A')
                 (A') (A') (A') (A') (A') (A')
 The electronic state of the initial guess is 1-A'.
 Leave Link  401 at Sun Dec 10 06:46:07 2023, MaxMem=   536870912 cpu:               0.4 elap:               0.1
 (Enter /usr/site/hpc/x86_64/glibc-2.17/broadwell/gaussian/g16_a.03/pgi-16.5/g16/l502.exe)
 Keep R1 ints in memory in symmetry-blocked form, NReq=851853.
 FoFCou: FMM=F IPFlag=           0 FMFlag=           0 FMFlg1=           0
         NFxFlg=           0 DoJE=F BraDBF=F KetDBF=F FulRan=T
         wScrn=  0.000000 ICntrl=       600 IOpCl=  0 I1Cent=           0 NGrid=           0
         NMat0=    1 NMatS0=    300 NMatT0=    0 NMatD0=    1 NMtDS0=    0 NMtDT0=    0
 Petite list used in FoFCou.
 Closed shell SCF:
 Using DIIS extrapolation, IDIIS=  1040.
 NGot=   536870912 LenX=   536840576 LenY=   536839559
 Requested convergence on RMS density matrix=1.00D-08 within 128 cycles.
 Requested convergence on MAX density matrix=1.00D-06.
 Requested convergence on             energy=1.00D-06.
 No special actions if energy rises.

 Cycle   1  Pass 1  IDiag  1:
 E= -33.5546920998004    
 DIIS: error= 6.92D-02 at cycle   1 NSaved=   1.
 NSaved= 1 IEnMin= 1 EnMin= -33.5546920998004     IErMin= 1 ErrMin= 6.92D-02
 ErrMax= 6.92D-02  0.00D+00 EMaxC= 1.00D-01 BMatC= 1.03D-01 BMatP= 1.03D-01
 IDIUse=3 WtCom= 3.08D-01 WtEn= 6.92D-01
 Coeff-Com:  0.100D+01
 Coeff-En:   0.100D+01
 Coeff:      0.100D+01
 Gap=     0.605 Goal=   None    Shift=    0.000
 GapD=    0.605 DampG=2.000 DampE=0.500 DampFc=1.0000 IDamp=-1.
 RMSDP=1.50D-02 MaxDP=1.18D-01              OVMax= 1.00D-01

 Cycle   2  Pass 1  IDiag  1:
 E= -33.6181829501267     Delta-E=       -0.063490850326 Rises=F Damp=F
 DIIS: error= 3.76D-02 at cycle   2 NSaved=   2.
 NSaved= 2 IEnMin= 2 EnMin= -33.6181829501267     IErMin= 2 ErrMin= 3.76D-02
 ErrMax= 3.76D-02  0.00D+00 EMaxC= 1.00D-01 BMatC= 3.87D-02 BMatP= 1.03D-01
 IDIUse=3 WtCom= 6.24D-01 WtEn= 3.76D-01
 Coeff-Com:  0.378D+00 0.622D+00
 Coeff-En:   0.108D+00 0.892D+00
 Coeff:      0.276D+00 0.724D+00
 Gap=     0.708 Goal=   None    Shift=    0.000
 RMSDP=6.45D-03 MaxDP=5.46D-02 DE=-6.35D-02 OVMax= 3.60D-02

 Cycle   3  Pass 1  IDiag  1:
 E= -33.6490566167885     Delta-E=       -0.030873666662 Rises=F Damp=F
 DIIS: error= 7.29D-03 at cycle   3 NSaved=   3.
 NSaved= 3 IEnMin= 3 EnMin= -33.6490566167885     IErMin= 3 ErrMin= 7.29D-03
 ErrMax= 7.29D-03  0.00D+00 EMaxC= 1.00D-01 BMatC= 9.30D-04 BMatP= 3.87D-02
 IDIUse=3 WtCom= 9.27D-01 WtEn= 7.29D-02
 Coeff-Com: -0.114D+00-0.149D-01 0.113D+01
 Coeff-En:   0.000D+00 0.000D+00 0.100D+01
 Coeff:     -0.106D+00-0.138D-01 0.112D+01
 Gap=     0.700 Goal=   None    Shift=    0.000
 RMSDP=1.11D-03 MaxDP=9.42D-03 DE=-3.09D-02 OVMax= 8.24D-03

 Cycle   4  Pass 1  IDiag  1:
 E= -33.6499885757818     Delta-E=       -0.000931958993 Rises=F Damp=F
 DIIS: error= 7.73D-04 at cycle   4 NSaved=   4.
 NSaved= 4 IEnMin= 4 EnMin= -33.6499885757818     IErMin= 4 ErrMin= 7.73D-04
 ErrMax= 7.73D-04  0.00D+00 EMaxC= 1.00D-01 BMatC= 6.19D-06 BMatP= 9.30D-04
 IDIUse=3 WtCom= 9.92D-01 WtEn= 7.73D-03
 Coeff-Com:  0.436D-01-0.182D-01-0.519D+00 0.149D+01
 Coeff-En:   0.000D+00 0.000D+00 0.000D+00 0.100D+01
 Coeff:      0.433D-01-0.181D-01-0.515D+00 0.149D+01
 Gap=     0.702 Goal=   None    Shift=    0.000
 RMSDP=2.39D-04 MaxDP=2.06D-03 DE=-9.32D-04 OVMax= 9.71D-04

 Cycle   5  Pass 1  IDiag  1:
 E= -33.6500021499694     Delta-E=       -0.000013574188 Rises=F Damp=F
 DIIS: error= 5.26D-05 at cycle   5 NSaved=   5.
 NSaved= 5 IEnMin= 5 EnMin= -33.6500021499694     IErMin= 5 ErrMin= 5.26D-05
 ErrMax= 5.26D-05  0.00D+00 EMaxC= 1.00D-01 BMatC= 4.29D-08 BMatP= 6.19D-06
 IDIUse=1 WtCom= 1.00D+00 WtEn= 0.00D+00
 Coeff-Com: -0.719D-02 0.335D-02 0.863D-01-0.299D+00 0.122D+01
 Coeff:     -0.719D-02 0.335D-02 0.863D-01-0.299D+00 0.122D+01
 Gap=     0.702 Goal=   None    Shift=    0.000
 RMSDP=1.67D-05 MaxDP=1.58D-04 DE=-1.36D-05 OVMax= 1.08D-04

 Cycle   6  Pass 1  IDiag  1:
 E= -33.6500022571471     Delta-E=       -0.000000107178 Rises=F Damp=F
 DIIS: error= 1.13D-05 at cycle   6 NSaved=   6.
 NSaved= 6 IEnMin= 6 EnMin= -33.6500022571471     IErMin= 6 ErrMin= 1.13D-05
 ErrMax= 1.13D-05  0.00D+00 EMaxC= 1.00D-01 BMatC= 2.36D-09 BMatP= 4.29D-08
 IDIUse=1 WtCom= 1.00D+00 WtEn= 0.00D+00
 Coeff-Com:  0.132D-02-0.482D-03-0.153D-01 0.599D-01-0.420D+00 0.137D+01
 Coeff:      0.132D-02-0.482D-03-0.153D-01 0.599D-01-0.420D+00 0.137D+01
 Gap=     0.702 Goal=   None    Shift=    0.000
 RMSDP=4.11D-06 MaxDP=4.10D-05 DE=-1.07D-07 OVMax= 3.53D-05

 Cycle   7  Pass 1  IDiag  1:
 E= -33.6500022637037     Delta-E=       -0.000000006557 Rises=F Damp=F
 DIIS: error= 2.19D-06 at cycle   7 NSaved=   7.
 NSaved= 7 IEnMin= 7 EnMin= -33.6500022637037     IErMin= 7 ErrMin= 2.19D-06
 ErrMax= 2.19D-06  0.00D+00 EMaxC= 1.00D-01 BMatC= 1.00D-10 BMatP= 2.36D-09
 IDIUse=1 WtCom= 1.00D+00 WtEn= 0.00D+00
 Coeff-Com:  0.296D-04-0.785D-04-0.594D-03-0.843D-03 0.736D-01-0.447D+00
 Coeff-Com:  0.137D+01
 Coeff:      0.296D-04-0.785D-04-0.594D-03-0.843D-03 0.736D-01-0.447D+00
 Coeff:      0.137D+01
 Gap=     0.702 Goal=   None    Shift=    0.000
 RMSDP=1.12D-06 MaxDP=8.03D-06 DE=-6.56D-09 OVMax= 8.47D-06

 Cycle   8  Pass 1  IDiag  1:
 E= -33.6500022639944     Delta-E=       -0.000000000291 Rises=F Damp=F
 DIIS: error= 3.48D-07 at cycle   8 NSaved=   8.
 NSaved= 8 IEnMin= 8 EnMin= -33.6500022639944     IErMin= 8 ErrMin= 3.48D-07
 ErrMax= 3.48D-07  0.00D+00 EMaxC= 1.00D-01 BMatC= 2.79D-12 BMatP= 1.00D-10
 IDIUse=1 WtCom= 1.00D+00 WtEn= 0.00D+00
 Coeff-Com:  0.547D-05 0.171D-04 0.267D-04 0.796D-03-0.260D-01 0.154D+00
 Coeff-Com: -0.531D+00 0.140D+01
 Coeff:      0.547D-05 0.171D-04 0.267D-04 0.796D-03-0.260D-01 0.154D+00
 Coeff:     -0.531D+00 0.140D+01
 Gap=     0.702 Goal=   None    Shift=    0.000
 RMSDP=2.34D-07 MaxDP=1.09D-06 DE=-2.91D-10 OVMax= 1.60D-06

 Cycle   9  Pass 1  IDiag  1:
 E= -33.6500022640017     Delta-E=       -0.000000000007 Rises=F Damp=F
 DIIS: error= 7.12D-08 at cycle   9 NSaved=   9.
 NSaved= 9 IEnMin= 9 EnMin= -33.6500022640017     IErMin= 9 ErrMin= 7.12D-08
 ErrMax= 7.12D-08  0.00D+00 EMaxC= 1.00D-01 BMatC= 1.74D-13 BMatP= 2.79D-12
 IDIUse=1 WtCom= 1.00D+00 WtEn= 0.00D+00
 Coeff-Com:  0.309D-05 0.744D-05 0.230D-05 0.384D-03-0.115D-01 0.668D-01
 Coeff-Com: -0.223D+00 0.445D+00 0.722D+00
 Coeff:      0.309D-05 0.744D-05 0.230D-05 0.384D-03-0.115D-01 0.668D-01
 Coeff:     -0.223D+00 0.445D+00 0.722D+00
 Gap=     0.702 Goal=   None    Shift=    0.000
 RMSDP=2.75D-08 MaxDP=1.34D-07 DE=-7.34D-12 OVMax= 1.88D-07

 Cycle  10  Pass 1  IDiag  1:
 E= -33.6500022640020     Delta-E=       -0.000000000000 Rises=F Damp=F
 DIIS: error= 8.14D-09 at cycle  10 NSaved=  10.
 NSaved=10 IEnMin=10 EnMin= -33.6500022640020     IErMin=10 ErrMin= 8.14D-09
 ErrMax= 8.14D-09  0.00D+00 EMaxC= 1.00D-01 BMatC= 3.12D-15 BMatP= 1.74D-13
 IDIUse=1 WtCom= 1.00D+00 WtEn= 0.00D+00
 Coeff-Com:  0.916D-07-0.214D-05-0.112D-04-0.617D-04 0.280D-02-0.170D-01
 Coeff-Com:  0.577D-01-0.145D+00-0.955D-01 0.120D+01
 Coeff:      0.916D-07-0.214D-05-0.112D-04-0.617D-04 0.280D-02-0.170D-01
 Coeff:      0.577D-01-0.145D+00-0.955D-01 0.120D+01
 Gap=     0.702 Goal=   None    Shift=    0.000
 RMSDP=1.10D-08 MaxDP=5.10D-08 DE=-2.70D-13 OVMax= 6.34D-08

 Cycle  11  Pass 1  IDiag  1:
 E= -33.6500022640020     Delta-E=       -0.000000000000 Rises=F Damp=F
 DIIS: error= 3.39D-10 at cycle  11 NSaved=  11.
 NSaved=11 IEnMin=11 EnMin= -33.6500022640020     IErMin=11 ErrMin= 3.39D-10
 ErrMax= 3.39D-10  0.00D+00 EMaxC= 1.00D-01 BMatC= 3.29D-18 BMatP= 3.12D-15
 IDIUse=1 WtCom= 1.00D+00 WtEn= 0.00D+00
 Coeff-Com: -0.813D-07 0.391D-06 0.271D-05 0.860D-05-0.492D-03 0.302D-02
 Coeff-Com: -0.103D-01 0.266D-01 0.162D-01-0.233D+00 0.120D+01
 Coeff:     -0.813D-07 0.391D-06 0.271D-05 0.860D-05-0.492D-03 0.302D-02
 Coeff:     -0.103D-01 0.266D-01 0.162D-01-0.233D+00 0.120D+01
 Gap=     0.702 Goal=   None    Shift=    0.000
 RMSDP=1.89D-10 MaxDP=9.24D-10 DE=-7.11D-15 OVMax= 6.14D-10

 SCF Done:  E(RHF) =  -33.6500022640     A.U. after   11 cycles
            NFock= 11  Conv=0.19D-09     -V/T= 2.2570
 KE= 2.677014349107D+01 PE=-1.205571751650D+02 EE= 4.071297945423D+01
 Leave Link  502 at Sun Dec 10 06:46:07 2023, MaxMem=   536870912 cpu:               0.3 elap:               0.1
 (Enter /usr/site/hpc/x86_64/glibc-2.17/broadwell/gaussian/g16_a.03/pgi-16.5/g16/l801.exe)
 Windowed orbitals will be sorted by symmetry type.
 Range of M.O.s used for correlation:     1    24
 NBasis=    24 NAE=     8 NBE=     8 NFC=     0 NFV=     0
 NROrb=     24 NOA=     8 NOB=     8 NVA=    16 NVB=    16
 Leave Link  801 at Sun Dec 10 06:46:07 2023, MaxMem=   536870912 cpu:               0.1 elap:               0.0
 (Enter /usr/site/hpc/x86_64/glibc-2.17/broadwell/gaussian/g16_a.03/pgi-16.5/g16/l804.exe)
 Closed-shell transformation, MDV=   536870912 ITran=4 ISComp=2.
 Unit  1 TFree=       1025975 TCopy=        210600.
 Semi-Direct transformation.
 ModeAB=           4 MOrb=             8 LenV=     536742612
 LASXX=        22470 LTotXX=       22470 LenRXX=       48678
 LTotAB=       26208 MaxLAS=       55296 LenRXY=           0
 NonZer=       71148 LenScr=      524288 LnRSAI=       55296
 LnScr1=      524288 LExtra=           0 Total=      1152550
 MaxDsk=          -1 SrtSym=           T ITran=            4
 DoSDTr:  NPSUse=  4
 JobTyp=0 Pass  1:  I=   1 to   8.
 (rs|ai) integrals will be sorted in core.
 Complete sort for first half transformation.
 First half transformation complete.
 Complete sort for second half transformation.
 Second half transformation complete.
 Spin components of T(2) and E(2):
     alpha-alpha T2 =       0.9072584202D-02 E2=     -0.2589092793D-01
     alpha-beta  T2 =       0.6001962135D-01 E2=     -0.1766952087D+00
     beta-beta   T2 =       0.9072584202D-02 E2=     -0.2589092793D-01
 ANorm=    0.1038347143D+01
 E2 =    -0.2284770645D+00 EUMP2 =    -0.33878479328525D+02
 Leave Link  804 at Sun Dec 10 06:46:07 2023, MaxMem=   536870912 cpu:               0.2 elap:               0.1
 (Enter /usr/site/hpc/x86_64/glibc-2.17/broadwell/gaussian/g16_a.03/pgi-16.5/g16/l913.exe)
 CIDS:  MDV=   536870912.
 IFCWin=0 IBDFC=1 NFBD=     0     0 NFCmp=     0     0 NFFFC=     0     0
 Using DD3R+UMP44R for 1st iteration.
 Using DD4RQ for 2nd and later iterations.
 Keep R2 and R3 ints in memory in symmetry-blocked form, NReq=864461.
 FoFCou: FMM=F IPFlag=           0 FMFlag=           0 FMFlg1=           0
         NFxFlg=           0 DoJE=F BraDBF=F KetDBF=F FulRan=T
         wScrn=  0.000000 ICntrl=       600 IOpCl=  0 I1Cent=           0 NGrid=           0
         NMat0=    1 NMatS0=    300 NMatT0=    0 NMatD0=    1 NMtDS0=    0 NMtDT0=    0
 Petite list used in FoFCou.
 CIDS: In Core Option IDoMem=           1.
 CCSD(T)
 =======
 Iterations=  50 Convergence= 0.100D-06
 Produce multiple copies of IABC intergrals
 Iteration Nr.   1
 **********************
 DD1Dir will call FoFMem   1 times, MxPair=        72
 NAB=    36 NAA=     0 NBB=     0.
 MP4(R+Q)= -0.73192922D-03
 Maximum subspace dimension=  5
 A-vector RMS=  5.7710433D-03 Max=  1.2247325D-02 conv= 1.00D-05.
 RLE energy=       -0.2345675107
 E3=       -0.54752071D-02        EUMP3=      -0.33883954536D+02
 E4(DQ)=   -0.59182868D-02        UMP4(DQ)=   -0.33889872822D+02
 E4(SDQ)=  -0.79508003D-02        UMP4(SDQ)=  -0.33891905336D+02
 VARIATIONAL ENERGIES WITH THE FIRST-ORDER WAVEFUNCTION:
 DE(Corr)= -0.23440971     E(Corr)=     -33.884411978    
 NORM(A)=   0.10418041D+01
 Iteration Nr.   2
 **********************
 DD1Dir will call FoFMem   1 times, MxPair=        72
 NAB=    36 NAA=     0 NBB=     0.
 A-vector RMS=  9.8606766D-04 Max=  2.6502923D-03 conv= 1.00D-05.
 RLE energy=       -0.2423644048
 DE(Corr)= -0.24041491     E(CORR)=     -33.890417175     Delta=-6.01D-03
 NORM(A)=   0.10456181D+01
 Iteration Nr.   3
 **********************
 DD1Dir will call FoFMem   1 times, MxPair=        72
 NAB=    36 NAA=     0 NBB=     0.
 A-vector RMS=  3.8907672D-04 Max=  1.1708432D-03 conv= 1.00D-05.
 RLE energy=       -0.2429164176
 DE(Corr)= -0.24246657     E(CORR)=     -33.892468830     Delta=-2.05D-03
 NORM(A)=   0.10461849D+01
 Iteration Nr.   4
 **********************
 DD1Dir will call FoFMem   1 times, MxPair=        72
 NAB=    36 NAA=     0 NBB=     0.
 A-vector RMS=  9.4187178D-05 Max=  2.5311405D-04 conv= 1.00D-05.
 RLE energy=       -0.2429638491
 DE(Corr)= -0.24292750     E(CORR)=     -33.892929760     Delta=-4.61D-04
 NORM(A)=   0.10462611D+01
 Iteration Nr.   5
 **********************
 DD1Dir will call FoFMem   1 times, MxPair=        72
 NAB=    36 NAA=     0 NBB=     0.
 A-vector RMS=  4.2585680D-05 Max=  1.5478082D-04 conv= 1.00D-05.
 RLE energy=       -0.2429620380
 DE(Corr)= -0.24295996     E(CORR)=     -33.892962226     Delta=-3.25D-05
 NORM(A)=   0.10462723D+01
 Iteration Nr.   6
 **********************
 DD1Dir will call FoFMem   1 times, MxPair=        72
 NAB=    36 NAA=     0 NBB=     0.
 A-vector RMS=  1.1566329D-05 Max=  4.1128754D-05 conv= 1.00D-05.
 RLE energy=       -0.2429611495
 DE(Corr)= -0.24296218     E(CORR)=     -33.892964443     Delta=-2.22D-06
 NORM(A)=   0.10462759D+01
 Iteration Nr.   7
 **********************
 DD1Dir will call FoFMem   1 times, MxPair=        72
 NAB=    36 NAA=     0 NBB=     0.
 A-vector RMS=  3.3731086D-06 Max=  1.2168222D-05 conv= 1.00D-05.
 RLE energy=       -0.2429620804
 DE(Corr)= -0.24296153     E(CORR)=     -33.892963797     Delta= 6.46D-07
 NORM(A)=   0.10462774D+01
 Iteration Nr.   8
 **********************
 DD1Dir will call FoFMem   1 times, MxPair=        72
 NAB=    36 NAA=     0 NBB=     0.
 A-vector RMS=  5.5901880D-07 Max=  1.8609983D-06 conv= 1.00D-05.
 RLE energy=       -0.2429615833
 DE(Corr)= -0.24296159     E(CORR)=     -33.892963852     Delta=-5.49D-08
 NORM(A)=   0.10462775D+01
 CI/CC converged in    8 iterations to DelEn=-5.49D-08 Conv= 1.00D-07 ErrA1= 5.59D-07 Conv= 1.00D-05
 Wavefunction amplitudes converged. E(Corr)=     -33.892963852    
 Largest amplitude= 4.83D-02
 IPart=  3 IA=    2   12.50% done.
 IPart=  4 IA=    3   24.17% done.
 IPart=  2 IA=    4   35.00% done.
 IPart=  2 IA=    5   45.00% done.
 IPart=  3 IA=    6   54.17% done.
 IPart=  4 IA=    7   62.50% done.
 IPart=  1 IA=    8   70.00% done.
 IPart=  4 IA=   10   82.50% done.
 IPart=  3 IA=   12   91.67% done.
 Time for triples=        0.25 seconds.
 T4(CCSD)= -0.30947093D-02
 T5(CCSD)=  0.52751948D-03
 CCSD(T)= -0.33895531041D+02
 Discarding MO integrals.
 Leave Link  913 at Sun Dec 10 06:46:07 2023, MaxMem=   536870912 cpu:               0.8 elap:               0.2
 (Enter /usr/site/hpc/x86_64/glibc-2.17/broadwell/gaussian/g16_a.03/pgi-16.5/g16/l601.exe)
 Copying SCF densities to generalized density rwf, IOpCl= 0 IROHF=0.

 **********************************************************************

            Population analysis using the SCF density.

 **********************************************************************

 Orbital symmetries:
       Occupied  (A') (A') (A') (A') (A') (A') (A") (A")
       Virtual   (A') (A') (A') (A') (A") (A") (A') (A') (A') (A')
                 (A') (A') (A') (A') (A') (A')
 The electronic state is 1-A'.
 Alpha  occ. eigenvalues --   -1.34811  -1.34801  -0.70436  -0.70426  -0.54447
 Alpha  occ. eigenvalues --   -0.54432  -0.49355  -0.49346
 Alpha virt. eigenvalues --    0.20855   0.20880   0.31091   0.31101   0.81196
 Alpha virt. eigenvalues --    0.81210   0.84264   0.84554   0.87429   0.87457
 Alpha virt. eigenvalues --    1.18015   1.18025   1.22488   1.22498   2.58072
 Alpha virt. eigenvalues --    2.58090
          Condensed to atoms (all electrons):
               1          2          3          4          5          6
     1  O    6.210488   0.262021   0.262305   0.000000   0.000000   0.000000
     2  H    0.262021   0.394571  -0.023714   0.000000  -0.000000  -0.000000
     3  H    0.262305  -0.023714   0.393717   0.000000  -0.000000  -0.000000
     4  O    0.000000   0.000000   0.000000   6.210476   0.261921   0.262395
     5  H    0.000000  -0.000000  -0.000000   0.261921   0.394781  -0.023717
     6  H    0.000000  -0.000000  -0.000000   0.262395  -0.023717   0.393544
 Mulliken charges:
               1
     1  O   -0.734815
     2  H    0.367122
     3  H    0.367692
     4  O   -0.734793
     5  H    0.367015
     6  H    0.367778
 Sum of Mulliken charges =   0.00000
 Mulliken charges with hydrogens summed into heavy atoms:
               1
     1  O    0.000000
     4  O   -0.000000
 Electronic spatial extent (au):  <R**2>=            497.6504
 Charge=              0.0000 electrons
 Dipole moment (field-independent basis, Debye):
    X=             -0.3435    Y=             -0.0229    Z=              0.0000  Tot=              0.3443
 Quadrupole moment (field-independent basis, Debye-Ang):
   XX=             -8.0838   YY=             17.1250   ZZ=            -14.9861
   XY=             -0.7223   XZ=              0.0000   YZ=              0.0000
 Traceless Quadrupole moment (field-independent basis, Debye-Ang):
   XX=             -6.1022   YY=             19.1066   ZZ=            -13.0045
   XY=             -0.7223   XZ=              0.0000   YZ=              0.0000
 Octapole moment (field-independent basis, Debye-Ang**2):
  XXX=             -0.5426  YYY=             -0.1840  ZZZ=              0.0000  XYY=             -0.8774
  XXY=             -0.1633  XXZ=              0.0000  XZZ=             -0.0643  YZZ=             -0.0043
  YYZ=              0.0000  XYZ=              0.0000
 Hexadecapole moment (field-independent basis, Debye-Ang**3):
 XXXX=            -11.9929 YYYY=           -118.3144 ZZZZ=            -12.2166 XXXY=             -1.1557
 XXXZ=              0.0000 YYYX=              0.7347 YYYZ=              0.0000 ZZZX=              0.0000
 ZZZY=              0.0000 XXYY=            -54.7881 XXZZ=             -4.6195 YYZZ=           -122.4562
 XXYZ=              0.0000 YYXZ=              0.0000 ZZXY=              0.1149
 N-N= 1.942404995569D+01 E-N=-1.205571751712D+02  KE= 2.677014349107D+01
 Symmetry A'   KE= 1.788418480917D+01
 Symmetry A"   KE= 8.885958681896D+00
 Leave Link  601 at Sun Dec 10 06:46:07 2023, MaxMem=   536870912 cpu:               0.1 elap:               0.0
 (Enter /usr/site/hpc/x86_64/glibc-2.17/broadwell/gaussian/g16_a.03/pgi-16.5/g16/l9999.exe)
 1\1\GINC-N045\SP\RCCSD(T)-FC\CEP-31G\H4O2\ROOT\10-Dec-2023\0\\#p CCSD(
 T)/CEP-31G\\H2O_H2O_3677\\0,1\O,0,0.,-0.009833,0.\H,0,-0.799571,-0.580
 965,0.\H,0,0.799571,-0.580965,0.\O,0,-0.001283,5.506278,0.\H,0,0.7169,
 6.176889,0.\H,0,-0.868562,5.968159,0.\\Version=ES64L-G16RevA.03\State=
 1-A'\HF=-33.6500023\MP2=-33.8784793\MP3=-33.8839545\MP4D=-33.8891409\M
 P4DQ=-33.8898728\MP4SDQ=-33.8919053\CCSD=-33.8929639\CCSD(T)=-33.89553
 1\RMSD=1.893e-10\PG=CS [SG(H4O2)]\\@


 TERENCE, THIS IS STUPID STUFF:
 YOU EAT YOUR VICTUALS FAST ENOUGH;
 THERE CAN'T BE MUCH AMISS, 'TIS CLEAR
 TO SEE THE RATE YOU DRINK YOUR BEER.
 BUT OH, GOOD LORD, THE VERSE YOU MAKE,
 IT GIVES A CHAP THE BELLY-ACHE.
 THE COW, THE OLD COW, SHE IS DEAD;
 IT SLEEPS WELL, THE HORNED HEAD:
 WE POOR LADS, 'TIS OUR TURN NOW
 TO HEAR SUCH TUNES AS KILLED THE COW.
 PRETTY FRIENDSHIP 'TIS TO RHYME
 YOUR FRIENDS TO DEATH BEFORE THEIR TIME.
 MOPING, MELANCHOLY MAD:
 COME PIPE A TUNE TO DANCE TO, LAD.

     -- A. E. HOUSMAN
 Job cpu time:       0 days  0 hours  0 minutes  3.3 seconds.
 Elapsed time:       0 days  0 hours  0 minutes  1.0 seconds.
 File lengths (MBytes):  RWF=     72 Int=      0 D2E=      0 Chk=      8 Scr=      8
 Normal termination of Gaussian 16 at Sun Dec 10 06:46:08 2023.
