 Entering Gaussian System, Link 0=g16
 Input=H2O_H2O_3491.com
 Output=H2O_H2O_3491.log
 Initial command:
 /usr/site/hpc/x86_64/glibc-2.17/broadwell/gaussian/g16_a.03/pgi-16.5/g16/l1.exe "/gpfs/gpfs1/scratch/c7441090/OO Coord/Gau-1771427.inp" -scrdir="/gpfs/gpfs1/scratch/c7441090/OO Coord/"
 Entering Link 1 = /usr/site/hpc/x86_64/glibc-2.17/broadwell/gaussian/g16_a.03/pgi-16.5/g16/l1.exe PID=   1771428.
  
 Copyright (c) 1988,1990,1992,1993,1995,1998,2003,2009,2016,
            Gaussian, Inc.  All Rights Reserved.
  
 This is part of the Gaussian(R) 16 program.  It is based on
 the Gaussian(R) 09 system (copyright 2009, Gaussian, Inc.),
 the Gaussian(R) 03 system (copyright 2003, Gaussian, Inc.),
 the Gaussian(R) 98 system (copyright 1998, Gaussian, Inc.),
 the Gaussian(R) 94 system (copyright 1995, Gaussian, Inc.),
 the Gaussian 92(TM) system (copyright 1992, Gaussian, Inc.),
 the Gaussian 90(TM) system (copyright 1990, Gaussian, Inc.),
 the Gaussian 88(TM) system (copyright 1988, Gaussian, Inc.),
 the Gaussian 86(TM) system (copyright 1986, Carnegie Mellon
 University), and the Gaussian 82(TM) system (copyright 1983,
 Carnegie Mellon University). Gaussian is a federally registered
 trademark of Gaussian, Inc.
  
 This software contains proprietary and confidential information,
 including trade secrets, belonging to Gaussian, Inc.
  
 This software is provided under written license and may be
 used, copied, transmitted, or stored only in accord with that
 written license.
  
 The following legend is applicable only to US Government
 contracts under FAR:
  
                    RESTRICTED RIGHTS LEGEND
  
 Use, reproduction and disclosure by the US Government is
 subject to restrictions as set forth in subparagraphs (a)
 and (c) of the Commercial Computer Software - Restricted
 Rights clause in FAR 52.227-19.
  
 Gaussian, Inc.
 340 Quinnipiac St., Bldg. 40, Wallingford CT 06492
  
  
 ---------------------------------------------------------------
 Warning -- This program may not be used in any manner that
 competes with the business of Gaussian, Inc. or will provide
 assistance to any competitor of Gaussian, Inc.  The licensee
 of this program is prohibited from giving any competitor of
 Gaussian, Inc. access to this program.  By using this program,
 the user acknowledges that Gaussian, Inc. is engaged in the
 business of creating and licensing software in the field of
 computational chemistry and represents and warrants to the
 licensee that it is not a competitor of Gaussian, Inc. and that
 it will not use this program in any manner prohibited above.
 ---------------------------------------------------------------
  

 Cite this work as:
 Gaussian 16, Revision A.03,
 M. J. Frisch, G. W. Trucks, H. B. Schlegel, G. E. Scuseria, 
 M. A. Robb, J. R. Cheeseman, G. Scalmani, V. Barone, 
 G. A. Petersson, H. Nakatsuji, X. Li, M. Caricato, A. V. Marenich, 
 J. Bloino, B. G. Janesko, R. Gomperts, B. Mennucci, H. P. Hratchian, 
 J. V. Ortiz, A. F. Izmaylov, J. L. Sonnenberg, D. Williams-Young, 
 F. Ding, F. Lipparini, F. Egidi, J. Goings, B. Peng, A. Petrone, 
 T. Henderson, D. Ranasinghe, V. G. Zakrzewski, J. Gao, N. Rega, 
 G. Zheng, W. Liang, M. Hada, M. Ehara, K. Toyota, R. Fukuda, 
 J. Hasegawa, M. Ishida, T. Nakajima, Y. Honda, O. Kitao, H. Nakai, 
 T. Vreven, K. Throssell, J. A. Montgomery, Jr., J. E. Peralta, 
 F. Ogliaro, M. J. Bearpark, J. J. Heyd, E. N. Brothers, K. N. Kudin, 
 V. N. Staroverov, T. A. Keith, R. Kobayashi, J. Normand, 
 K. Raghavachari, A. P. Rendell, J. C. Burant, S. S. Iyengar, 
 J. Tomasi, M. Cossi, J. M. Millam, M. Klene, C. Adamo, R. Cammi, 
 J. W. Ochterski, R. L. Martin, K. Morokuma, O. Farkas, 
 J. B. Foresman, and D. J. Fox, Gaussian, Inc., Wallingford CT, 2016.
 
 ******************************************
 Gaussian 16:  ES64L-G16RevA.03 25-Dec-2016
                10-Dec-2023 
 ******************************************
 %NProcShared=4
 Will use up to    4 processors via shared memory.
 %Mem=4GB
 %Chk=H2O_H2O_3491.chk
 ------------------
 #p CCSD(T)/CEP-31G
 ------------------
 1/38=1,172=1/1;
 2/12=2,17=6,18=5,40=1/2;
 3/5=9,6=1,11=9,25=1,30=1/1,2,3;
 4//1;
 5/5=2,38=5/2;
 8/6=4,9=120000,10=1/1,4;
 9/5=7,14=2/13;
 6/7=2,8=2,9=2,10=2/1;
 99/5=1,9=1/99;
 Leave Link    1 at Sun Dec 10 06:42:42 2023, MaxMem=   536870912 cpu:               0.2 elap:               0.1
 (Enter /usr/site/hpc/x86_64/glibc-2.17/broadwell/gaussian/g16_a.03/pgi-16.5/g16/l101.exe)
 ------------
 H2O_H2O_3491
 ------------
 Symbolic Z-matrix:
 Charge =  0 Multiplicity = 1
 O                     0.       -0.00983   0. 
 H                    -0.79957  -0.58097   0. 
 H                     0.79957  -0.58097   0. 
 O                    -0.00852   5.28871   0. 
 H                    -0.10335   6.26673   0. 
 H                    -0.90292   4.88183   0. 
 
 ITRead=  0  0  0  0  0  0
 MicOpt= -1 -1 -1 -1 -1 -1
 NAtoms=      6 NQM=        6 NQMF=       0 NMMI=      0 NMMIF=      0
                NMic=       0 NMicF=      0.
                    Isotopes and Nuclear Properties:
 (Nuclear quadrupole moments (NQMom) in fm**2, nuclear magnetic moments (NMagM)
  in nuclear magnetons)

  Atom         1           2           3           4           5           6
 IAtWgt=          16           1           1          16           1           1
 AtmWgt=  15.9949146   1.0078250   1.0078250  15.9949146   1.0078250   1.0078250
 NucSpn=           0           1           1           0           1           1
 AtZEff=  -0.0000000  -0.0000000  -0.0000000  -0.0000000  -0.0000000  -0.0000000
 NQMom=    0.0000000   0.0000000   0.0000000   0.0000000   0.0000000   0.0000000
 NMagM=    0.0000000   2.7928460   2.7928460   0.0000000   2.7928460   2.7928460
 AtZNuc=   8.0000000   1.0000000   1.0000000   8.0000000   1.0000000   1.0000000
 Leave Link  101 at Sun Dec 10 06:42:42 2023, MaxMem=   536870912 cpu:               0.3 elap:               0.1
 (Enter /usr/site/hpc/x86_64/glibc-2.17/broadwell/gaussian/g16_a.03/pgi-16.5/g16/l202.exe)
                          Input orientation:                          
 ---------------------------------------------------------------------
 Center     Atomic      Atomic             Coordinates (Angstroms)
 Number     Number       Type             X           Y           Z
 ---------------------------------------------------------------------
      1          8           0        0.000000   -0.009833    0.000000
      2          1           0       -0.799571   -0.580965    0.000000
      3          1           0        0.799571   -0.580965    0.000000
      4          8           0       -0.008516    5.288711    0.000000
      5          1           0       -0.103345    6.266726    0.000000
      6          1           0       -0.902916    4.881828    0.000000
 ---------------------------------------------------------------------
                    Distance matrix (angstroms):
                    1          2          3          4          5
     1  O    0.000000
     2  H    0.982601   0.000000
     3  H    0.982601   1.599142   0.000000
     4  O    5.298551   5.922741   5.925040   0.000000
     5  H    6.277410   6.882994   6.906962   0.982602   0.000000
     6  H    4.974294   5.463770   5.721938   0.982601   1.599142
                    6
     6  H    0.000000
 Stoichiometry    H4O2
 Framework group  CS[SG(H4O2)]
 Deg. of freedom     9
 Full point group                 CS      NOp   2
 Largest Abelian subgroup         CS      NOp   2
 Largest concise Abelian subgroup C1      NOp   1
                         Standard orientation:                         
 ---------------------------------------------------------------------
 Center     Atomic      Atomic             Coordinates (Angstroms)
 Number     Number       Type             X           Y           Z
 ---------------------------------------------------------------------
      1          8           0        0.049507   -2.620798    0.000000
      2          1           0       -0.750981   -3.190645    0.000000
      3          1           0        0.848159   -3.193215    0.000000
      4          8           0        0.049507    2.677752    0.000000
      5          1           0       -0.043750    3.655919    0.000000
      6          1           0       -0.845546    2.272308    0.000000
 ---------------------------------------------------------------------
 Rotational constants (GHZ):         245.8607647           1.9159255           1.9011107
 Leave Link  202 at Sun Dec 10 06:42:42 2023, MaxMem=   536870912 cpu:               0.1 elap:               0.0
 (Enter /usr/site/hpc/x86_64/glibc-2.17/broadwell/gaussian/g16_a.03/pgi-16.5/g16/l301.exe)
 Standard basis: CEP-31G (6D, 10F)
 Ernie: Thresh=  0.10000D-02 Tol=  0.10000D-05 Strict=F.
 There are    20 symmetry adapted cartesian basis functions of A'  symmetry.
 There are     4 symmetry adapted cartesian basis functions of A"  symmetry.
 There are    20 symmetry adapted basis functions of A'  symmetry.
 There are     4 symmetry adapted basis functions of A"  symmetry.
    24 basis functions,    48 primitive gaussians,    24 cartesian basis functions
     8 alpha electrons        8 beta electrons
       nuclear repulsion energy        19.7412220900 Hartrees.
 IExCor=    0 DFT=F Ex=HF Corr=None ExCW=0 ScaHFX=  1.000000
 ScaDFX=  1.000000  1.000000  1.000000  1.000000 ScalE2=  1.000000  1.000000
 IRadAn=      5 IRanWt=     -1 IRanGd=            0 ICorTp=0 IEmpDi=  4
 NAtoms=    6 NActive=    6 NUniq=    6 SFac= 1.00D+00 NAtFMM=   60 NAOKFM=F Big=F
 Integral buffers will be    131072 words long.
 Raffenetti 1 integral format.
 Two-electron integral symmetry is turned on.
 Leave Link  301 at Sun Dec 10 06:42:42 2023, MaxMem=   536870912 cpu:               0.2 elap:               0.1
 (Enter /usr/site/hpc/x86_64/glibc-2.17/broadwell/gaussian/g16_a.03/pgi-16.5/g16/l302.exe)
 NPDir=0 NMtPBC=     1 NCelOv=     1 NCel=       1 NClECP=     1 NCelD=      1
         NCelK=      1 NCelE2=     1 NClLst=     1 CellRange=     0.0.
 One-electron integrals computed using PRISM.
 One-electron integral symmetry used in STVInt
   2 Symmetry operations used in ECPInt.
 ECPInt:  NShTT=      78 NPrTT=     318 LenC2=      77 LenP2D=     247.
 LDataN:  DoStor=T MaxTD1= 2 Len=   12
 NBasis=    24 RedAO= T EigKep=  3.86D-02  NBF=    20     4
 NBsUse=    24 1.00D-06 EigRej= -1.00D+00 NBFU=    20     4
 Leave Link  302 at Sun Dec 10 06:42:42 2023, MaxMem=   536870912 cpu:               0.3 elap:               0.1
 (Enter /usr/site/hpc/x86_64/glibc-2.17/broadwell/gaussian/g16_a.03/pgi-16.5/g16/l303.exe)
 DipDrv:  MaxL=1.
 Leave Link  303 at Sun Dec 10 06:42:42 2023, MaxMem=   536870912 cpu:               0.1 elap:               0.0
 (Enter /usr/site/hpc/x86_64/glibc-2.17/broadwell/gaussian/g16_a.03/pgi-16.5/g16/l401.exe)
 ExpMin= 1.78D-01 ExpMax= 1.92D+01 ExpMxC= 1.92D+01 IAcc=3 IRadAn=         5 AccDes= 0.00D+00
 Harris functional with IExCor=  205 and IRadAn=       5 diagonalized for initial guess.
 HarFok:  IExCor=  205 AccDes= 0.00D+00 IRadAn=         5 IDoV= 1 UseB2=F ITyADJ=14
 ICtDFT=  3500011 ScaDFX=  1.000000  1.000000  1.000000  1.000000
 FoFCou: FMM=F IPFlag=           0 FMFlag=      100000 FMFlg1=           0
         NFxFlg=           0 DoJE=T BraDBF=F KetDBF=T FulRan=T
         wScrn=  0.000000 ICntrl=       500 IOpCl=  0 I1Cent=   200000004 NGrid=           0
         NMat0=    1 NMatS0=      1 NMatT0=    0 NMatD0=    1 NMtDS0=    0 NMtDT0=    0
 Petite list used in FoFCou.
 Harris En= -34.4763648963951    
 JPrj=0 DoOrth=F DoCkMO=F.
 Initial guess orbital symmetries:
       Occupied  (A') (A') (A') (A') (A') (A') (A") (A")
       Virtual   (A') (A') (A') (A') (A") (A") (A') (A') (A') (A')
                 (A') (A') (A') (A') (A') (A')
 The electronic state of the initial guess is 1-A'.
 Leave Link  401 at Sun Dec 10 06:42:43 2023, MaxMem=   536870912 cpu:               0.4 elap:               0.1
 (Enter /usr/site/hpc/x86_64/glibc-2.17/broadwell/gaussian/g16_a.03/pgi-16.5/g16/l502.exe)
 Keep R1 ints in memory in symmetry-blocked form, NReq=851908.
 FoFCou: FMM=F IPFlag=           0 FMFlag=           0 FMFlg1=           0
         NFxFlg=           0 DoJE=F BraDBF=F KetDBF=F FulRan=T
         wScrn=  0.000000 ICntrl=       600 IOpCl=  0 I1Cent=           0 NGrid=           0
         NMat0=    1 NMatS0=    300 NMatT0=    0 NMatD0=    1 NMtDS0=    0 NMtDT0=    0
 Petite list used in FoFCou.
 Closed shell SCF:
 Using DIIS extrapolation, IDIIS=  1040.
 NGot=   536870912 LenX=   536840576 LenY=   536839559
 Requested convergence on RMS density matrix=1.00D-08 within 128 cycles.
 Requested convergence on MAX density matrix=1.00D-06.
 Requested convergence on             energy=1.00D-06.
 No special actions if energy rises.

 Cycle   1  Pass 1  IDiag  1:
 E= -33.5562887501585    
 DIIS: error= 6.90D-02 at cycle   1 NSaved=   1.
 NSaved= 1 IEnMin= 1 EnMin= -33.5562887501585     IErMin= 1 ErrMin= 6.90D-02
 ErrMax= 6.90D-02  0.00D+00 EMaxC= 1.00D-01 BMatC= 1.02D-01 BMatP= 1.02D-01
 IDIUse=3 WtCom= 3.10D-01 WtEn= 6.90D-01
 Coeff-Com:  0.100D+01
 Coeff-En:   0.100D+01
 Coeff:      0.100D+01
 Gap=     0.605 Goal=   None    Shift=    0.000
 GapD=    0.605 DampG=2.000 DampE=0.500 DampFc=1.0000 IDamp=-1.
 RMSDP=1.49D-02 MaxDP=1.17D-01              OVMax= 9.97D-02

 Cycle   2  Pass 1  IDiag  1:
 E= -33.6194381953492     Delta-E=       -0.063149445191 Rises=F Damp=F
 DIIS: error= 3.74D-02 at cycle   2 NSaved=   2.
 NSaved= 2 IEnMin= 2 EnMin= -33.6194381953492     IErMin= 2 ErrMin= 3.74D-02
 ErrMax= 3.74D-02  0.00D+00 EMaxC= 1.00D-01 BMatC= 3.85D-02 BMatP= 1.02D-01
 IDIUse=3 WtCom= 6.26D-01 WtEn= 3.74D-01
 Coeff-Com:  0.377D+00 0.623D+00
 Coeff-En:   0.109D+00 0.891D+00
 Coeff:      0.277D+00 0.723D+00
 Gap=     0.702 Goal=   None    Shift=    0.000
 RMSDP=6.43D-03 MaxDP=5.44D-02 DE=-6.31D-02 OVMax= 3.58D-02

 Cycle   3  Pass 1  IDiag  1:
 E= -33.6501652504039     Delta-E=       -0.030727055055 Rises=F Damp=F
 DIIS: error= 7.23D-03 at cycle   3 NSaved=   3.
 NSaved= 3 IEnMin= 3 EnMin= -33.6501652504039     IErMin= 3 ErrMin= 7.23D-03
 ErrMax= 7.23D-03  0.00D+00 EMaxC= 1.00D-01 BMatC= 9.15D-04 BMatP= 3.85D-02
 IDIUse=3 WtCom= 9.28D-01 WtEn= 7.23D-02
 Coeff-Com: -0.114D+00-0.153D-01 0.113D+01
 Coeff-En:   0.000D+00 0.000D+00 0.100D+01
 Coeff:     -0.106D+00-0.142D-01 0.112D+01
 Gap=     0.695 Goal=   None    Shift=    0.000
 RMSDP=1.09D-03 MaxDP=9.33D-03 DE=-3.07D-02 OVMax= 8.15D-03

 Cycle   4  Pass 1  IDiag  1:
 E= -33.6510797705271     Delta-E=       -0.000914520123 Rises=F Damp=F
 DIIS: error= 7.64D-04 at cycle   4 NSaved=   4.
 NSaved= 4 IEnMin= 4 EnMin= -33.6510797705271     IErMin= 4 ErrMin= 7.64D-04
 ErrMax= 7.64D-04  0.00D+00 EMaxC= 1.00D-01 BMatC= 6.04D-06 BMatP= 9.15D-04
 IDIUse=3 WtCom= 9.92D-01 WtEn= 7.64D-03
 Coeff-Com:  0.437D-01-0.180D-01-0.524D+00 0.150D+01
 Coeff-En:   0.000D+00 0.000D+00 0.000D+00 0.100D+01
 Coeff:      0.434D-01-0.179D-01-0.520D+00 0.149D+01
 Gap=     0.697 Goal=   None    Shift=    0.000
 RMSDP=2.37D-04 MaxDP=2.05D-03 DE=-9.15D-04 OVMax= 9.69D-04

 Cycle   5  Pass 1  IDiag  1:
 E= -33.6510930962473     Delta-E=       -0.000013325720 Rises=F Damp=F
 DIIS: error= 5.12D-05 at cycle   5 NSaved=   5.
 NSaved= 5 IEnMin= 5 EnMin= -33.6510930962473     IErMin= 5 ErrMin= 5.12D-05
 ErrMax= 5.12D-05  0.00D+00 EMaxC= 1.00D-01 BMatC= 4.06D-08 BMatP= 6.04D-06
 IDIUse=1 WtCom= 1.00D+00 WtEn= 0.00D+00
 Coeff-Com: -0.705D-02 0.324D-02 0.853D-01-0.293D+00 0.121D+01
 Coeff:     -0.705D-02 0.324D-02 0.853D-01-0.293D+00 0.121D+01
 Gap=     0.697 Goal=   None    Shift=    0.000
 RMSDP=1.62D-05 MaxDP=1.57D-04 DE=-1.33D-05 OVMax= 1.08D-04

 Cycle   6  Pass 1  IDiag  1:
 E= -33.6510931968758     Delta-E=       -0.000000100628 Rises=F Damp=F
 DIIS: error= 1.11D-05 at cycle   6 NSaved=   6.
 NSaved= 6 IEnMin= 6 EnMin= -33.6510931968758     IErMin= 6 ErrMin= 1.11D-05
 ErrMax= 1.11D-05  0.00D+00 EMaxC= 1.00D-01 BMatC= 2.35D-09 BMatP= 4.06D-08
 IDIUse=1 WtCom= 1.00D+00 WtEn= 0.00D+00
 Coeff-Com:  0.889D-03-0.290D-03-0.102D-01 0.419D-01-0.346D+00 0.131D+01
 Coeff:      0.889D-03-0.290D-03-0.102D-01 0.419D-01-0.346D+00 0.131D+01
 Gap=     0.697 Goal=   None    Shift=    0.000
 RMSDP=3.91D-06 MaxDP=4.25D-05 DE=-1.01D-07 OVMax= 3.64D-05

 Cycle   7  Pass 1  IDiag  1:
 E= -33.6510932030323     Delta-E=       -0.000000006157 Rises=F Damp=F
 DIIS: error= 2.53D-06 at cycle   7 NSaved=   7.
 NSaved= 7 IEnMin= 7 EnMin= -33.6510932030323     IErMin= 7 ErrMin= 2.53D-06
 ErrMax= 2.53D-06  0.00D+00 EMaxC= 1.00D-01 BMatC= 2.37D-10 BMatP= 2.35D-09
 IDIUse=1 WtCom= 1.00D+00 WtEn= 0.00D+00
 Coeff-Com:  0.639D-03-0.282D-03-0.764D-02 0.269D-01-0.129D+00 0.197D+00
 Coeff-Com:  0.913D+00
 Coeff:      0.639D-03-0.282D-03-0.764D-02 0.269D-01-0.129D+00 0.197D+00
 Coeff:      0.913D+00
 Gap=     0.697 Goal=   None    Shift=    0.000
 RMSDP=9.55D-07 MaxDP=7.50D-06 DE=-6.16D-09 OVMax= 9.24D-06

 Cycle   8  Pass 1  IDiag  1:
 E= -33.6510932034385     Delta-E=       -0.000000000406 Rises=F Damp=F
 DIIS: error= 8.86D-07 at cycle   8 NSaved=   8.
 NSaved= 8 IEnMin= 8 EnMin= -33.6510932034385     IErMin= 8 ErrMin= 8.86D-07
 ErrMax= 8.86D-07  0.00D+00 EMaxC= 1.00D-01 BMatC= 2.89D-11 BMatP= 2.37D-10
 IDIUse=1 WtCom= 1.00D+00 WtEn= 0.00D+00
 Coeff-Com:  0.564D-07-0.266D-04-0.859D-04-0.843D-03 0.321D-01-0.175D+00
 Coeff-Com:  0.108D+00 0.104D+01
 Coeff:      0.564D-07-0.266D-04-0.859D-04-0.843D-03 0.321D-01-0.175D+00
 Coeff:      0.108D+00 0.104D+01
 Gap=     0.697 Goal=   None    Shift=    0.000
 RMSDP=4.77D-07 MaxDP=3.52D-06 DE=-4.06D-10 OVMax= 3.78D-06

 Cycle   9  Pass 1  IDiag  1:
 E= -33.6510932034954     Delta-E=       -0.000000000057 Rises=F Damp=F
 DIIS: error= 1.91D-07 at cycle   9 NSaved=   9.
 NSaved= 9 IEnMin= 9 EnMin= -33.6510932034954     IErMin= 9 ErrMin= 1.91D-07
 ErrMax= 1.91D-07  0.00D+00 EMaxC= 1.00D-01 BMatC= 7.35D-13 BMatP= 2.89D-11
 IDIUse=1 WtCom= 1.00D+00 WtEn= 0.00D+00
 Coeff-Com:  0.335D-05 0.787D-05-0.379D-06 0.400D-03-0.124D-01 0.705D-01
 Coeff-Com: -0.688D-01-0.434D+00 0.144D+01
 Coeff:      0.335D-05 0.787D-05-0.379D-06 0.400D-03-0.124D-01 0.705D-01
 Coeff:     -0.688D-01-0.434D+00 0.144D+01
 Gap=     0.697 Goal=   None    Shift=    0.000
 RMSDP=1.31D-07 MaxDP=6.06D-07 DE=-5.68D-11 OVMax= 8.82D-07

 Cycle  10  Pass 1  IDiag  1:
 E= -33.6510932034974     Delta-E=       -0.000000000002 Rises=F Damp=F
 DIIS: error= 8.72D-09 at cycle  10 NSaved=  10.
 NSaved=10 IEnMin=10 EnMin= -33.6510932034974     IErMin=10 ErrMin= 8.72D-09
 ErrMax= 8.72D-09  0.00D+00 EMaxC= 1.00D-01 BMatC= 2.82D-15 BMatP= 7.35D-13
 IDIUse=1 WtCom= 1.00D+00 WtEn= 0.00D+00
 Coeff-Com:  0.124D-06-0.201D-05-0.106D-04-0.535D-04 0.265D-02-0.158D-01
 Coeff-Com:  0.159D-01 0.965D-01-0.370D+00 0.127D+01
 Coeff:      0.124D-06-0.201D-05-0.106D-04-0.535D-04 0.265D-02-0.158D-01
 Coeff:      0.159D-01 0.965D-01-0.370D+00 0.127D+01
 Gap=     0.697 Goal=   None    Shift=    0.000
 RMSDP=1.18D-08 MaxDP=5.53D-08 DE=-2.07D-12 OVMax= 6.82D-08

 Cycle  11  Pass 1  IDiag  1:
 E= -33.6510932034974     Delta-E=       -0.000000000000 Rises=F Damp=F
 DIIS: error= 3.81D-10 at cycle  11 NSaved=  11.
 NSaved=11 IEnMin=11 EnMin= -33.6510932034974     IErMin=11 ErrMin= 3.81D-10
 ErrMax= 3.81D-10  0.00D+00 EMaxC= 1.00D-01 BMatC= 4.28D-18 BMatP= 2.82D-15
 IDIUse=1 WtCom= 1.00D+00 WtEn= 0.00D+00
 Coeff-Com: -0.789D-07 0.337D-06 0.236D-05 0.656D-05-0.426D-03 0.257D-02
 Coeff-Com: -0.264D-02-0.158D-01 0.619D-01-0.233D+00 0.119D+01
 Coeff:     -0.789D-07 0.337D-06 0.236D-05 0.656D-05-0.426D-03 0.257D-02
 Coeff:     -0.264D-02-0.158D-01 0.619D-01-0.233D+00 0.119D+01
 Gap=     0.697 Goal=   None    Shift=    0.000
 RMSDP=2.51D-10 MaxDP=1.27D-09 DE=-1.42D-14 OVMax= 1.13D-09

 SCF Done:  E(RHF) =  -33.6510932035     A.U. after   11 cycles
            NFock= 11  Conv=0.25D-09     -V/T= 2.2570
 KE= 2.677140182889D+01 PE=-1.211636068062D+02 EE= 4.099988968382D+01
 Leave Link  502 at Sun Dec 10 06:42:43 2023, MaxMem=   536870912 cpu:               0.3 elap:               0.1
 (Enter /usr/site/hpc/x86_64/glibc-2.17/broadwell/gaussian/g16_a.03/pgi-16.5/g16/l801.exe)
 Windowed orbitals will be sorted by symmetry type.
 Range of M.O.s used for correlation:     1    24
 NBasis=    24 NAE=     8 NBE=     8 NFC=     0 NFV=     0
 NROrb=     24 NOA=     8 NOB=     8 NVA=    16 NVB=    16
 Leave Link  801 at Sun Dec 10 06:42:43 2023, MaxMem=   536870912 cpu:               0.1 elap:               0.0
 (Enter /usr/site/hpc/x86_64/glibc-2.17/broadwell/gaussian/g16_a.03/pgi-16.5/g16/l804.exe)
 Closed-shell transformation, MDV=   536870912 ITran=4 ISComp=2.
 Unit  1 TFree=       1025975 TCopy=        210600.
 Semi-Direct transformation.
 ModeAB=           4 MOrb=             8 LenV=     536742503
 LASXX=        22470 LTotXX=       22470 LenRXX=       48678
 LTotAB=       26208 MaxLAS=       56064 LenRXY=           0
 NonZer=       71148 LenScr=      524288 LnRSAI=       56064
 LnScr1=      524288 LExtra=           0 Total=      1153318
 MaxDsk=          -1 SrtSym=           T ITran=            4
 DoSDTr:  NPSUse=  4
 JobTyp=0 Pass  1:  I=   1 to   8.
 (rs|ai) integrals will be sorted in core.
 Complete sort for first half transformation.
 First half transformation complete.
 Complete sort for second half transformation.
 Second half transformation complete.
 Spin components of T(2) and E(2):
     alpha-alpha T2 =       0.9070902513D-02 E2=     -0.2589365960D-01
     alpha-beta  T2 =       0.5997879837D-01 E2=     -0.1766523913D+00
     beta-beta   T2 =       0.9070902513D-02 E2=     -0.2589365960D-01
 ANorm=    0.1038325866D+01
 E2 =    -0.2284397105D+00 EUMP2 =    -0.33879532913980D+02
 Leave Link  804 at Sun Dec 10 06:42:43 2023, MaxMem=   536870912 cpu:               0.2 elap:               0.1
 (Enter /usr/site/hpc/x86_64/glibc-2.17/broadwell/gaussian/g16_a.03/pgi-16.5/g16/l913.exe)
 CIDS:  MDV=   536870912.
 IFCWin=0 IBDFC=1 NFBD=     0     0 NFCmp=     0     0 NFFFC=     0     0
 Using DD3R+UMP44R for 1st iteration.
 Using DD4RQ for 2nd and later iterations.
 Keep R2 and R3 ints in memory in symmetry-blocked form, NReq=864516.
 FoFCou: FMM=F IPFlag=           0 FMFlag=           0 FMFlg1=           0
         NFxFlg=           0 DoJE=F BraDBF=F KetDBF=F FulRan=T
         wScrn=  0.000000 ICntrl=       600 IOpCl=  0 I1Cent=           0 NGrid=           0
         NMat0=    1 NMatS0=    300 NMatT0=    0 NMatD0=    1 NMtDS0=    0 NMtDT0=    0
 Petite list used in FoFCou.
 CIDS: In Core Option IDoMem=           1.
 CCSD(T)
 =======
 Iterations=  50 Convergence= 0.100D-06
 Produce multiple copies of IABC intergrals
 Iteration Nr.   1
 **********************
 DD1Dir will call FoFMem   1 times, MxPair=        72
 NAB=    36 NAA=     0 NBB=     0.
 MP4(R+Q)= -0.73674721D-03
 Maximum subspace dimension=  5
 A-vector RMS=  5.7644465D-03 Max=  1.3218379D-02 conv= 1.00D-05.
 RLE energy=       -0.2345142171
 E3=       -0.54553759D-02        EUMP3=      -0.33884988290D+02
 E4(DQ)=   -0.59151442D-02        UMP4(DQ)=   -0.33890903434D+02
 E4(SDQ)=  -0.79450261D-02        UMP4(SDQ)=  -0.33892933316D+02
 VARIATIONAL ENERGIES WITH THE FIRST-ORDER WAVEFUNCTION:
 DE(Corr)= -0.23435721     E(Corr)=     -33.885450415    
 NORM(A)=   0.10417718D+01
 Iteration Nr.   2
 **********************
 DD1Dir will call FoFMem   1 times, MxPair=        72
 NAB=    36 NAA=     0 NBB=     0.
 A-vector RMS=  9.8400242D-04 Max=  2.7362305D-03 conv= 1.00D-05.
 RLE energy=       -0.2422996878
 DE(Corr)= -0.24035312     E(CORR)=     -33.891446328     Delta=-6.00D-03
 NORM(A)=   0.10455759D+01
 Iteration Nr.   3
 **********************
 DD1Dir will call FoFMem   1 times, MxPair=        72
 NAB=    36 NAA=     0 NBB=     0.
 A-vector RMS=  3.8597883D-04 Max=  1.1629130D-03 conv= 1.00D-05.
 RLE energy=       -0.2428509598
 DE(Corr)= -0.24240216     E(CORR)=     -33.893495364     Delta=-2.05D-03
 NORM(A)=   0.10461401D+01
 Iteration Nr.   4
 **********************
 DD1Dir will call FoFMem   1 times, MxPair=        72
 NAB=    36 NAA=     0 NBB=     0.
 A-vector RMS=  9.3157986D-05 Max=  2.5080091D-04 conv= 1.00D-05.
 RLE energy=       -0.2428981092
 DE(Corr)= -0.24286196     E(CORR)=     -33.893955168     Delta=-4.60D-04
 NORM(A)=   0.10462153D+01
 Iteration Nr.   5
 **********************
 DD1Dir will call FoFMem   1 times, MxPair=        72
 NAB=    36 NAA=     0 NBB=     0.
 A-vector RMS=  4.1988110D-05 Max=  1.5308327D-04 conv= 1.00D-05.
 RLE energy=       -0.2428963169
 DE(Corr)= -0.24289427     E(CORR)=     -33.893987477     Delta=-3.23D-05
 NORM(A)=   0.10462261D+01
 Iteration Nr.   6
 **********************
 DD1Dir will call FoFMem   1 times, MxPair=        72
 NAB=    36 NAA=     0 NBB=     0.
 A-vector RMS=  1.1445145D-05 Max=  4.0804504D-05 conv= 1.00D-05.
 RLE energy=       -0.2428954465
 DE(Corr)= -0.24289646     E(CORR)=     -33.893989667     Delta=-2.19D-06
 NORM(A)=   0.10462297D+01
 Iteration Nr.   7
 **********************
 DD1Dir will call FoFMem   1 times, MxPair=        72
 NAB=    36 NAA=     0 NBB=     0.
 A-vector RMS=  3.3589899D-06 Max=  1.1984476D-05 conv= 1.00D-05.
 RLE energy=       -0.2428963711
 DE(Corr)= -0.24289583     E(CORR)=     -33.893989035     Delta= 6.32D-07
 NORM(A)=   0.10462311D+01
 Iteration Nr.   8
 **********************
 DD1Dir will call FoFMem   1 times, MxPair=        72
 NAB=    36 NAA=     0 NBB=     0.
 A-vector RMS=  5.7877290D-07 Max=  1.8446176D-06 conv= 1.00D-05.
 RLE energy=       -0.2428958770
 DE(Corr)= -0.24289588     E(CORR)=     -33.893989088     Delta=-5.31D-08
 NORM(A)=   0.10462312D+01
 CI/CC converged in    8 iterations to DelEn=-5.31D-08 Conv= 1.00D-07 ErrA1= 5.79D-07 Conv= 1.00D-05
 Wavefunction amplitudes converged. E(Corr)=     -33.893989088    
 Largest amplitude= 5.86D-02
 IPart=  4 IA=    2   12.50% done.
 IPart=  2 IA=    3   24.17% done.
 IPart=  3 IA=    4   35.00% done.
 IPart=  3 IA=    5   45.00% done.
 IPart=  2 IA=    6   54.17% done.
 IPart=  4 IA=    7   62.50% done.
 IPart=  1 IA=    8   70.00% done.
 IPart=  4 IA=   10   82.50% done.
 IPart=  3 IA=   12   91.67% done.
 Time for triples=        0.24 seconds.
 T4(CCSD)= -0.30912457D-02
 T5(CCSD)=  0.52701795D-03
 CCSD(T)= -0.33896553316D+02
 Discarding MO integrals.
 Leave Link  913 at Sun Dec 10 06:42:43 2023, MaxMem=   536870912 cpu:               0.8 elap:               0.2
 (Enter /usr/site/hpc/x86_64/glibc-2.17/broadwell/gaussian/g16_a.03/pgi-16.5/g16/l601.exe)
 Copying SCF densities to generalized density rwf, IOpCl= 0 IROHF=0.

 **********************************************************************

            Population analysis using the SCF density.

 **********************************************************************

 Orbital symmetries:
       Occupied  (A') (A') (A') (A') (A') (A') (A") (A")
       Virtual   (A') (A') (A') (A') (A") (A") (A') (A') (A') (A')
                 (A') (A') (A') (A') (A') (A')
 The electronic state is 1-A'.
 Alpha  occ. eigenvalues --   -1.35292  -1.34675  -0.70922  -0.70288  -0.54988
 Alpha  occ. eigenvalues --   -0.54366  -0.49853  -0.49238
 Alpha virt. eigenvalues --    0.20434   0.21078   0.30677   0.31289   0.80701
 Alpha virt. eigenvalues --    0.81305   0.83720   0.84458   0.86875   0.87612
 Alpha virt. eigenvalues --    1.17581   1.18192   1.22044   1.22664   2.57611
 Alpha virt. eigenvalues --    2.58225
          Condensed to atoms (all electrons):
               1          2          3          4          5          6
     1  O    6.212866   0.261884   0.263962   0.000000   0.000000   0.000001
     2  H    0.261884   0.394421  -0.023608   0.000000  -0.000000  -0.000000
     3  H    0.263962  -0.023608   0.388234   0.000000  -0.000000  -0.000000
     4  O    0.000000   0.000000   0.000000   6.212674   0.260990   0.264276
     5  H    0.000000  -0.000000  -0.000000   0.260990   0.397401  -0.023701
     6  H    0.000001  -0.000000  -0.000000   0.264276  -0.023701   0.386796
 Mulliken charges:
               1
     1  O   -0.738713
     2  H    0.367303
     3  H    0.371411
     4  O   -0.737940
     5  H    0.365310
     6  H    0.372628
 Sum of Mulliken charges =   0.00000
 Mulliken charges with hydrogens summed into heavy atoms:
               1
     1  O    0.000001
     4  O   -0.000001
 Electronic spatial extent (au):  <R**2>=            457.5566
 Charge=              0.0000 electrons
 Dipole moment (field-independent basis, Debye):
    X=             -2.2796    Y=             -1.3415    Z=              0.0000  Tot=              2.6450
 Quadrupole moment (field-independent basis, Debye-Ang):
   XX=             -9.6285   YY=             10.4005   ZZ=            -14.9879
   XY=             -5.4420   XZ=              0.0000   YZ=              0.0000
 Traceless Quadrupole moment (field-independent basis, Debye-Ang):
   XX=             -4.8898   YY=             15.1391   ZZ=            -10.2493
   XY=             -5.4420   XZ=              0.0000   YZ=              0.0000
 Octapole moment (field-independent basis, Debye-Ang**2):
  XXX=             -1.7505  YYY=            -15.0617  ZZZ=              0.0000  XYY=            -11.5569
  XXY=             -6.1637  XXZ=              0.0000  XZZ=             -0.4272  YZZ=             -0.2556
  YYZ=              0.0000  XYZ=              0.0000
 Hexadecapole moment (field-independent basis, Debye-Ang**3):
 XXXX=            -12.1890 YYYY=           -152.1295 ZZZZ=            -12.2199 XXXY=             -1.3965
 XXXZ=              0.0000 YYYX=            -28.9871 YYYZ=              0.0000 ZZZX=              0.0000
 ZZZY=              0.0000 XXYY=            -70.3603 XXZZ=             -4.5556 YYZZ=           -112.6224
 XXYZ=              0.0000 YYXZ=              0.0000 ZZXY=              0.7656
 N-N= 1.974122209001D+01 E-N=-1.211636068110D+02  KE= 2.677140182889D+01
 Symmetry A'   KE= 1.788727328294D+01
 Symmetry A"   KE= 8.884128545949D+00
 Leave Link  601 at Sun Dec 10 06:42:43 2023, MaxMem=   536870912 cpu:               0.1 elap:               0.0
 (Enter /usr/site/hpc/x86_64/glibc-2.17/broadwell/gaussian/g16_a.03/pgi-16.5/g16/l9999.exe)
 1\1\GINC-N045\SP\RCCSD(T)-FC\CEP-31G\H4O2\ROOT\10-Dec-2023\0\\#p CCSD(
 T)/CEP-31G\\H2O_H2O_3491\\0,1\O,0,0.,-0.009833,0.\H,0,-0.799571,-0.580
 965,0.\H,0,0.799571,-0.580965,0.\O,0,-0.008516,5.288711,0.\H,0,-0.1033
 45,6.266726,0.\H,0,-0.902916,4.881828,0.\\Version=ES64L-G16RevA.03\Sta
 te=1-A'\HF=-33.6510932\MP2=-33.8795329\MP3=-33.8849883\MP4D=-33.890166
 7\MP4DQ=-33.8909034\MP4SDQ=-33.8929333\CCSD=-33.8939891\CCSD(T)=-33.89
 65533\RMSD=2.513e-10\PG=CS [SG(H4O2)]\\@


 IN THE LONG RUN, DIGGING FOR TRUTH HAS ALWAYS PROVED NOT ONLY 
 MORE INTERESTING BUT MORE PROFITABLE THAN DIGGING FOR GOLD.

                             -- GEORGE R. HARRISON
 Job cpu time:       0 days  0 hours  0 minutes  3.2 seconds.
 Elapsed time:       0 days  0 hours  0 minutes  1.0 seconds.
 File lengths (MBytes):  RWF=     72 Int=      0 D2E=      0 Chk=      8 Scr=      8
 Normal termination of Gaussian 16 at Sun Dec 10 06:42:43 2023.
