 Entering Gaussian System, Link 0=g16
 Input=H2O_H2O_1424.com
 Output=H2O_H2O_1424.log
 Initial command:
 /usr/site/hpc/x86_64/glibc-2.17/broadwell/gaussian/g16_a.03/pgi-16.5/g16/l1.exe "/gpfs/gpfs1/scratch/c7441090/OO Coord/Gau-1286714.inp" -scrdir="/gpfs/gpfs1/scratch/c7441090/OO Coord/"
 Entering Link 1 = /usr/site/hpc/x86_64/glibc-2.17/broadwell/gaussian/g16_a.03/pgi-16.5/g16/l1.exe PID=   1286715.
  
 Copyright (c) 1988,1990,1992,1993,1995,1998,2003,2009,2016,
            Gaussian, Inc.  All Rights Reserved.
  
 This is part of the Gaussian(R) 16 program.  It is based on
 the Gaussian(R) 09 system (copyright 2009, Gaussian, Inc.),
 the Gaussian(R) 03 system (copyright 2003, Gaussian, Inc.),
 the Gaussian(R) 98 system (copyright 1998, Gaussian, Inc.),
 the Gaussian(R) 94 system (copyright 1995, Gaussian, Inc.),
 the Gaussian 92(TM) system (copyright 1992, Gaussian, Inc.),
 the Gaussian 90(TM) system (copyright 1990, Gaussian, Inc.),
 the Gaussian 88(TM) system (copyright 1988, Gaussian, Inc.),
 the Gaussian 86(TM) system (copyright 1986, Carnegie Mellon
 University), and the Gaussian 82(TM) system (copyright 1983,
 Carnegie Mellon University). Gaussian is a federally registered
 trademark of Gaussian, Inc.
  
 This software contains proprietary and confidential information,
 including trade secrets, belonging to Gaussian, Inc.
  
 This software is provided under written license and may be
 used, copied, transmitted, or stored only in accord with that
 written license.
  
 The following legend is applicable only to US Government
 contracts under FAR:
  
                    RESTRICTED RIGHTS LEGEND
  
 Use, reproduction and disclosure by the US Government is
 subject to restrictions as set forth in subparagraphs (a)
 and (c) of the Commercial Computer Software - Restricted
 Rights clause in FAR 52.227-19.
  
 Gaussian, Inc.
 340 Quinnipiac St., Bldg. 40, Wallingford CT 06492
  
  
 ---------------------------------------------------------------
 Warning -- This program may not be used in any manner that
 competes with the business of Gaussian, Inc. or will provide
 assistance to any competitor of Gaussian, Inc.  The licensee
 of this program is prohibited from giving any competitor of
 Gaussian, Inc. access to this program.  By using this program,
 the user acknowledges that Gaussian, Inc. is engaged in the
 business of creating and licensing software in the field of
 computational chemistry and represents and warrants to the
 licensee that it is not a competitor of Gaussian, Inc. and that
 it will not use this program in any manner prohibited above.
 ---------------------------------------------------------------
  

 Cite this work as:
 Gaussian 16, Revision A.03,
 M. J. Frisch, G. W. Trucks, H. B. Schlegel, G. E. Scuseria, 
 M. A. Robb, J. R. Cheeseman, G. Scalmani, V. Barone, 
 G. A. Petersson, H. Nakatsuji, X. Li, M. Caricato, A. V. Marenich, 
 J. Bloino, B. G. Janesko, R. Gomperts, B. Mennucci, H. P. Hratchian, 
 J. V. Ortiz, A. F. Izmaylov, J. L. Sonnenberg, D. Williams-Young, 
 F. Ding, F. Lipparini, F. Egidi, J. Goings, B. Peng, A. Petrone, 
 T. Henderson, D. Ranasinghe, V. G. Zakrzewski, J. Gao, N. Rega, 
 G. Zheng, W. Liang, M. Hada, M. Ehara, K. Toyota, R. Fukuda, 
 J. Hasegawa, M. Ishida, T. Nakajima, Y. Honda, O. Kitao, H. Nakai, 
 T. Vreven, K. Throssell, J. A. Montgomery, Jr., J. E. Peralta, 
 F. Ogliaro, M. J. Bearpark, J. J. Heyd, E. N. Brothers, K. N. Kudin, 
 V. N. Staroverov, T. A. Keith, R. Kobayashi, J. Normand, 
 K. Raghavachari, A. P. Rendell, J. C. Burant, S. S. Iyengar, 
 J. Tomasi, M. Cossi, J. M. Millam, M. Klene, C. Adamo, R. Cammi, 
 J. W. Ochterski, R. L. Martin, K. Morokuma, O. Farkas, 
 J. B. Foresman, and D. J. Fox, Gaussian, Inc., Wallingford CT, 2016.
 
 ******************************************
 Gaussian 16:  ES64L-G16RevA.03 25-Dec-2016
                10-Dec-2023 
 ******************************************
 %NProcShared=4
 Will use up to    4 processors via shared memory.
 %Mem=4GB
 %Chk=H2O_H2O_1424.chk
 ------------------
 #p CCSD(T)/CEP-31G
 ------------------
 1/38=1,172=1/1;
 2/12=2,17=6,18=5,40=1/2;
 3/5=9,6=1,11=9,25=1,30=1/1,2,3;
 4//1;
 5/5=2,38=5/2;
 8/6=4,9=120000,10=1/1,4;
 9/5=7,14=2/13;
 6/7=2,8=2,9=2,10=2/1;
 99/5=1,9=1/99;
 Leave Link    1 at Sun Dec 10 06:51:21 2023, MaxMem=   536870912 cpu:               0.2 elap:               0.1
 (Enter /usr/site/hpc/x86_64/glibc-2.17/broadwell/gaussian/g16_a.03/pgi-16.5/g16/l101.exe)
 ------------
 H2O_H2O_1424
 ------------
 Symbolic Z-matrix:
 Charge =  0 Multiplicity = 1
 O                     0.       -0.00983   0. 
 H                    -0.79957  -0.58097   0. 
 H                     0.79957  -0.58097   0. 
 O                    -0.00983   3.07667   0. 
 H                    -0.58097   3.87625   0. 
 H                    -0.58097   2.2771    0. 
 
 ITRead=  0  0  0  0  0  0
 MicOpt= -1 -1 -1 -1 -1 -1
 NAtoms=      6 NQM=        6 NQMF=       0 NMMI=      0 NMMIF=      0
                NMic=       0 NMicF=      0.
                    Isotopes and Nuclear Properties:
 (Nuclear quadrupole moments (NQMom) in fm**2, nuclear magnetic moments (NMagM)
  in nuclear magnetons)

  Atom         1           2           3           4           5           6
 IAtWgt=          16           1           1          16           1           1
 AtmWgt=  15.9949146   1.0078250   1.0078250  15.9949146   1.0078250   1.0078250
 NucSpn=           0           1           1           0           1           1
 AtZEff=  -0.0000000  -0.0000000  -0.0000000  -0.0000000  -0.0000000  -0.0000000
 NQMom=    0.0000000   0.0000000   0.0000000   0.0000000   0.0000000   0.0000000
 NMagM=    0.0000000   2.7928460   2.7928460   0.0000000   2.7928460   2.7928460
 AtZNuc=   8.0000000   1.0000000   1.0000000   8.0000000   1.0000000   1.0000000
 Leave Link  101 at Sun Dec 10 06:51:21 2023, MaxMem=   536870912 cpu:               0.3 elap:               0.1
 (Enter /usr/site/hpc/x86_64/glibc-2.17/broadwell/gaussian/g16_a.03/pgi-16.5/g16/l202.exe)
                          Input orientation:                          
 ---------------------------------------------------------------------
 Center     Atomic      Atomic             Coordinates (Angstroms)
 Number     Number       Type             X           Y           Z
 ---------------------------------------------------------------------
      1          8           0        0.000000   -0.009833    0.000000
      2          1           0       -0.799571   -0.580965    0.000000
      3          1           0        0.799571   -0.580965    0.000000
      4          8           0       -0.009833    3.076673    0.000000
      5          1           0       -0.580965    3.876245    0.000000
      6          1           0       -0.580965    2.277102    0.000000
 ---------------------------------------------------------------------
                    Distance matrix (angstroms):
                    1          2          3          4          5
     1  O    0.000000
     2  H    0.982601   0.000000
     3  H    0.982601   1.599142   0.000000
     4  O    3.086522   3.741925   3.746125   0.000000
     5  H    3.929265   4.462568   4.666112   0.982602   0.000000
     6  H    2.359575   2.866415   3.174024   0.982601   1.599143
                    6
     6  H    0.000000
 Stoichiometry    H4O2
 Framework group  CS[SG(H4O2)]
 Deg. of freedom     9
 Full point group                 CS      NOp   2
 Largest Abelian subgroup         CS      NOp   2
 Largest concise Abelian subgroup C1      NOp   1
                         Standard orientation:                         
 ---------------------------------------------------------------------
 Center     Atomic      Atomic             Coordinates (Angstroms)
 Number     Number       Type             X           Y           Z
 ---------------------------------------------------------------------
      1          8           0        0.057295   -1.486330    0.000000
      2          1           0       -0.744092   -2.054912    0.000000
      3          1           0        0.855042   -2.060006    0.000000
      4          8           0        0.057295    1.600192    0.000000
      5          1           0       -0.511287    2.401579    0.000000
      6          1           0       -0.516382    0.802444    0.000000
 ---------------------------------------------------------------------
 Rotational constants (GHZ):         269.8897736           5.5353364           5.4240904
 Leave Link  202 at Sun Dec 10 06:51:21 2023, MaxMem=   536870912 cpu:               0.0 elap:               0.0
 (Enter /usr/site/hpc/x86_64/glibc-2.17/broadwell/gaussian/g16_a.03/pgi-16.5/g16/l301.exe)
 Standard basis: CEP-31G (6D, 10F)
 Ernie: Thresh=  0.10000D-02 Tol=  0.10000D-05 Strict=F.
 There are    20 symmetry adapted cartesian basis functions of A'  symmetry.
 There are     4 symmetry adapted cartesian basis functions of A"  symmetry.
 There are    20 symmetry adapted basis functions of A'  symmetry.
 There are     4 symmetry adapted basis functions of A"  symmetry.
    24 basis functions,    48 primitive gaussians,    24 cartesian basis functions
     8 alpha electrons        8 beta electrons
       nuclear repulsion energy        24.1921326095 Hartrees.
 IExCor=    0 DFT=F Ex=HF Corr=None ExCW=0 ScaHFX=  1.000000
 ScaDFX=  1.000000  1.000000  1.000000  1.000000 ScalE2=  1.000000  1.000000
 IRadAn=      5 IRanWt=     -1 IRanGd=            0 ICorTp=0 IEmpDi=  4
 NAtoms=    6 NActive=    6 NUniq=    6 SFac= 1.00D+00 NAtFMM=   60 NAOKFM=F Big=F
 Integral buffers will be    131072 words long.
 Raffenetti 1 integral format.
 Two-electron integral symmetry is turned on.
 Leave Link  301 at Sun Dec 10 06:51:21 2023, MaxMem=   536870912 cpu:               0.2 elap:               0.1
 (Enter /usr/site/hpc/x86_64/glibc-2.17/broadwell/gaussian/g16_a.03/pgi-16.5/g16/l302.exe)
 NPDir=0 NMtPBC=     1 NCelOv=     1 NCel=       1 NClECP=     1 NCelD=      1
         NCelK=      1 NCelE2=     1 NClLst=     1 CellRange=     0.0.
 One-electron integrals computed using PRISM.
 One-electron integral symmetry used in STVInt
   2 Symmetry operations used in ECPInt.
 ECPInt:  NShTT=      78 NPrTT=     318 LenC2=      79 LenP2D=     286.
 LDataN:  DoStor=T MaxTD1= 2 Len=   12
 NBasis=    24 RedAO= T EigKep=  3.14D-02  NBF=    20     4
 NBsUse=    24 1.00D-06 EigRej= -1.00D+00 NBFU=    20     4
 Leave Link  302 at Sun Dec 10 06:51:21 2023, MaxMem=   536870912 cpu:               0.3 elap:               0.1
 (Enter /usr/site/hpc/x86_64/glibc-2.17/broadwell/gaussian/g16_a.03/pgi-16.5/g16/l303.exe)
 DipDrv:  MaxL=1.
 Leave Link  303 at Sun Dec 10 06:51:21 2023, MaxMem=   536870912 cpu:               0.1 elap:               0.0
 (Enter /usr/site/hpc/x86_64/glibc-2.17/broadwell/gaussian/g16_a.03/pgi-16.5/g16/l401.exe)
 ExpMin= 1.78D-01 ExpMax= 1.92D+01 ExpMxC= 1.92D+01 IAcc=3 IRadAn=         5 AccDes= 0.00D+00
 Harris functional with IExCor=  205 and IRadAn=       5 diagonalized for initial guess.
 HarFok:  IExCor=  205 AccDes= 0.00D+00 IRadAn=         5 IDoV= 1 UseB2=F ITyADJ=14
 ICtDFT=  3500011 ScaDFX=  1.000000  1.000000  1.000000  1.000000
 FoFCou: FMM=F IPFlag=           0 FMFlag=      100000 FMFlg1=           0
         NFxFlg=           0 DoJE=T BraDBF=F KetDBF=T FulRan=T
         wScrn=  0.000000 ICntrl=       500 IOpCl=  0 I1Cent=   200000004 NGrid=           0
         NMat0=    1 NMatS0=      1 NMatT0=    0 NMatD0=    1 NMtDS0=    0 NMtDT0=    0
 Petite list used in FoFCou.
 Harris En= -34.4797164664274    
 JPrj=0 DoOrth=F DoCkMO=F.
 Initial guess orbital symmetries:
       Occupied  (A') (A') (A') (A') (A') (A') (A") (A")
       Virtual   (A') (A') (A') (A') (A') (A") (A") (A') (A') (A')
                 (A') (A') (A') (A') (A') (A')
 The electronic state of the initial guess is 1-A'.
 Leave Link  401 at Sun Dec 10 06:51:21 2023, MaxMem=   536870912 cpu:               0.4 elap:               0.1
 (Enter /usr/site/hpc/x86_64/glibc-2.17/broadwell/gaussian/g16_a.03/pgi-16.5/g16/l502.exe)
 Keep R1 ints in memory in symmetry-blocked form, NReq=852510.
 FoFCou: FMM=F IPFlag=           0 FMFlag=           0 FMFlg1=           0
         NFxFlg=           0 DoJE=F BraDBF=F KetDBF=F FulRan=T
         wScrn=  0.000000 ICntrl=       600 IOpCl=  0 I1Cent=           0 NGrid=           0
         NMat0=    1 NMatS0=    300 NMatT0=    0 NMatD0=    1 NMtDS0=    0 NMtDT0=    0
 Petite list used in FoFCou.
 Closed shell SCF:
 Using DIIS extrapolation, IDIIS=  1040.
 NGot=   536870912 LenX=   536840576 LenY=   536839559
 Requested convergence on RMS density matrix=1.00D-08 within 128 cycles.
 Requested convergence on MAX density matrix=1.00D-06.
 Requested convergence on             energy=1.00D-06.
 No special actions if energy rises.

 Cycle   1  Pass 1  IDiag  1:
 E= -33.5643062337716    
 DIIS: error= 6.62D-02 at cycle   1 NSaved=   1.
 NSaved= 1 IEnMin= 1 EnMin= -33.5643062337716     IErMin= 1 ErrMin= 6.62D-02
 ErrMax= 6.62D-02  0.00D+00 EMaxC= 1.00D-01 BMatC= 9.87D-02 BMatP= 9.87D-02
 IDIUse=3 WtCom= 3.38D-01 WtEn= 6.62D-01
 Coeff-Com:  0.100D+01
 Coeff-En:   0.100D+01
 Coeff:      0.100D+01
 Gap=     0.586 Goal=   None    Shift=    0.000
 GapD=    0.586 DampG=2.000 DampE=0.500 DampFc=1.0000 IDamp=-1.
 RMSDP=1.48D-02 MaxDP=1.18D-01              OVMax= 9.88D-02

 Cycle   2  Pass 1  IDiag  1:
 E= -33.6255117879154     Delta-E=       -0.061205554144 Rises=F Damp=F
 DIIS: error= 3.62D-02 at cycle   2 NSaved=   2.
 NSaved= 2 IEnMin= 2 EnMin= -33.6255117879154     IErMin= 2 ErrMin= 3.62D-02
 ErrMax= 3.62D-02  0.00D+00 EMaxC= 1.00D-01 BMatC= 3.62D-02 BMatP= 9.87D-02
 IDIUse=3 WtCom= 6.38D-01 WtEn= 3.62D-01
 Coeff-Com:  0.375D+00 0.625D+00
 Coeff-En:   0.973D-01 0.903D+00
 Coeff:      0.274D+00 0.726D+00
 Gap=     0.665 Goal=   None    Shift=    0.000
 RMSDP=6.27D-03 MaxDP=5.42D-02 DE=-6.12D-02 OVMax= 3.55D-02

 Cycle   3  Pass 1  IDiag  1:
 E= -33.6543923594124     Delta-E=       -0.028880571497 Rises=F Damp=F
 DIIS: error= 6.99D-03 at cycle   3 NSaved=   3.
 NSaved= 3 IEnMin= 3 EnMin= -33.6543923594124     IErMin= 3 ErrMin= 6.99D-03
 ErrMax= 6.99D-03  0.00D+00 EMaxC= 1.00D-01 BMatC= 8.90D-04 BMatP= 3.62D-02
 IDIUse=3 WtCom= 9.30D-01 WtEn= 6.99D-02
 Coeff-Com: -0.110D+00-0.987D-02 0.112D+01
 Coeff-En:   0.000D+00 0.000D+00 0.100D+01
 Coeff:     -0.103D+00-0.918D-02 0.111D+01
 Gap=     0.658 Goal=   None    Shift=    0.000
 RMSDP=1.10D-03 MaxDP=9.13D-03 DE=-2.89D-02 OVMax= 7.86D-03

 Cycle   4  Pass 1  IDiag  1:
 E= -33.6552728150956     Delta-E=       -0.000880455683 Rises=F Damp=F
 DIIS: error= 7.12D-04 at cycle   4 NSaved=   4.
 NSaved= 4 IEnMin= 4 EnMin= -33.6552728150956     IErMin= 4 ErrMin= 7.12D-04
 ErrMax= 7.12D-04  0.00D+00 EMaxC= 1.00D-01 BMatC= 5.72D-06 BMatP= 8.90D-04
 IDIUse=3 WtCom= 9.93D-01 WtEn= 7.12D-03
 Coeff-Com:  0.395D-01-0.196D-01-0.487D+00 0.147D+01
 Coeff-En:   0.000D+00 0.000D+00 0.000D+00 0.100D+01
 Coeff:      0.392D-01-0.194D-01-0.484D+00 0.146D+01
 Gap=     0.660 Goal=   None    Shift=    0.000
 RMSDP=2.33D-04 MaxDP=1.99D-03 DE=-8.80D-04 OVMax= 1.13D-03

 Cycle   5  Pass 1  IDiag  1:
 E= -33.6552854759156     Delta-E=       -0.000012660820 Rises=F Damp=F
 DIIS: error= 6.14D-05 at cycle   5 NSaved=   5.
 NSaved= 5 IEnMin= 5 EnMin= -33.6552854759156     IErMin= 5 ErrMin= 6.14D-05
 ErrMax= 6.14D-05  0.00D+00 EMaxC= 1.00D-01 BMatC= 7.65D-08 BMatP= 5.72D-06
 IDIUse=1 WtCom= 1.00D+00 WtEn= 0.00D+00
 Coeff-Com:  0.602D-03 0.251D-03-0.588D-02-0.483D-01 0.105D+01
 Coeff:      0.602D-03 0.251D-03-0.588D-02-0.483D-01 0.105D+01
 Gap=     0.660 Goal=   None    Shift=    0.000
 RMSDP=1.95D-05 MaxDP=2.08D-04 DE=-1.27D-05 OVMax= 1.48D-04

 Cycle   6  Pass 1  IDiag  1:
 E= -33.6552856094396     Delta-E=       -0.000000133524 Rises=F Damp=F
 DIIS: error= 1.99D-05 at cycle   6 NSaved=   6.
 NSaved= 6 IEnMin= 6 EnMin= -33.6552856094396     IErMin= 6 ErrMin= 1.99D-05
 ErrMax= 1.99D-05  0.00D+00 EMaxC= 1.00D-01 BMatC= 1.47D-08 BMatP= 7.65D-08
 IDIUse=1 WtCom= 1.00D+00 WtEn= 0.00D+00
 Coeff-Com: -0.342D-02 0.174D-02 0.422D-01-0.143D+00 0.284D+00 0.818D+00
 Coeff:     -0.342D-02 0.174D-02 0.422D-01-0.143D+00 0.284D+00 0.818D+00
 Gap=     0.660 Goal=   None    Shift=    0.000
 RMSDP=5.46D-06 MaxDP=6.06D-05 DE=-1.34D-07 OVMax= 4.80D-05

 Cycle   7  Pass 1  IDiag  1:
 E= -33.6552856278166     Delta-E=       -0.000000018377 Rises=F Damp=F
 DIIS: error= 4.87D-06 at cycle   7 NSaved=   7.
 NSaved= 7 IEnMin= 7 EnMin= -33.6552856278166     IErMin= 7 ErrMin= 4.87D-06
 ErrMax= 4.87D-06  0.00D+00 EMaxC= 1.00D-01 BMatC= 6.34D-10 BMatP= 1.47D-08
 IDIUse=1 WtCom= 1.00D+00 WtEn= 0.00D+00
 Coeff-Com:  0.926D-03-0.422D-03-0.111D-01 0.416D-01-0.150D+00-0.222D+00
 Coeff-Com:  0.134D+01
 Coeff:      0.926D-03-0.422D-03-0.111D-01 0.416D-01-0.150D+00-0.222D+00
 Coeff:      0.134D+01
 Gap=     0.660 Goal=   None    Shift=    0.000
 RMSDP=2.25D-06 MaxDP=2.35D-05 DE=-1.84D-08 OVMax= 2.10D-05

 Cycle   8  Pass 1  IDiag  1:
 E= -33.6552856295467     Delta-E=       -0.000000001730 Rises=F Damp=F
 DIIS: error= 1.01D-06 at cycle   8 NSaved=   8.
 NSaved= 8 IEnMin= 8 EnMin= -33.6552856295467     IErMin= 8 ErrMin= 1.01D-06
 ErrMax= 1.01D-06  0.00D+00 EMaxC= 1.00D-01 BMatC= 2.46D-11 BMatP= 6.34D-10
 IDIUse=1 WtCom= 1.00D+00 WtEn= 0.00D+00
 Coeff-Com:  0.116D-04-0.373D-04-0.266D-03 0.109D-03 0.163D-01-0.216D-02
 Coeff-Com: -0.276D+00 0.126D+01
 Coeff:      0.116D-04-0.373D-04-0.266D-03 0.109D-03 0.163D-01-0.216D-02
 Coeff:     -0.276D+00 0.126D+01
 Gap=     0.660 Goal=   None    Shift=    0.000
 RMSDP=5.06D-07 MaxDP=4.00D-06 DE=-1.73D-09 OVMax= 4.30D-06

 Cycle   9  Pass 1  IDiag  1:
 E= -33.6552856296140     Delta-E=       -0.000000000067 Rises=F Damp=F
 DIIS: error= 1.81D-07 at cycle   9 NSaved=   9.
 NSaved= 9 IEnMin= 9 EnMin= -33.6552856296140     IErMin= 9 ErrMin= 1.81D-07
 ErrMax= 1.81D-07  0.00D+00 EMaxC= 1.00D-01 BMatC= 7.75D-13 BMatP= 2.46D-11
 IDIUse=1 WtCom= 1.00D+00 WtEn= 0.00D+00
 Coeff-Com:  0.216D-05 0.981D-05 0.252D-04 0.914D-04-0.542D-02 0.115D-02
 Coeff-Com:  0.941D-01-0.511D+00 0.142D+01
 Coeff:      0.216D-05 0.981D-05 0.252D-04 0.914D-04-0.542D-02 0.115D-02
 Coeff:      0.941D-01-0.511D+00 0.142D+01
 Gap=     0.660 Goal=   None    Shift=    0.000
 RMSDP=1.28D-07 MaxDP=6.06D-07 DE=-6.74D-11 OVMax= 8.92D-07

 Cycle  10  Pass 1  IDiag  1:
 E= -33.6552856296162     Delta-E=       -0.000000000002 Rises=F Damp=F
 DIIS: error= 1.42D-08 at cycle  10 NSaved=  10.
 NSaved=10 IEnMin=10 EnMin= -33.6552856296162     IErMin=10 ErrMin= 1.42D-08
 ErrMax= 1.42D-08  0.00D+00 EMaxC= 1.00D-01 BMatC= 8.87D-15 BMatP= 7.75D-13
 IDIUse=1 WtCom= 1.00D+00 WtEn= 0.00D+00
 Coeff-Com:  0.451D-06-0.239D-05-0.159D-04 0.303D-04 0.922D-03-0.510D-03
 Coeff-Com: -0.182D-01 0.106D+00-0.382D+00 0.129D+01
 Coeff:      0.451D-06-0.239D-05-0.159D-04 0.303D-04 0.922D-03-0.510D-03
 Coeff:     -0.182D-01 0.106D+00-0.382D+00 0.129D+01
 Gap=     0.660 Goal=   None    Shift=    0.000
 RMSDP=1.67D-08 MaxDP=8.71D-08 DE=-2.20D-12 OVMax= 1.08D-07

 Cycle  11  Pass 1  IDiag  1:
 E= -33.6552856296163     Delta-E=       -0.000000000000 Rises=F Damp=F
 DIIS: error= 1.59D-09 at cycle  11 NSaved=  11.
 NSaved=11 IEnMin=11 EnMin= -33.6552856296163     IErMin=11 ErrMin= 1.59D-09
 ErrMax= 1.59D-09  0.00D+00 EMaxC= 1.00D-01 BMatC= 5.07D-17 BMatP= 8.87D-15
 IDIUse=1 WtCom= 1.00D+00 WtEn= 0.00D+00
 Coeff-Com: -0.125D-06 0.545D-06 0.381D-05-0.798D-05-0.212D-03 0.129D-03
 Coeff-Com:  0.420D-02-0.250D-01 0.910D-01-0.344D+00 0.127D+01
 Coeff:     -0.125D-06 0.545D-06 0.381D-05-0.798D-05-0.212D-03 0.129D-03
 Coeff:      0.420D-02-0.250D-01 0.910D-01-0.344D+00 0.127D+01
 Gap=     0.660 Goal=   None    Shift=    0.000
 RMSDP=1.03D-09 MaxDP=4.91D-09 DE=-8.53D-14 OVMax= 7.25D-09

 SCF Done:  E(RHF) =  -33.6552856296     A.U. after   11 cycles
            NFock= 11  Conv=0.10D-08     -V/T= 2.2565
 KE= 2.678429142000D+01 PE=-1.301466608462D+02 EE= 4.551495118715D+01
 Leave Link  502 at Sun Dec 10 06:51:21 2023, MaxMem=   536870912 cpu:               0.3 elap:               0.1
 (Enter /usr/site/hpc/x86_64/glibc-2.17/broadwell/gaussian/g16_a.03/pgi-16.5/g16/l801.exe)
 Windowed orbitals will be sorted by symmetry type.
 Range of M.O.s used for correlation:     1    24
 NBasis=    24 NAE=     8 NBE=     8 NFC=     0 NFV=     0
 NROrb=     24 NOA=     8 NOB=     8 NVA=    16 NVB=    16
 Leave Link  801 at Sun Dec 10 06:51:21 2023, MaxMem=   536870912 cpu:               0.1 elap:               0.0
 (Enter /usr/site/hpc/x86_64/glibc-2.17/broadwell/gaussian/g16_a.03/pgi-16.5/g16/l804.exe)
 Closed-shell transformation, MDV=   536870912 ITran=4 ISComp=2.
 Unit  1 TFree=       1025975 TCopy=        210600.
 Semi-Direct transformation.
 ModeAB=           2 MOrb=             8 LenV=     536741760
 LASXX=        22470 LTotXX=       22470 LenRXX=       22470
 LTotAB=       26208 MaxLAS=       57600 LenRXY=       57600
 NonZer=       62208 LenScr=      524288 LnRSAI=           0
 LnScr1=           0 LExtra=           0 Total=       604358
 MaxDsk=          -1 SrtSym=           F ITran=            4
 DoSDTr:  NPSUse=  4
 JobTyp=0 Pass  1:  I=   1 to   8.
 (rs|ai) integrals will be sorted in core.
 Complete sort for first half transformation.
 First half transformation complete.
 Complete sort for second half transformation.
 Second half transformation complete.
 Spin components of T(2) and E(2):
     alpha-alpha T2 =       0.9107303750D-02 E2=     -0.2607746882D-01
     alpha-beta  T2 =       0.5985348192D-01 E2=     -0.1769218271D+00
     beta-beta   T2 =       0.9107303750D-02 E2=     -0.2607746882D-01
 ANorm=    0.1038300578D+01
 E2 =    -0.2290767648D+00 EUMP2 =    -0.33884362394394D+02
 Leave Link  804 at Sun Dec 10 06:51:22 2023, MaxMem=   536870912 cpu:               0.2 elap:               0.1
 (Enter /usr/site/hpc/x86_64/glibc-2.17/broadwell/gaussian/g16_a.03/pgi-16.5/g16/l913.exe)
 CIDS:  MDV=   536870912.
 IFCWin=0 IBDFC=1 NFBD=     0     0 NFCmp=     0     0 NFFFC=     0     0
 Using DD3R+UMP44R for 1st iteration.
 Using DD4RQ for 2nd and later iterations.
 Keep R2 and R3 ints in memory in symmetry-blocked form, NReq=865118.
 FoFCou: FMM=F IPFlag=           0 FMFlag=           0 FMFlg1=           0
         NFxFlg=           0 DoJE=F BraDBF=F KetDBF=F FulRan=T
         wScrn=  0.000000 ICntrl=       600 IOpCl=  0 I1Cent=           0 NGrid=           0
         NMat0=    1 NMatS0=    300 NMatT0=    0 NMatD0=    1 NMtDS0=    0 NMtDT0=    0
 Petite list used in FoFCou.
 CIDS: In Core Option IDoMem=           1.
 CCSD(T)
 =======
 Iterations=  50 Convergence= 0.100D-06
 Produce multiple copies of IABC intergrals
 Iteration Nr.   1
 **********************
 DD1Dir will call FoFMem   1 times, MxPair=        72
 NAB=    36 NAA=     0 NBB=     0.
 MP4(R+Q)= -0.70848413D-03
 Maximum subspace dimension=  5
 A-vector RMS=  5.8866844D-03 Max=  1.2397256D-02 conv= 1.00D-05.
 RLE energy=       -0.2349754746
 E3=       -0.53192712D-02        EUMP3=      -0.33889681666D+02
 E4(DQ)=   -0.58633862D-02        UMP4(DQ)=   -0.33895545052D+02
 E4(SDQ)=  -0.79610860D-02        UMP4(SDQ)=  -0.33897642752D+02
 VARIATIONAL ENERGIES WITH THE FIRST-ORDER WAVEFUNCTION:
 DE(Corr)= -0.23482774     E(Corr)=     -33.890113370    
 NORM(A)=   0.10417092D+01
 Iteration Nr.   2
 **********************
 DD1Dir will call FoFMem   1 times, MxPair=        72
 NAB=    36 NAA=     0 NBB=     0.
 A-vector RMS=  9.7505744D-04 Max=  2.6455050D-03 conv= 1.00D-05.
 RLE energy=       -0.2427801748
 DE(Corr)= -0.24085370     E(CORR)=     -33.896139334     Delta=-6.03D-03
 NORM(A)=   0.10455215D+01
 Iteration Nr.   3
 **********************
 DD1Dir will call FoFMem   1 times, MxPair=        72
 NAB=    36 NAA=     0 NBB=     0.
 A-vector RMS=  3.9087096D-04 Max=  9.3987408D-04 conv= 1.00D-05.
 RLE energy=       -0.2433306878
 DE(Corr)= -0.24287733     E(CORR)=     -33.898162956     Delta=-2.02D-03
 NORM(A)=   0.10460864D+01
 Iteration Nr.   4
 **********************
 DD1Dir will call FoFMem   1 times, MxPair=        72
 NAB=    36 NAA=     0 NBB=     0.
 A-vector RMS=  9.2162253D-05 Max=  2.3621081D-04 conv= 1.00D-05.
 RLE energy=       -0.2433794081
 DE(Corr)= -0.24334363     E(CORR)=     -33.898629263     Delta=-4.66D-04
 NORM(A)=   0.10461587D+01
 Iteration Nr.   5
 **********************
 DD1Dir will call FoFMem   1 times, MxPair=        72
 NAB=    36 NAA=     0 NBB=     0.
 A-vector RMS=  3.8910272D-05 Max=  1.1631228D-04 conv= 1.00D-05.
 RLE energy=       -0.2433785351
 DE(Corr)= -0.24337584     E(CORR)=     -33.898661473     Delta=-3.22D-05
 NORM(A)=   0.10461679D+01
 Iteration Nr.   6
 **********************
 DD1Dir will call FoFMem   1 times, MxPair=        72
 NAB=    36 NAA=     0 NBB=     0.
 A-vector RMS=  1.3879012D-05 Max=  4.9588222D-05 conv= 1.00D-05.
 RLE energy=       -0.2433759223
 DE(Corr)= -0.24337836     E(CORR)=     -33.898663990     Delta=-2.52D-06
 NORM(A)=   0.10461702D+01
 Iteration Nr.   7
 **********************
 DD1Dir will call FoFMem   1 times, MxPair=        72
 NAB=    36 NAA=     0 NBB=     0.
 A-vector RMS=  4.5060546D-06 Max=  1.4637323D-05 conv= 1.00D-05.
 RLE energy=       -0.2433775833
 DE(Corr)= -0.24337789     E(CORR)=     -33.898663517     Delta= 4.73D-07
 NORM(A)=   0.10461717D+01
 Iteration Nr.   8
 **********************
 DD1Dir will call FoFMem   1 times, MxPair=        72
 NAB=    36 NAA=     0 NBB=     0.
 A-vector RMS=  1.5377022D-06 Max=  5.2068253D-06 conv= 1.00D-05.
 RLE energy=       -0.2433774709
 DE(Corr)= -0.24337761     E(CORR)=     -33.898663240     Delta= 2.76D-07
 NORM(A)=   0.10461722D+01
 Iteration Nr.   9
 **********************
 DD1Dir will call FoFMem   1 times, MxPair=        72
 NAB=    36 NAA=     0 NBB=     0.
 A-vector RMS=  4.0255594D-07 Max=  1.5793813D-06 conv= 1.00D-05.
 RLE energy=       -0.2433776863
 DE(Corr)= -0.24337772     E(CORR)=     -33.898663351     Delta=-1.10D-07
 NORM(A)=   0.10461724D+01
 Iteration Nr.  10
 **********************
 DD1Dir will call FoFMem   1 times, MxPair=        72
 NAB=    36 NAA=     0 NBB=     0.
 A-vector RMS=  1.1258922D-07 Max=  5.1894265D-07 conv= 1.00D-05.
 RLE energy=       -0.2433778048
 DE(Corr)= -0.24337778     E(CORR)=     -33.898663411     Delta=-6.03D-08
 NORM(A)=   0.10461725D+01
 CI/CC converged in   10 iterations to DelEn=-6.03D-08 Conv= 1.00D-07 ErrA1= 1.13D-07 Conv= 1.00D-05
 Wavefunction amplitudes converged. E(Corr)=     -33.898663411    
 Largest amplitude= 4.55D-02
 IPart=  3 IA=    2   12.50% done.
 IPart=  4 IA=    3   24.17% done.
 IPart=  2 IA=    4   35.00% done.
 IPart=  2 IA=    5   45.00% done.
 IPart=  3 IA=    6   54.17% done.
 IPart=  4 IA=    7   62.50% done.
 IPart=  1 IA=    8   70.00% done.
 IPart=  1 IA=   10   82.50% done.
 IPart=  3 IA=   12   91.67% done.
 Time for triples=        0.26 seconds.
 T4(CCSD)= -0.31962659D-02
 T5(CCSD)=  0.54212998D-03
 CCSD(T)= -0.33901317547D+02
 Discarding MO integrals.
 Leave Link  913 at Sun Dec 10 06:51:22 2023, MaxMem=   536870912 cpu:               0.9 elap:               0.2
 (Enter /usr/site/hpc/x86_64/glibc-2.17/broadwell/gaussian/g16_a.03/pgi-16.5/g16/l601.exe)
 Copying SCF densities to generalized density rwf, IOpCl= 0 IROHF=0.

 **********************************************************************

            Population analysis using the SCF density.

 **********************************************************************

 Orbital symmetries:
       Occupied  (A') (A') (A') (A') (A') (A') (A") (A")
       Virtual   (A') (A') (A') (A') (A') (A") (A") (A') (A') (A')
                 (A') (A') (A') (A') (A') (A')
 The electronic state is 1-A'.
 Alpha  occ. eigenvalues --   -1.36567  -1.32510  -0.72216  -0.68224  -0.56472
 Alpha  occ. eigenvalues --   -0.52323  -0.51189  -0.47124
 Alpha virt. eigenvalues --    0.18842   0.24960   0.29605   0.35342   0.76835
 Alpha virt. eigenvalues --    0.77964   0.84960   0.86557   0.90633   1.06882
 Alpha virt. eigenvalues --    1.16370   1.20146   1.21671   1.30106   2.52894
 Alpha virt. eigenvalues --    2.82009
          Condensed to atoms (all electrons):
               1          2          3          4          5          6
     1  O    6.232774   0.259063   0.272661  -0.003480   0.000162  -0.002504
     2  H    0.259063   0.394834  -0.023124   0.000113  -0.000007   0.000023
     3  H    0.272661  -0.023124   0.358751   0.000067  -0.000003   0.000139
     4  O   -0.003480   0.000113   0.000067   6.230993   0.253281   0.268902
     5  H    0.000162  -0.000007  -0.000003   0.253281   0.421467  -0.023060
     6  H   -0.002504   0.000023   0.000139   0.268902  -0.023060   0.356715
 Mulliken charges:
               1
     1  O   -0.758676
     2  H    0.369098
     3  H    0.391510
     4  O   -0.749877
     5  H    0.348159
     6  H    0.399785
 Sum of Mulliken charges =   0.00000
 Mulliken charges with hydrogens summed into heavy atoms:
               1
     1  O    0.001933
     4  O   -0.001933
 Electronic spatial extent (au):  <R**2>=            182.4814
 Charge=              0.0000 electrons
 Dipole moment (field-independent basis, Debye):
    X=             -2.5644    Y=             -2.8941    Z=              0.0000  Tot=              3.8667
 Quadrupole moment (field-independent basis, Debye-Ang):
   XX=            -10.1330   YY=             -2.4912   ZZ=            -15.0003
   XY=             -4.4757   XZ=              0.0000   YZ=              0.0000
 Traceless Quadrupole moment (field-independent basis, Debye-Ang):
   XX=             -0.9249   YY=              6.7170   ZZ=             -5.7921
   XY=             -4.4757   XZ=              0.0000   YZ=              0.0000
 Octapole moment (field-independent basis, Debye-Ang**2):
  XXX=             -1.1593  YYY=            -12.3132  ZZZ=              0.0000  XYY=             -7.2178
  XXY=             -5.1465  XXZ=              0.0000  XZZ=             -0.4744  YZZ=             -0.5922
  YYZ=              0.0000  XYZ=              0.0000
 Hexadecapole moment (field-independent basis, Debye-Ang**3):
 XXXX=            -12.7513 YYYY=           -123.4914 ZZZZ=            -12.2437 XXXY=             -0.2887
 XXXZ=              0.0000 YYYX=            -16.2577 YYYZ=              0.0000 ZZZX=              0.0000
 ZZZY=              0.0000 XXYY=            -25.2778 XXZZ=             -4.5331 YYZZ=            -41.5100
 XXYZ=              0.0000 YYXZ=              0.0000 ZZXY=              0.5161
 N-N= 2.419213260948D+01 E-N=-1.301466608473D+02  KE= 2.678429142000D+01
 Symmetry A'   KE= 1.791296598634D+01
 Symmetry A"   KE= 8.871325433663D+00
 Leave Link  601 at Sun Dec 10 06:51:22 2023, MaxMem=   536870912 cpu:               0.1 elap:               0.0
 (Enter /usr/site/hpc/x86_64/glibc-2.17/broadwell/gaussian/g16_a.03/pgi-16.5/g16/l9999.exe)
 1\1\GINC-N033\SP\RCCSD(T)-FC\CEP-31G\H4O2\ROOT\10-Dec-2023\0\\#p CCSD(
 T)/CEP-31G\\H2O_H2O_1424\\0,1\O,0,0.,-0.009833,0.\H,0,-0.799571,-0.580
 965,0.\H,0,0.799571,-0.580965,0.\O,0,-0.009833,3.076673,0.\H,0,-0.5809
 65,3.876245,0.\H,0,-0.580965,2.277102,0.\\Version=ES64L-G16RevA.03\Sta
 te=1-A'\HF=-33.6552856\MP2=-33.8843624\MP3=-33.8896817\MP4D=-33.894836
 6\MP4DQ=-33.8955451\MP4SDQ=-33.8976428\CCSD=-33.8986634\CCSD(T)=-33.90
 13175\RMSD=1.033e-09\PG=CS [SG(H4O2)]\\@


 NO MATTER HOW THIN YOU SLICE IT, IT'S STILL BALONEY

                                   -- ALFRED E. SMITH
 Job cpu time:       0 days  0 hours  0 minutes  3.3 seconds.
 Elapsed time:       0 days  0 hours  0 minutes  1.0 seconds.
 File lengths (MBytes):  RWF=     72 Int=      0 D2E=      0 Chk=      8 Scr=      8
 Normal termination of Gaussian 16 at Sun Dec 10 06:51:22 2023.
