 Entering Gaussian System, Link 0=g16
 Input=H2O_H2O_1100.com
 Output=H2O_H2O_1100.log
 Initial command:
 /usr/site/hpc/x86_64/glibc-2.17/broadwell/gaussian/g16_a.03/pgi-16.5/g16/l1.exe "/gpfs/gpfs1/scratch/c7441090/OO Coord/Gau-1257768.inp" -scrdir="/gpfs/gpfs1/scratch/c7441090/OO Coord/"
 Entering Link 1 = /usr/site/hpc/x86_64/glibc-2.17/broadwell/gaussian/g16_a.03/pgi-16.5/g16/l1.exe PID=   1257769.
  
 Copyright (c) 1988,1990,1992,1993,1995,1998,2003,2009,2016,
            Gaussian, Inc.  All Rights Reserved.
  
 This is part of the Gaussian(R) 16 program.  It is based on
 the Gaussian(R) 09 system (copyright 2009, Gaussian, Inc.),
 the Gaussian(R) 03 system (copyright 2003, Gaussian, Inc.),
 the Gaussian(R) 98 system (copyright 1998, Gaussian, Inc.),
 the Gaussian(R) 94 system (copyright 1995, Gaussian, Inc.),
 the Gaussian 92(TM) system (copyright 1992, Gaussian, Inc.),
 the Gaussian 90(TM) system (copyright 1990, Gaussian, Inc.),
 the Gaussian 88(TM) system (copyright 1988, Gaussian, Inc.),
 the Gaussian 86(TM) system (copyright 1986, Carnegie Mellon
 University), and the Gaussian 82(TM) system (copyright 1983,
 Carnegie Mellon University). Gaussian is a federally registered
 trademark of Gaussian, Inc.
  
 This software contains proprietary and confidential information,
 including trade secrets, belonging to Gaussian, Inc.
  
 This software is provided under written license and may be
 used, copied, transmitted, or stored only in accord with that
 written license.
  
 The following legend is applicable only to US Government
 contracts under FAR:
  
                    RESTRICTED RIGHTS LEGEND
  
 Use, reproduction and disclosure by the US Government is
 subject to restrictions as set forth in subparagraphs (a)
 and (c) of the Commercial Computer Software - Restricted
 Rights clause in FAR 52.227-19.
  
 Gaussian, Inc.
 340 Quinnipiac St., Bldg. 40, Wallingford CT 06492
  
  
 ---------------------------------------------------------------
 Warning -- This program may not be used in any manner that
 competes with the business of Gaussian, Inc. or will provide
 assistance to any competitor of Gaussian, Inc.  The licensee
 of this program is prohibited from giving any competitor of
 Gaussian, Inc. access to this program.  By using this program,
 the user acknowledges that Gaussian, Inc. is engaged in the
 business of creating and licensing software in the field of
 computational chemistry and represents and warrants to the
 licensee that it is not a competitor of Gaussian, Inc. and that
 it will not use this program in any manner prohibited above.
 ---------------------------------------------------------------
  

 Cite this work as:
 Gaussian 16, Revision A.03,
 M. J. Frisch, G. W. Trucks, H. B. Schlegel, G. E. Scuseria, 
 M. A. Robb, J. R. Cheeseman, G. Scalmani, V. Barone, 
 G. A. Petersson, H. Nakatsuji, X. Li, M. Caricato, A. V. Marenich, 
 J. Bloino, B. G. Janesko, R. Gomperts, B. Mennucci, H. P. Hratchian, 
 J. V. Ortiz, A. F. Izmaylov, J. L. Sonnenberg, D. Williams-Young, 
 F. Ding, F. Lipparini, F. Egidi, J. Goings, B. Peng, A. Petrone, 
 T. Henderson, D. Ranasinghe, V. G. Zakrzewski, J. Gao, N. Rega, 
 G. Zheng, W. Liang, M. Hada, M. Ehara, K. Toyota, R. Fukuda, 
 J. Hasegawa, M. Ishida, T. Nakajima, Y. Honda, O. Kitao, H. Nakai, 
 T. Vreven, K. Throssell, J. A. Montgomery, Jr., J. E. Peralta, 
 F. Ogliaro, M. J. Bearpark, J. J. Heyd, E. N. Brothers, K. N. Kudin, 
 V. N. Staroverov, T. A. Keith, R. Kobayashi, J. Normand, 
 K. Raghavachari, A. P. Rendell, J. C. Burant, S. S. Iyengar, 
 J. Tomasi, M. Cossi, J. M. Millam, M. Klene, C. Adamo, R. Cammi, 
 J. W. Ochterski, R. L. Martin, K. Morokuma, O. Farkas, 
 J. B. Foresman, and D. J. Fox, Gaussian, Inc., Wallingford CT, 2016.
 
 ******************************************
 Gaussian 16:  ES64L-G16RevA.03 25-Dec-2016
                10-Dec-2023 
 ******************************************
 %NProcShared=4
 Will use up to    4 processors via shared memory.
 %Mem=4GB
 %Chk=H2O_H2O_1100.chk
 ------------------
 #p CCSD(T)/CEP-31G
 ------------------
 1/38=1,172=1/1;
 2/12=2,17=6,18=5,40=1/2;
 3/5=9,6=1,11=9,25=1,30=1/1,2,3;
 4//1;
 5/5=2,38=5/2;
 8/6=4,9=120000,10=1/1,4;
 9/5=7,14=2/13;
 6/7=2,8=2,9=2,10=2/1;
 99/5=1,9=1/99;
 Leave Link    1 at Sun Dec 10 06:45:18 2023, MaxMem=   536870912 cpu:               0.2 elap:               0.1
 (Enter /usr/site/hpc/x86_64/glibc-2.17/broadwell/gaussian/g16_a.03/pgi-16.5/g16/l101.exe)
 ------------
 H2O_H2O_1100
 ------------
 Symbolic Z-matrix:
 Charge =  0 Multiplicity = 1
 O                     0.       -0.00983   0. 
 H                    -0.79957  -0.58097   0. 
 H                     0.79957  -0.58097   0. 
 O                     0.        2.76741   0. 
 H                     0.79957   3.33854   0. 
 H                    -0.79957   3.33854   0. 
 
 ITRead=  0  0  0  0  0  0
 MicOpt= -1 -1 -1 -1 -1 -1
 NAtoms=      6 NQM=        6 NQMF=       0 NMMI=      0 NMMIF=      0
                NMic=       0 NMicF=      0.
                    Isotopes and Nuclear Properties:
 (Nuclear quadrupole moments (NQMom) in fm**2, nuclear magnetic moments (NMagM)
  in nuclear magnetons)

  Atom         1           2           3           4           5           6
 IAtWgt=          16           1           1          16           1           1
 AtmWgt=  15.9949146   1.0078250   1.0078250  15.9949146   1.0078250   1.0078250
 NucSpn=           0           1           1           0           1           1
 AtZEff=  -0.0000000  -0.0000000  -0.0000000  -0.0000000  -0.0000000  -0.0000000
 NQMom=    0.0000000   0.0000000   0.0000000   0.0000000   0.0000000   0.0000000
 NMagM=    0.0000000   2.7928460   2.7928460   0.0000000   2.7928460   2.7928460
 AtZNuc=   8.0000000   1.0000000   1.0000000   8.0000000   1.0000000   1.0000000
 Leave Link  101 at Sun Dec 10 06:45:18 2023, MaxMem=   536870912 cpu:               0.3 elap:               0.1
 (Enter /usr/site/hpc/x86_64/glibc-2.17/broadwell/gaussian/g16_a.03/pgi-16.5/g16/l202.exe)
                          Input orientation:                          
 ---------------------------------------------------------------------
 Center     Atomic      Atomic             Coordinates (Angstroms)
 Number     Number       Type             X           Y           Z
 ---------------------------------------------------------------------
      1          8           0        0.000000   -0.009833    0.000000
      2          1           0       -0.799571   -0.580965    0.000000
      3          1           0        0.799571   -0.580965    0.000000
      4          8           0        0.000000    2.767405    0.000000
      5          1           0        0.799571    3.338537    0.000000
      6          1           0       -0.799571    3.338537    0.000000
 ---------------------------------------------------------------------
                    Distance matrix (angstroms):
                    1          2          3          4          5
     1  O    0.000000
     2  H    0.982601   0.000000
     3  H    0.982601   1.599142   0.000000
     4  O    2.777238   3.442513   3.442513   0.000000
     5  H    3.442513   4.233173   3.919502   0.982601   0.000000
     6  H    3.442513   3.919502   4.233173   0.982601   1.599142
                    6
     6  H    0.000000
 Stoichiometry    H4O2
 Framework group  D2H[C2"(O.O),SG(H4)]
 Deg. of freedom     3
 Full point group                 D2H     NOp   8
 Largest Abelian subgroup         D2H     NOp   8
 Largest concise Abelian subgroup D2      NOp   4
                         Standard orientation:                         
 ---------------------------------------------------------------------
 Center     Atomic      Atomic             Coordinates (Angstroms)
 Number     Number       Type             X           Y           Z
 ---------------------------------------------------------------------
      1          8           0        0.000000   -0.000000    1.388619
      2          1           0        0.000000    0.799571    1.959751
      3          1           0       -0.000000   -0.799571    1.959751
      4          8           0        0.000000   -0.000000   -1.388619
      5          1           0       -0.000000   -0.799571   -1.959751
      6          1           0        0.000000    0.799571   -1.959751
 ---------------------------------------------------------------------
 Rotational constants (GHZ):         196.0911516           6.5491170           6.3374565
 Leave Link  202 at Sun Dec 10 06:45:18 2023, MaxMem=   536870912 cpu:               0.1 elap:               0.0
 (Enter /usr/site/hpc/x86_64/glibc-2.17/broadwell/gaussian/g16_a.03/pgi-16.5/g16/l301.exe)
 Standard basis: CEP-31G (6D, 10F)
 Ernie: Thresh=  0.10000D-02 Tol=  0.10000D-05 Strict=F.
 There are     6 symmetry adapted cartesian basis functions of AG  symmetry.
 There are     0 symmetry adapted cartesian basis functions of B1G symmetry.
 There are     2 symmetry adapted cartesian basis functions of B2G symmetry.
 There are     4 symmetry adapted cartesian basis functions of B3G symmetry.
 There are     0 symmetry adapted cartesian basis functions of AU  symmetry.
 There are     6 symmetry adapted cartesian basis functions of B1U symmetry.
 There are     4 symmetry adapted cartesian basis functions of B2U symmetry.
 There are     2 symmetry adapted cartesian basis functions of B3U symmetry.
 There are     6 symmetry adapted basis functions of AG  symmetry.
 There are     0 symmetry adapted basis functions of B1G symmetry.
 There are     2 symmetry adapted basis functions of B2G symmetry.
 There are     4 symmetry adapted basis functions of B3G symmetry.
 There are     0 symmetry adapted basis functions of AU  symmetry.
 There are     6 symmetry adapted basis functions of B1U symmetry.
 There are     4 symmetry adapted basis functions of B2U symmetry.
 There are     2 symmetry adapted basis functions of B3U symmetry.
    24 basis functions,    48 primitive gaussians,    24 cartesian basis functions
     8 alpha electrons        8 beta electrons
       nuclear repulsion energy        24.6557041924 Hartrees.
 IExCor=    0 DFT=F Ex=HF Corr=None ExCW=0 ScaHFX=  1.000000
 ScaDFX=  1.000000  1.000000  1.000000  1.000000 ScalE2=  1.000000  1.000000
 IRadAn=      5 IRanWt=     -1 IRanGd=            0 ICorTp=0 IEmpDi=  4
 NAtoms=    6 NActive=    6 NUniq=    2 SFac= 4.00D+00 NAtFMM=   60 NAOKFM=F Big=F
 Integral buffers will be    131072 words long.
 Raffenetti 1 integral format.
 Two-electron integral symmetry is turned on.
 Leave Link  301 at Sun Dec 10 06:45:18 2023, MaxMem=   536870912 cpu:               0.2 elap:               0.1
 (Enter /usr/site/hpc/x86_64/glibc-2.17/broadwell/gaussian/g16_a.03/pgi-16.5/g16/l302.exe)
 NPDir=0 NMtPBC=     1 NCelOv=     1 NCel=       1 NClECP=     1 NCelD=      1
         NCelK=      1 NCelE2=     1 NClLst=     1 CellRange=     0.0.
 One-electron integrals computed using PRISM.
 One-electron integral symmetry used in STVInt
   8 Symmetry operations used in ECPInt.
 ECPInt:  NShTT=      78 NPrTT=     318 LenC2=      79 LenP2D=     287.
 LDataN:  DoStor=T MaxTD1= 2 Len=   12
 NBasis=    24 RedAO= T EigKep=  3.84D-02  NBF=     6     0     2     4     0     6     4     2
 NBsUse=    24 1.00D-06 EigRej= -1.00D+00 NBFU=     6     0     2     4     0     6     4     2
 Leave Link  302 at Sun Dec 10 06:45:18 2023, MaxMem=   536870912 cpu:               0.3 elap:               0.1
 (Enter /usr/site/hpc/x86_64/glibc-2.17/broadwell/gaussian/g16_a.03/pgi-16.5/g16/l303.exe)
 DipDrv:  MaxL=1.
 Leave Link  303 at Sun Dec 10 06:45:18 2023, MaxMem=   536870912 cpu:               0.1 elap:               0.0
 (Enter /usr/site/hpc/x86_64/glibc-2.17/broadwell/gaussian/g16_a.03/pgi-16.5/g16/l401.exe)
 ExpMin= 1.78D-01 ExpMax= 1.92D+01 ExpMxC= 1.92D+01 IAcc=3 IRadAn=         5 AccDes= 0.00D+00
 Harris functional with IExCor=  205 and IRadAn=       5 diagonalized for initial guess.
 HarFok:  IExCor=  205 AccDes= 0.00D+00 IRadAn=         5 IDoV= 1 UseB2=F ITyADJ=14
 ICtDFT=  3500011 ScaDFX=  1.000000  1.000000  1.000000  1.000000
 FoFCou: FMM=F IPFlag=           0 FMFlag=      100000 FMFlg1=           0
         NFxFlg=           0 DoJE=T BraDBF=F KetDBF=T FulRan=T
         wScrn=  0.000000 ICntrl=       500 IOpCl=  0 I1Cent=   200000004 NGrid=           0
         NMat0=    1 NMatS0=      1 NMatT0=    0 NMatD0=    1 NMtDS0=    0 NMtDT0=    0
 Petite list used in FoFCou.
 Harris En= -34.4776908834816    
 JPrj=0 DoOrth=F DoCkMO=F.
 Initial guess orbital symmetries:
       Occupied  (AG) (B1U) (B2U) (B3G) (AG) (B1U) (B3U) (B2G)
       Virtual   (AG) (B1U) (B2U) (B3G) (AG) (B3U) (B2U) (B2G)
                 (B3G) (B1U) (AG) (B1U) (B3G) (B2U) (AG) (B1U)
 The electronic state of the initial guess is 1-AG.
 Leave Link  401 at Sun Dec 10 06:45:19 2023, MaxMem=   536870912 cpu:               0.4 elap:               0.1
 (Enter /usr/site/hpc/x86_64/glibc-2.17/broadwell/gaussian/g16_a.03/pgi-16.5/g16/l502.exe)
 Keep R1 ints in memory in symmetry-blocked form, NReq=853686.
 FoFCou: FMM=F IPFlag=           0 FMFlag=           0 FMFlg1=           0
         NFxFlg=           0 DoJE=F BraDBF=F KetDBF=F FulRan=T
         wScrn=  0.000000 ICntrl=       600 IOpCl=  0 I1Cent=           0 NGrid=           0
         NMat0=    1 NMatS0=    300 NMatT0=    0 NMatD0=    1 NMtDS0=    0 NMtDT0=    0
 Petite list used in FoFCou.
 Closed shell SCF:
 Using DIIS extrapolation, IDIIS=  1040.
 NGot=   536870912 LenX=   536859760 LenY=   536858743
 Requested convergence on RMS density matrix=1.00D-08 within 128 cycles.
 Requested convergence on MAX density matrix=1.00D-06.
 Requested convergence on             energy=1.00D-06.
 No special actions if energy rises.

 Cycle   1  Pass 1  IDiag  1:
 E= -33.5352332479692    
 DIIS: error= 7.30D-02 at cycle   1 NSaved=   1.
 NSaved= 1 IEnMin= 1 EnMin= -33.5352332479692     IErMin= 1 ErrMin= 7.30D-02
 ErrMax= 7.30D-02  0.00D+00 EMaxC= 1.00D-01 BMatC= 1.08D-01 BMatP= 1.08D-01
 IDIUse=3 WtCom= 2.70D-01 WtEn= 7.30D-01
 Coeff-Com:  0.100D+01
 Coeff-En:   0.100D+01
 Coeff:      0.100D+01
 Gap=     0.576 Goal=   None    Shift=    0.000
 GapD=    0.576 DampG=2.000 DampE=0.500 DampFc=1.0000 IDamp=-1.
 RMSDP=1.60D-02 MaxDP=1.19D-01              OVMax= 1.07D-01

 Cycle   2  Pass 1  IDiag  1:
 E= -33.6035459592359     Delta-E=       -0.068312711267 Rises=F Damp=F
 DIIS: error= 3.87D-02 at cycle   2 NSaved=   2.
 NSaved= 2 IEnMin= 2 EnMin= -33.6035459592359     IErMin= 2 ErrMin= 3.87D-02
 ErrMax= 3.87D-02  0.00D+00 EMaxC= 1.00D-01 BMatC= 4.10D-02 BMatP= 1.08D-01
 IDIUse=3 WtCom= 6.13D-01 WtEn= 3.87D-01
 Coeff-Com:  0.378D+00 0.622D+00
 Coeff-En:   0.932D-01 0.907D+00
 Coeff:      0.268D+00 0.732D+00
 Gap=     0.689 Goal=   None    Shift=    0.000
 RMSDP=6.82D-03 MaxDP=5.67D-02 DE=-6.83D-02 OVMax= 3.76D-02

 Cycle   3  Pass 1  IDiag  1:
 E= -33.6358113043638     Delta-E=       -0.032265345128 Rises=F Damp=F
 DIIS: error= 8.23D-03 at cycle   3 NSaved=   3.
 NSaved= 3 IEnMin= 3 EnMin= -33.6358113043638     IErMin= 3 ErrMin= 8.23D-03
 ErrMax= 8.23D-03  0.00D+00 EMaxC= 1.00D-01 BMatC= 1.18D-03 BMatP= 4.10D-02
 IDIUse=3 WtCom= 9.18D-01 WtEn= 8.23D-02
 Coeff-Com: -0.112D+00 0.370D-02 0.111D+01
 Coeff-En:   0.000D+00 0.000D+00 0.100D+01
 Coeff:     -0.102D+00 0.339D-02 0.110D+01
 Gap=     0.680 Goal=   None    Shift=    0.000
 RMSDP=1.34D-03 MaxDP=1.05D-02 DE=-3.23D-02 OVMax= 9.35D-03

 Cycle   4  Pass 1  IDiag  1:
 E= -33.6369846352205     Delta-E=       -0.001173330857 Rises=F Damp=F
 DIIS: error= 9.12D-04 at cycle   4 NSaved=   4.
 NSaved= 4 IEnMin= 4 EnMin= -33.6369846352205     IErMin= 4 ErrMin= 9.12D-04
 ErrMax= 9.12D-04  0.00D+00 EMaxC= 1.00D-01 BMatC= 8.60D-06 BMatP= 1.18D-03
 IDIUse=3 WtCom= 9.91D-01 WtEn= 9.12D-03
 Coeff-Com:  0.393D-01-0.265D-01-0.461D+00 0.145D+01
 Coeff-En:   0.000D+00 0.000D+00 0.000D+00 0.100D+01
 Coeff:      0.390D-01-0.262D-01-0.457D+00 0.144D+01
 Gap=     0.682 Goal=   None    Shift=    0.000
 RMSDP=2.57D-04 MaxDP=2.23D-03 DE=-1.17D-03 OVMax= 1.04D-03

 Cycle   5  Pass 1  IDiag  1:
 E= -33.6370013406086     Delta-E=       -0.000016705388 Rises=F Damp=F
 DIIS: error= 7.71D-05 at cycle   5 NSaved=   5.
 NSaved= 5 IEnMin= 5 EnMin= -33.6370013406086     IErMin= 5 ErrMin= 7.71D-05
 ErrMax= 7.71D-05  0.00D+00 EMaxC= 1.00D-01 BMatC= 8.28D-08 BMatP= 8.60D-06
 IDIUse=1 WtCom= 1.00D+00 WtEn= 0.00D+00
 Coeff-Com: -0.800D-02 0.570D-02 0.920D-01-0.359D+00 0.127D+01
 Coeff:     -0.800D-02 0.570D-02 0.920D-01-0.359D+00 0.127D+01
 Gap=     0.682 Goal=   None    Shift=    0.000
 RMSDP=2.47D-05 MaxDP=2.36D-04 DE=-1.67D-05 OVMax= 1.82D-04

 Cycle   6  Pass 1  IDiag  1:
 E= -33.6370015567089     Delta-E=       -0.000000216100 Rises=F Damp=F
 DIIS: error= 1.49D-05 at cycle   6 NSaved=   6.
 NSaved= 6 IEnMin= 6 EnMin= -33.6370015567089     IErMin= 6 ErrMin= 1.49D-05
 ErrMax= 1.49D-05  0.00D+00 EMaxC= 1.00D-01 BMatC= 3.59D-09 BMatP= 8.28D-08
 IDIUse=1 WtCom= 1.00D+00 WtEn= 0.00D+00
 Coeff-Com:  0.133D-02-0.713D-03-0.138D-01 0.657D-01-0.402D+00 0.135D+01
 Coeff:      0.133D-02-0.713D-03-0.138D-01 0.657D-01-0.402D+00 0.135D+01
 Gap=     0.682 Goal=   None    Shift=    0.000
 RMSDP=5.03D-06 MaxDP=5.05D-05 DE=-2.16D-07 OVMax= 4.40D-05

 Cycle   7  Pass 1  IDiag  1:
 E= -33.6370015663612     Delta-E=       -0.000000009652 Rises=F Damp=F
 DIIS: error= 2.66D-06 at cycle   7 NSaved=   7.
 NSaved= 7 IEnMin= 7 EnMin= -33.6370015663612     IErMin= 7 ErrMin= 2.66D-06
 ErrMax= 2.66D-06  0.00D+00 EMaxC= 1.00D-01 BMatC= 1.49D-10 BMatP= 3.59D-09
 IDIUse=1 WtCom= 1.00D+00 WtEn= 0.00D+00
 Coeff-Com:  0.577D-04-0.149D-03-0.124D-02-0.161D-04 0.683D-01-0.436D+00
 Coeff-Com:  0.137D+01
 Coeff:      0.577D-04-0.149D-03-0.124D-02-0.161D-04 0.683D-01-0.436D+00
 Coeff:      0.137D+01
 Gap=     0.682 Goal=   None    Shift=    0.000
 RMSDP=1.50D-06 MaxDP=9.37D-06 DE=-9.65D-09 OVMax= 1.09D-05

 Cycle   8  Pass 1  IDiag  1:
 E= -33.6370015668211     Delta-E=       -0.000000000460 Rises=F Damp=F
 DIIS: error= 5.48D-07 at cycle   8 NSaved=   8.
 NSaved= 8 IEnMin= 8 EnMin= -33.6370015668211     IErMin= 8 ErrMin= 5.48D-07
 ErrMax= 5.48D-07  0.00D+00 EMaxC= 1.00D-01 BMatC= 5.41D-12 BMatP= 1.49D-10
 IDIUse=1 WtCom= 1.00D+00 WtEn= 0.00D+00
 Coeff-Com:  0.260D-05 0.384D-04 0.205D-03 0.839D-03-0.275D-01 0.167D+00
 Coeff-Com: -0.617D+00 0.148D+01
 Coeff:      0.260D-05 0.384D-04 0.205D-03 0.839D-03-0.275D-01 0.167D+00
 Coeff:     -0.617D+00 0.148D+01
 Gap=     0.682 Goal=   None    Shift=    0.000
 RMSDP=3.94D-07 MaxDP=1.75D-06 DE=-4.60D-10 OVMax= 2.60D-06

 Cycle   9  Pass 1  IDiag  1:
 E= -33.6370015668384     Delta-E=       -0.000000000017 Rises=F Damp=F
 DIIS: error= 3.23D-08 at cycle   9 NSaved=   9.
 NSaved= 9 IEnMin= 9 EnMin= -33.6370015668384     IErMin= 9 ErrMin= 3.23D-08
 ErrMax= 3.23D-08  0.00D+00 EMaxC= 1.00D-01 BMatC= 1.80D-14 BMatP= 5.41D-12
 IDIUse=1 WtCom= 1.00D+00 WtEn= 0.00D+00
 Coeff-Com:  0.652D-06-0.663D-05-0.450D-04-0.816D-04 0.426D-02-0.268D-01
 Coeff-Com:  0.101D+00-0.292D+00 0.121D+01
 Coeff:      0.652D-06-0.663D-05-0.450D-04-0.816D-04 0.426D-02-0.268D-01
 Coeff:      0.101D+00-0.292D+00 0.121D+01
 Gap=     0.682 Goal=   None    Shift=    0.000
 RMSDP=2.70D-08 MaxDP=1.14D-07 DE=-1.73D-11 OVMax= 1.68D-07

 Cycle  10  Pass 1  IDiag  1:
 E= -33.6370015668384     Delta-E=       -0.000000000000 Rises=F Damp=F
 DIIS: error= 1.39D-09 at cycle  10 NSaved=  10.
 NSaved=10 IEnMin=10 EnMin= -33.6370015668384     IErMin=10 ErrMin= 1.39D-09
 ErrMax= 1.39D-09  0.00D+00 EMaxC= 1.00D-01 BMatC= 5.43D-17 BMatP= 1.80D-14
 IDIUse=1 WtCom= 1.00D+00 WtEn= 0.00D+00
 Coeff-Com: -0.244D-06 0.110D-05 0.865D-05 0.763D-05-0.675D-03 0.431D-02
 Coeff-Com: -0.166D-01 0.492D-01-0.233D+00 0.120D+01
 Coeff:     -0.244D-06 0.110D-05 0.865D-05 0.763D-05-0.675D-03 0.431D-02
 Coeff:     -0.166D-01 0.492D-01-0.233D+00 0.120D+01
 Gap=     0.682 Goal=   None    Shift=    0.000
 RMSDP=1.14D-09 MaxDP=4.06D-09 DE=-4.26D-14 OVMax= 5.32D-09

 SCF Done:  E(RHF) =  -33.6370015668     A.U. after   10 cycles
            NFock= 10  Conv=0.11D-08     -V/T= 2.2570
 KE= 2.675940660794D+01 PE=-1.313311191793D+02 EE= 4.627900681210D+01
 Leave Link  502 at Sun Dec 10 06:45:19 2023, MaxMem=   536870912 cpu:               0.3 elap:               0.1
 (Enter /usr/site/hpc/x86_64/glibc-2.17/broadwell/gaussian/g16_a.03/pgi-16.5/g16/l801.exe)
 Windowed orbitals will be sorted by symmetry type.
 Range of M.O.s used for correlation:     1    24
 NBasis=    24 NAE=     8 NBE=     8 NFC=     0 NFV=     0
 NROrb=     24 NOA=     8 NOB=     8 NVA=    16 NVB=    16
 Leave Link  801 at Sun Dec 10 06:45:19 2023, MaxMem=   536870912 cpu:               0.1 elap:               0.0
 (Enter /usr/site/hpc/x86_64/glibc-2.17/broadwell/gaussian/g16_a.03/pgi-16.5/g16/l804.exe)
 Closed-shell transformation, MDV=   536870912 ITran=4 ISComp=2.
 Unit  1 TFree=       1025246 TCopy=        210600.
 Semi-Direct transformation.
 ModeAB=           4 MOrb=             8 LenV=     536740681
 LASXX=         5694 LTotXX=        5694 LenRXX=       12406
 LTotAB=        6712 MaxLAS=       26880 LenRXY=           0
 NonZer=       18100 LenScr=      524288 LnRSAI=       26880
 LnScr1=      524288 LExtra=           0 Total=      1087862
 MaxDsk=          -1 SrtSym=           T ITran=            4
 DoSDTr:  NPSUse=  4
 JobTyp=0 Pass  1:  I=   1 to   8.
 (rs|ai) integrals will be sorted in core.
 Complete sort for first half transformation.
 First half transformation complete.
 Complete sort for second half transformation.
 Second half transformation complete.
 Spin components of T(2) and E(2):
     alpha-alpha T2 =       0.9100908398D-02 E2=     -0.2603207184D-01
     alpha-beta  T2 =       0.6029852009D-01 E2=     -0.1774293123D+00
     beta-beta   T2 =       0.9100908398D-02 E2=     -0.2603207184D-01
 ANorm=    0.1038508708D+01
 E2 =    -0.2294934560D+00 EUMP2 =    -0.33866495022848D+02
 Leave Link  804 at Sun Dec 10 06:45:19 2023, MaxMem=   536870912 cpu:               0.2 elap:               0.1
 (Enter /usr/site/hpc/x86_64/glibc-2.17/broadwell/gaussian/g16_a.03/pgi-16.5/g16/l913.exe)
 CIDS:  MDV=   536870912.
 IFCWin=0 IBDFC=1 NFBD=     0     0 NFCmp=     0     0 NFFFC=     0     0
 Using DD3R+UMP44R for 1st iteration.
 Using DD4RQ for 2nd and later iterations.
 Keep R2 and R3 ints in memory in symmetry-blocked form, NReq=856416.
 FoFCou: FMM=F IPFlag=           0 FMFlag=           0 FMFlg1=           0
         NFxFlg=           0 DoJE=F BraDBF=F KetDBF=F FulRan=T
         wScrn=  0.000000 ICntrl=       600 IOpCl=  0 I1Cent=           0 NGrid=           0
         NMat0=    1 NMatS0=    300 NMatT0=    0 NMatD0=    1 NMtDS0=    0 NMtDT0=    0
 Petite list used in FoFCou.
 CIDS: In Core Option IDoMem=           1.
 CCSD(T)
 =======
 Iterations=  50 Convergence= 0.100D-06
 Produce multiple copies of IABC intergrals
 Iteration Nr.   1
 **********************
 DD1Dir will call FoFMem   1 times, MxPair=        72
 NAB=    36 NAA=     0 NBB=     0.
 MP4(R+Q)= -0.61623498D-03
 Maximum subspace dimension=  5
 A-vector RMS=  5.9486369D-03 Max=  1.4257297D-02 conv= 1.00D-05.
 RLE energy=       -0.2356932489
 E3=       -0.56890540D-02        EUMP3=      -0.33872184077D+02
 E4(DQ)=   -0.58770807D-02        UMP4(DQ)=   -0.33878061158D+02
 E4(SDQ)=  -0.79701672D-02        UMP4(SDQ)=  -0.33880154244D+02
 VARIATIONAL ENERGIES WITH THE FIRST-ORDER WAVEFUNCTION:
 DE(Corr)= -0.23553049     E(Corr)=     -33.872532056    
 NORM(A)=   0.10420996D+01
 Iteration Nr.   2
 **********************
 DD1Dir will call FoFMem   1 times, MxPair=        72
 NAB=    36 NAA=     0 NBB=     0.
 A-vector RMS=  1.0222641D-03 Max=  2.1845489D-03 conv= 1.00D-05.
 RLE energy=       -0.2436322727
 DE(Corr)= -0.24165323     E(CORR)=     -33.878654795     Delta=-6.12D-03
 NORM(A)=   0.10460675D+01
 Iteration Nr.   3
 **********************
 DD1Dir will call FoFMem   1 times, MxPair=        72
 NAB=    36 NAA=     0 NBB=     0.
 A-vector RMS=  4.6988135D-04 Max=  1.8908990D-03 conv= 1.00D-05.
 RLE energy=       -0.2441932642
 DE(Corr)= -0.24372291     E(CORR)=     -33.880724472     Delta=-2.07D-03
 NORM(A)=   0.10466900D+01
 Iteration Nr.   4
 **********************
 DD1Dir will call FoFMem   1 times, MxPair=        72
 NAB=    36 NAA=     0 NBB=     0.
 A-vector RMS=  1.1746696D-04 Max=  4.0396984D-04 conv= 1.00D-05.
 RLE energy=       -0.2442462828
 DE(Corr)= -0.24420620     E(CORR)=     -33.881207771     Delta=-4.83D-04
 NORM(A)=   0.10467868D+01
 Iteration Nr.   5
 **********************
 DD1Dir will call FoFMem   1 times, MxPair=        72
 NAB=    36 NAA=     0 NBB=     0.
 A-vector RMS=  5.5925487D-05 Max=  2.5288741D-04 conv= 1.00D-05.
 RLE energy=       -0.2442450045
 DE(Corr)= -0.24424158     E(CORR)=     -33.881243151     Delta=-3.54D-05
 NORM(A)=   0.10468052D+01
 Iteration Nr.   6
 **********************
 DD1Dir will call FoFMem   1 times, MxPair=        72
 NAB=    36 NAA=     0 NBB=     0.
 A-vector RMS=  1.7410700D-05 Max=  7.7970065D-05 conv= 1.00D-05.
 RLE energy=       -0.2442413710
 DE(Corr)= -0.24424456     E(CORR)=     -33.881246123     Delta=-2.97D-06
 NORM(A)=   0.10468097D+01
 Iteration Nr.   7
 **********************
 DD1Dir will call FoFMem   1 times, MxPair=        72
 NAB=    36 NAA=     0 NBB=     0.
 A-vector RMS=  5.6382649D-06 Max=  2.5136578D-05 conv= 1.00D-05.
 RLE energy=       -0.2442432470
 DE(Corr)= -0.24424377     E(CORR)=     -33.881245341     Delta= 7.82D-07
 NORM(A)=   0.10468120D+01
 Iteration Nr.   8
 **********************
 DD1Dir will call FoFMem   1 times, MxPair=        72
 NAB=    36 NAA=     0 NBB=     0.
 A-vector RMS=  1.7833871D-06 Max=  7.0486147D-06 conv= 1.00D-05.
 RLE energy=       -0.2442431978
 DE(Corr)= -0.24424337     E(CORR)=     -33.881244936     Delta= 4.05D-07
 NORM(A)=   0.10468127D+01
 Iteration Nr.   9
 **********************
 DD1Dir will call FoFMem   1 times, MxPair=        72
 NAB=    36 NAA=     0 NBB=     0.
 A-vector RMS=  4.3041489D-07 Max=  1.7401795D-06 conv= 1.00D-05.
 RLE energy=       -0.2442434974
 DE(Corr)= -0.24424352     E(CORR)=     -33.881245088     Delta=-1.52D-07
 NORM(A)=   0.10468130D+01
 Iteration Nr.  10
 **********************
 DD1Dir will call FoFMem   1 times, MxPair=        72
 NAB=    36 NAA=     0 NBB=     0.
 A-vector RMS=  1.4973900D-07 Max=  6.4375952D-07 conv= 1.00D-05.
 RLE energy=       -0.2442436344
 DE(Corr)= -0.24424360     E(CORR)=     -33.881245170     Delta=-8.16D-08
 NORM(A)=   0.10468131D+01
 CI/CC converged in   10 iterations to DelEn=-8.16D-08 Conv= 1.00D-07 ErrA1= 1.50D-07 Conv= 1.00D-05
 Wavefunction amplitudes converged. E(Corr)=     -33.881245170    
 Largest amplitude= 3.11D-02
 IPart=  4 IA=    2   12.50% done.
 IPart=  3 IA=    3   24.17% done.
 IPart=  2 IA=    4   35.00% done.
 IPart=  2 IA=    5   45.00% done.
 IPart=  4 IA=    6   54.17% done.
 IPart=  3 IA=    7   62.50% done.
 IPart=  1 IA=    8   70.00% done.
 IPart=  1 IA=   10   82.50% done.
 IPart=  4 IA=   12   91.67% done.
 Time for triples=        1.08 seconds.
 T4(CCSD)= -0.32104479D-02
 T5(CCSD)=  0.54347694D-03
 CCSD(T)= -0.33883912141D+02
 Discarding MO integrals.
 Leave Link  913 at Sun Dec 10 06:45:19 2023, MaxMem=   536870912 cpu:               1.7 elap:               0.4
 (Enter /usr/site/hpc/x86_64/glibc-2.17/broadwell/gaussian/g16_a.03/pgi-16.5/g16/l601.exe)
 Copying SCF densities to generalized density rwf, IOpCl= 0 IROHF=0.

 **********************************************************************

            Population analysis using the SCF density.

 **********************************************************************

 Orbital symmetries:
       Occupied  (AG) (B1U) (B2U) (B3G) (AG) (B1U) (B3U) (B2G)
       Virtual   (AG) (B1U) (B2U) (B3G) (B3U) (B2U) (AG) (B2G)
                 (B3G) (B1U) (AG) (B1U) (B2U) (B3G) (AG) (B1U)
 The electronic state is 1-AG.
 Alpha  occ. eigenvalues --   -1.33007  -1.32668  -0.68583  -0.68312  -0.53982
 Alpha  occ. eigenvalues --   -0.49674  -0.47636  -0.46822
 Alpha virt. eigenvalues --    0.21415   0.23438   0.32343   0.32704   0.79632
 Alpha virt. eigenvalues --    0.80738   0.82187   0.87326   1.01874   1.08399
 Alpha virt. eigenvalues --    1.19439   1.20337   1.24378   1.24407   2.58465
 Alpha virt. eigenvalues --    2.67105
          Condensed to atoms (all electrons):
               1          2          3          4          5          6
     1  O    6.213938   0.255175   0.255175  -0.022059   0.000581   0.000581
     2  H    0.255175   0.416673  -0.024107   0.000581  -0.000009  -0.000009
     3  H    0.255175  -0.024107   0.416673   0.000581  -0.000009  -0.000009
     4  O   -0.022059   0.000581   0.000581   6.213938   0.255175   0.255175
     5  H    0.000581  -0.000009  -0.000009   0.255175   0.416673  -0.024107
     6  H    0.000581  -0.000009  -0.000009   0.255175  -0.024107   0.416673
 Mulliken charges:
               1
     1  O   -0.703392
     2  H    0.351696
     3  H    0.351696
     4  O   -0.703392
     5  H    0.351696
     6  H    0.351696
 Sum of Mulliken charges =  -0.00000
 Mulliken charges with hydrogens summed into heavy atoms:
               1
     1  O   -0.000000
     4  O   -0.000000
 Electronic spatial extent (au):  <R**2>=            162.4331
 Charge=              0.0000 electrons
 Dipole moment (field-independent basis, Debye):
    X=             -0.0000    Y=              0.0000    Z=              0.0000  Tot=              0.0000
 Quadrupole moment (field-independent basis, Debye-Ang):
   XX=            -14.9877   YY=             -8.2102   ZZ=              1.9342
   XY=              0.0000   XZ=             -0.0000   YZ=             -0.0000
 Traceless Quadrupole moment (field-independent basis, Debye-Ang):
   XX=             -7.8998   YY=             -1.1223   ZZ=              9.0221
   XY=              0.0000   XZ=             -0.0000   YZ=             -0.0000
 Octapole moment (field-independent basis, Debye-Ang**2):
  XXX=             -0.0000  YYY=              0.0000  ZZZ=              0.0000  XYY=             -0.0000
  XXY=             -0.0000  XXZ=             -0.0000  XZZ=             -0.0000  YZZ=              0.0000
  YYZ=              0.0000  XYZ=             -0.0000
 Hexadecapole moment (field-independent basis, Debye-Ang**3):
 XXXX=            -12.2236 YYYY=            -12.4347 ZZZZ=           -104.2607 XXXY=             -0.0000
 XXXZ=              0.0000 YYYX=             -0.0000 YYYZ=             -0.0000 ZZZX=              0.0000
 ZZZY=             -0.0000 XXYY=             -4.6669 XXZZ=            -35.6736 YYZZ=            -14.7218
 XXYZ=              0.0000 YYXZ=              0.0000 ZZXY=              0.0000
 N-N= 2.465570419245D+01 E-N=-1.313311191989D+02  KE= 2.675940660794D+01
 Symmetry AG   KE= 5.365184061355D+00
 Symmetry B1G  KE= 0.000000000000D+00
 Symmetry B2G  KE= 4.500360325206D+00
 Symmetry B3G  KE= 3.398320172980D+00
 Symmetry AU   KE= 0.000000000000D+00
 Symmetry B1U  KE= 5.746057220982D+00
 Symmetry B2U  KE= 3.369838982627D+00
 Symmetry B3U  KE= 4.379645844785D+00
 Leave Link  601 at Sun Dec 10 06:45:19 2023, MaxMem=   536870912 cpu:               0.1 elap:               0.0
 (Enter /usr/site/hpc/x86_64/glibc-2.17/broadwell/gaussian/g16_a.03/pgi-16.5/g16/l9999.exe)
 1\1\GINC-N033\SP\RCCSD(T)-FC\CEP-31G\H4O2\ROOT\10-Dec-2023\0\\#p CCSD(
 T)/CEP-31G\\H2O_H2O_1100\\0,1\O,0,0.,-0.009833,0.\H,0,-0.799571,-0.580
 965,0.\H,0,0.799571,-0.580965,0.\O,0,0.,2.767405,0.\H,0,0.799571,3.338
 537,0.\H,0,-0.799571,3.338537,0.\\Version=ES64L-G16RevA.03\State=1-AG\
 HF=-33.6370016\MP2=-33.866495\MP3=-33.8721841\MP4D=-33.8774449\MP4DQ=-
 33.8780612\MP4SDQ=-33.8801542\CCSD=-33.8812452\CCSD(T)=-33.8839121\RMS
 D=1.138e-09\PG=D02H [C2"(O1.O1),SG(H4)]\\@


 IF AT FIRST YOU DON'T SUCCEED, TRY, TRY AGAIN.
 THEN GIVE UP;
 THERE'S NO USE BEING A DAMN FOOL ABOUT IT.

                                 -- W. C. FIELDS
 Job cpu time:       0 days  0 hours  0 minutes  4.1 seconds.
 Elapsed time:       0 days  0 hours  0 minutes  1.2 seconds.
 File lengths (MBytes):  RWF=     72 Int=      0 D2E=      0 Chk=      8 Scr=      8
 Normal termination of Gaussian 16 at Sun Dec 10 06:45:19 2023.
