 Entering Gaussian System, Link 0=g16
 Input=H2O_H2O_4214.com
 Output=H2O_H2O_4214.log
 Initial command:
 /usr/site/hpc/x86_64/glibc-2.17/broadwell/gaussian/g16_a.03/pgi-16.5/g16/l1.exe "/gpfs/gpfs1/scratch/c7441090/OO Coord/Gau-1805048.inp" -scrdir="/gpfs/gpfs1/scratch/c7441090/OO Coord/"
 Entering Link 1 = /usr/site/hpc/x86_64/glibc-2.17/broadwell/gaussian/g16_a.03/pgi-16.5/g16/l1.exe PID=   1805049.
  
 Copyright (c) 1988,1990,1992,1993,1995,1998,2003,2009,2016,
            Gaussian, Inc.  All Rights Reserved.
  
 This is part of the Gaussian(R) 16 program.  It is based on
 the Gaussian(R) 09 system (copyright 2009, Gaussian, Inc.),
 the Gaussian(R) 03 system (copyright 2003, Gaussian, Inc.),
 the Gaussian(R) 98 system (copyright 1998, Gaussian, Inc.),
 the Gaussian(R) 94 system (copyright 1995, Gaussian, Inc.),
 the Gaussian 92(TM) system (copyright 1992, Gaussian, Inc.),
 the Gaussian 90(TM) system (copyright 1990, Gaussian, Inc.),
 the Gaussian 88(TM) system (copyright 1988, Gaussian, Inc.),
 the Gaussian 86(TM) system (copyright 1986, Carnegie Mellon
 University), and the Gaussian 82(TM) system (copyright 1983,
 Carnegie Mellon University). Gaussian is a federally registered
 trademark of Gaussian, Inc.
  
 This software contains proprietary and confidential information,
 including trade secrets, belonging to Gaussian, Inc.
  
 This software is provided under written license and may be
 used, copied, transmitted, or stored only in accord with that
 written license.
  
 The following legend is applicable only to US Government
 contracts under FAR:
  
                    RESTRICTED RIGHTS LEGEND
  
 Use, reproduction and disclosure by the US Government is
 subject to restrictions as set forth in subparagraphs (a)
 and (c) of the Commercial Computer Software - Restricted
 Rights clause in FAR 52.227-19.
  
 Gaussian, Inc.
 340 Quinnipiac St., Bldg. 40, Wallingford CT 06492
  
  
 ---------------------------------------------------------------
 Warning -- This program may not be used in any manner that
 competes with the business of Gaussian, Inc. or will provide
 assistance to any competitor of Gaussian, Inc.  The licensee
 of this program is prohibited from giving any competitor of
 Gaussian, Inc. access to this program.  By using this program,
 the user acknowledges that Gaussian, Inc. is engaged in the
 business of creating and licensing software in the field of
 computational chemistry and represents and warrants to the
 licensee that it is not a competitor of Gaussian, Inc. and that
 it will not use this program in any manner prohibited above.
 ---------------------------------------------------------------
  

 Cite this work as:
 Gaussian 16, Revision A.03,
 M. J. Frisch, G. W. Trucks, H. B. Schlegel, G. E. Scuseria, 
 M. A. Robb, J. R. Cheeseman, G. Scalmani, V. Barone, 
 G. A. Petersson, H. Nakatsuji, X. Li, M. Caricato, A. V. Marenich, 
 J. Bloino, B. G. Janesko, R. Gomperts, B. Mennucci, H. P. Hratchian, 
 J. V. Ortiz, A. F. Izmaylov, J. L. Sonnenberg, D. Williams-Young, 
 F. Ding, F. Lipparini, F. Egidi, J. Goings, B. Peng, A. Petrone, 
 T. Henderson, D. Ranasinghe, V. G. Zakrzewski, J. Gao, N. Rega, 
 G. Zheng, W. Liang, M. Hada, M. Ehara, K. Toyota, R. Fukuda, 
 J. Hasegawa, M. Ishida, T. Nakajima, Y. Honda, O. Kitao, H. Nakai, 
 T. Vreven, K. Throssell, J. A. Montgomery, Jr., J. E. Peralta, 
 F. Ogliaro, M. J. Bearpark, J. J. Heyd, E. N. Brothers, K. N. Kudin, 
 V. N. Staroverov, T. A. Keith, R. Kobayashi, J. Normand, 
 K. Raghavachari, A. P. Rendell, J. C. Burant, S. S. Iyengar, 
 J. Tomasi, M. Cossi, J. M. Millam, M. Klene, C. Adamo, R. Cammi, 
 J. W. Ochterski, R. L. Martin, K. Morokuma, O. Farkas, 
 J. B. Foresman, and D. J. Fox, Gaussian, Inc., Wallingford CT, 2016.
 
 ******************************************
 Gaussian 16:  ES64L-G16RevA.03 25-Dec-2016
                10-Dec-2023 
 ******************************************
 %NProcShared=4
 Will use up to    4 processors via shared memory.
 %Mem=4GB
 %Chk=H2O_H2O_4214.chk
 ------------------
 #p CCSD(T)/CEP-31G
 ------------------
 1/38=1,172=1/1;
 2/12=2,17=6,18=5,40=1/2;
 3/5=9,6=1,11=9,25=1,30=1/1,2,3;
 4//1;
 5/5=2,38=5/2;
 8/6=4,9=120000,10=1/1,4;
 9/5=7,14=2/13;
 6/7=2,8=2,9=2,10=2/1;
 99/5=1,9=1/99;
 Leave Link    1 at Sun Dec 10 06:55:56 2023, MaxMem=   536870912 cpu:               0.2 elap:               0.1
 (Enter /usr/site/hpc/x86_64/glibc-2.17/broadwell/gaussian/g16_a.03/pgi-16.5/g16/l101.exe)
 ------------
 H2O_H2O_4214
 ------------
 Symbolic Z-matrix:
 Charge =  0 Multiplicity = 1
 O                     0.       -0.00983   0. 
 H                    -0.79957  -0.58097   0. 
 H                     0.79957  -0.58097   0. 
 O                    -0.0078    6.06094   0. 
 H                     0.02584   7.04297   0. 
 H                    -0.94766   5.77428   0. 
 
 ITRead=  0  0  0  0  0  0
 MicOpt= -1 -1 -1 -1 -1 -1
 NAtoms=      6 NQM=        6 NQMF=       0 NMMI=      0 NMMIF=      0
                NMic=       0 NMicF=      0.
                    Isotopes and Nuclear Properties:
 (Nuclear quadrupole moments (NQMom) in fm**2, nuclear magnetic moments (NMagM)
  in nuclear magnetons)

  Atom         1           2           3           4           5           6
 IAtWgt=          16           1           1          16           1           1
 AtmWgt=  15.9949146   1.0078250   1.0078250  15.9949146   1.0078250   1.0078250
 NucSpn=           0           1           1           0           1           1
 AtZEff=  -0.0000000  -0.0000000  -0.0000000  -0.0000000  -0.0000000  -0.0000000
 NQMom=    0.0000000   0.0000000   0.0000000   0.0000000   0.0000000   0.0000000
 NMagM=    0.0000000   2.7928460   2.7928460   0.0000000   2.7928460   2.7928460
 AtZNuc=   8.0000000   1.0000000   1.0000000   8.0000000   1.0000000   1.0000000
 Leave Link  101 at Sun Dec 10 06:55:56 2023, MaxMem=   536870912 cpu:               0.3 elap:               0.1
 (Enter /usr/site/hpc/x86_64/glibc-2.17/broadwell/gaussian/g16_a.03/pgi-16.5/g16/l202.exe)
                          Input orientation:                          
 ---------------------------------------------------------------------
 Center     Atomic      Atomic             Coordinates (Angstroms)
 Number     Number       Type             X           Y           Z
 ---------------------------------------------------------------------
      1          8           0        0.000000   -0.009833    0.000000
      2          1           0       -0.799571   -0.580965    0.000000
      3          1           0        0.799571   -0.580965    0.000000
      4          8           0       -0.007801    6.060943    0.000000
      5          1           0        0.025838    7.042969    0.000000
      6          1           0       -0.947659    5.774284    0.000000
 ---------------------------------------------------------------------
                    Distance matrix (angstroms):
                    1          2          3          4          5
     1  O    0.000000
     2  H    0.982601   0.000000
     3  H    0.982601   1.599142   0.000000
     4  O    6.070781   6.688934   6.690799   0.000000
     5  H    7.052849   7.668485   7.663095   0.982602   0.000000
     6  H    5.861234   6.356974   6.591055   0.982602   1.599143
                    6
     6  H    0.000000
 Stoichiometry    H4O2
 Framework group  CS[SG(H4O2)]
 Deg. of freedom     9
 Full point group                 CS      NOp   2
 Largest Abelian subgroup         CS      NOp   2
 Largest concise Abelian subgroup C1      NOp   1
                         Standard orientation:                         
 ---------------------------------------------------------------------
 Center     Atomic      Atomic             Coordinates (Angstroms)
 Number     Number       Type             X           Y           Z
 ---------------------------------------------------------------------
      1          8           0        0.045340   -3.013104    0.000000
      2          1           0       -0.754965   -3.583208    0.000000
      3          1           0        0.844176   -3.585263    0.000000
      4          8           0        0.045340    3.057677    0.000000
      5          1           0        0.080241    4.039659    0.000000
      6          1           0       -0.894886    2.772226    0.000000
 ---------------------------------------------------------------------
 Rotational constants (GHZ):         236.1826189           1.4654696           1.4564327
 Leave Link  202 at Sun Dec 10 06:55:56 2023, MaxMem=   536870912 cpu:               0.1 elap:               0.0
 (Enter /usr/site/hpc/x86_64/glibc-2.17/broadwell/gaussian/g16_a.03/pgi-16.5/g16/l301.exe)
 Standard basis: CEP-31G (6D, 10F)
 Ernie: Thresh=  0.10000D-02 Tol=  0.10000D-05 Strict=F.
 There are    20 symmetry adapted cartesian basis functions of A'  symmetry.
 There are     4 symmetry adapted cartesian basis functions of A"  symmetry.
 There are    20 symmetry adapted basis functions of A'  symmetry.
 There are     4 symmetry adapted basis functions of A"  symmetry.
    24 basis functions,    48 primitive gaussians,    24 cartesian basis functions
     8 alpha electrons        8 beta electrons
       nuclear repulsion energy        18.9676949174 Hartrees.
 IExCor=    0 DFT=F Ex=HF Corr=None ExCW=0 ScaHFX=  1.000000
 ScaDFX=  1.000000  1.000000  1.000000  1.000000 ScalE2=  1.000000  1.000000
 IRadAn=      5 IRanWt=     -1 IRanGd=            0 ICorTp=0 IEmpDi=  4
 NAtoms=    6 NActive=    6 NUniq=    6 SFac= 1.00D+00 NAtFMM=   60 NAOKFM=F Big=F
 Integral buffers will be    131072 words long.
 Raffenetti 1 integral format.
 Two-electron integral symmetry is turned on.
 Leave Link  301 at Sun Dec 10 06:55:56 2023, MaxMem=   536870912 cpu:               0.2 elap:               0.1
 (Enter /usr/site/hpc/x86_64/glibc-2.17/broadwell/gaussian/g16_a.03/pgi-16.5/g16/l302.exe)
 NPDir=0 NMtPBC=     1 NCelOv=     1 NCel=       1 NClECP=     1 NCelD=      1
         NCelK=      1 NCelE2=     1 NClLst=     1 CellRange=     0.0.
 One-electron integrals computed using PRISM.
 One-electron integral symmetry used in STVInt
   2 Symmetry operations used in ECPInt.
 ECPInt:  NShTT=      78 NPrTT=     318 LenC2=      76 LenP2D=     241.
 LDataN:  DoStor=T MaxTD1= 2 Len=   12
 NBasis=    24 RedAO= T EigKep=  3.86D-02  NBF=    20     4
 NBsUse=    24 1.00D-06 EigRej= -1.00D+00 NBFU=    20     4
 Leave Link  302 at Sun Dec 10 06:55:57 2023, MaxMem=   536870912 cpu:               0.3 elap:               0.1
 (Enter /usr/site/hpc/x86_64/glibc-2.17/broadwell/gaussian/g16_a.03/pgi-16.5/g16/l303.exe)
 DipDrv:  MaxL=1.
 Leave Link  303 at Sun Dec 10 06:55:57 2023, MaxMem=   536870912 cpu:               0.1 elap:               0.0
 (Enter /usr/site/hpc/x86_64/glibc-2.17/broadwell/gaussian/g16_a.03/pgi-16.5/g16/l401.exe)
 ExpMin= 1.78D-01 ExpMax= 1.92D+01 ExpMxC= 1.92D+01 IAcc=3 IRadAn=         5 AccDes= 0.00D+00
 Harris functional with IExCor=  205 and IRadAn=       5 diagonalized for initial guess.
 HarFok:  IExCor=  205 AccDes= 0.00D+00 IRadAn=         5 IDoV= 1 UseB2=F ITyADJ=14
 ICtDFT=  3500011 ScaDFX=  1.000000  1.000000  1.000000  1.000000
 FoFCou: FMM=F IPFlag=           0 FMFlag=      100000 FMFlg1=           0
         NFxFlg=           0 DoJE=T BraDBF=F KetDBF=T FulRan=T
         wScrn=  0.000000 ICntrl=       500 IOpCl=  0 I1Cent=   200000004 NGrid=           0
         NMat0=    1 NMatS0=      1 NMatT0=    0 NMatD0=    1 NMtDS0=    0 NMtDT0=    0
 Petite list used in FoFCou.
 Harris En= -34.4763704583742    
 JPrj=0 DoOrth=F DoCkMO=F.
 Initial guess orbital symmetries:
       Occupied  (A') (A') (A') (A') (A') (A') (A") (A")
       Virtual   (A') (A') (A') (A') (A") (A") (A') (A') (A') (A')
                 (A') (A') (A') (A') (A') (A')
 The electronic state of the initial guess is 1-A'.
 Leave Link  401 at Sun Dec 10 06:55:57 2023, MaxMem=   536870912 cpu:               0.4 elap:               0.1
 (Enter /usr/site/hpc/x86_64/glibc-2.17/broadwell/gaussian/g16_a.03/pgi-16.5/g16/l502.exe)
 Keep R1 ints in memory in symmetry-blocked form, NReq=851752.
 FoFCou: FMM=F IPFlag=           0 FMFlag=           0 FMFlg1=           0
         NFxFlg=           0 DoJE=F BraDBF=F KetDBF=F FulRan=T
         wScrn=  0.000000 ICntrl=       600 IOpCl=  0 I1Cent=           0 NGrid=           0
         NMat0=    1 NMatS0=    300 NMatT0=    0 NMatD0=    1 NMtDS0=    0 NMtDT0=    0
 Petite list used in FoFCou.
 Closed shell SCF:
 Using DIIS extrapolation, IDIIS=  1040.
 NGot=   536870912 LenX=   536840576 LenY=   536839559
 Requested convergence on RMS density matrix=1.00D-08 within 128 cycles.
 Requested convergence on MAX density matrix=1.00D-06.
 Requested convergence on             energy=1.00D-06.
 No special actions if energy rises.

 Cycle   1  Pass 1  IDiag  1:
 E= -33.5563933866243    
 DIIS: error= 6.83D-02 at cycle   1 NSaved=   1.
 NSaved= 1 IEnMin= 1 EnMin= -33.5563933866243     IErMin= 1 ErrMin= 6.83D-02
 ErrMax= 6.83D-02  0.00D+00 EMaxC= 1.00D-01 BMatC= 1.02D-01 BMatP= 1.02D-01
 IDIUse=3 WtCom= 3.17D-01 WtEn= 6.83D-01
 Coeff-Com:  0.100D+01
 Coeff-En:   0.100D+01
 Coeff:      0.100D+01
 Gap=     0.606 Goal=   None    Shift=    0.000
 GapD=    0.606 DampG=2.000 DampE=0.500 DampFc=1.0000 IDamp=-1.
 RMSDP=1.49D-02 MaxDP=1.17D-01              OVMax= 9.96D-02

 Cycle   2  Pass 1  IDiag  1:
 E= -33.6195039650266     Delta-E=       -0.063110578402 Rises=F Damp=F
 DIIS: error= 3.74D-02 at cycle   2 NSaved=   2.
 NSaved= 2 IEnMin= 2 EnMin= -33.6195039650266     IErMin= 2 ErrMin= 3.74D-02
 ErrMax= 3.74D-02  0.00D+00 EMaxC= 1.00D-01 BMatC= 3.84D-02 BMatP= 1.02D-01
 IDIUse=3 WtCom= 6.26D-01 WtEn= 3.74D-01
 Coeff-Com:  0.377D+00 0.623D+00
 Coeff-En:   0.109D+00 0.891D+00
 Coeff:      0.277D+00 0.723D+00
 Gap=     0.705 Goal=   None    Shift=    0.000
 RMSDP=6.42D-03 MaxDP=5.44D-02 DE=-6.31D-02 OVMax= 3.58D-02

 Cycle   3  Pass 1  IDiag  1:
 E= -33.6502060529756     Delta-E=       -0.030702087949 Rises=F Damp=F
 DIIS: error= 7.15D-03 at cycle   3 NSaved=   3.
 NSaved= 3 IEnMin= 3 EnMin= -33.6502060529756     IErMin= 3 ErrMin= 7.15D-03
 ErrMax= 7.15D-03  0.00D+00 EMaxC= 1.00D-01 BMatC= 9.13D-04 BMatP= 3.84D-02
 IDIUse=3 WtCom= 9.29D-01 WtEn= 7.15D-02
 Coeff-Com: -0.114D+00-0.156D-01 0.113D+01
 Coeff-En:   0.000D+00 0.000D+00 0.100D+01
 Coeff:     -0.106D+00-0.145D-01 0.112D+01
 Gap=     0.697 Goal=   None    Shift=    0.000
 RMSDP=1.09D-03 MaxDP=9.33D-03 DE=-3.07D-02 OVMax= 8.14D-03

 Cycle   4  Pass 1  IDiag  1:
 E= -33.6511191013160     Delta-E=       -0.000913048340 Rises=F Damp=F
 DIIS: error= 7.60D-04 at cycle   4 NSaved=   4.
 NSaved= 4 IEnMin= 4 EnMin= -33.6511191013160     IErMin= 4 ErrMin= 7.60D-04
 ErrMax= 7.60D-04  0.00D+00 EMaxC= 1.00D-01 BMatC= 5.98D-06 BMatP= 9.13D-04
 IDIUse=3 WtCom= 9.92D-01 WtEn= 7.60D-03
 Coeff-Com:  0.437D-01-0.178D-01-0.524D+00 0.150D+01
 Coeff-En:   0.000D+00 0.000D+00 0.000D+00 0.100D+01
 Coeff:      0.434D-01-0.177D-01-0.520D+00 0.149D+01
 Gap=     0.699 Goal=   None    Shift=    0.000
 RMSDP=2.37D-04 MaxDP=2.04D-03 DE=-9.13D-04 OVMax= 9.65D-04

 Cycle   5  Pass 1  IDiag  1:
 E= -33.6511323647710     Delta-E=       -0.000013263455 Rises=F Damp=F
 DIIS: error= 5.11D-05 at cycle   5 NSaved=   5.
 NSaved= 5 IEnMin= 5 EnMin= -33.6511323647710     IErMin= 5 ErrMin= 5.11D-05
 ErrMax= 5.11D-05  0.00D+00 EMaxC= 1.00D-01 BMatC= 4.02D-08 BMatP= 5.98D-06
 IDIUse=1 WtCom= 1.00D+00 WtEn= 0.00D+00
 Coeff-Com: -0.710D-02 0.323D-02 0.859D-01-0.295D+00 0.121D+01
 Coeff:     -0.710D-02 0.323D-02 0.859D-01-0.295D+00 0.121D+01
 Gap=     0.699 Goal=   None    Shift=    0.000
 RMSDP=1.61D-05 MaxDP=1.54D-04 DE=-1.33D-05 OVMax= 1.05D-04

 Cycle   6  Pass 1  IDiag  1:
 E= -33.6511324647477     Delta-E=       -0.000000099977 Rises=F Damp=F
 DIIS: error= 9.43D-06 at cycle   6 NSaved=   6.
 NSaved= 6 IEnMin= 6 EnMin= -33.6511324647477     IErMin= 6 ErrMin= 9.43D-06
 ErrMax= 9.43D-06  0.00D+00 EMaxC= 1.00D-01 BMatC= 2.26D-09 BMatP= 4.02D-08
 IDIUse=1 WtCom= 1.00D+00 WtEn= 0.00D+00
 Coeff-Com:  0.120D-02-0.423D-03-0.140D-01 0.547D-01-0.398D+00 0.136D+01
 Coeff:      0.120D-02-0.423D-03-0.140D-01 0.547D-01-0.398D+00 0.136D+01
 Gap=     0.699 Goal=   None    Shift=    0.000
 RMSDP=3.98D-06 MaxDP=4.14D-05 DE=-1.00D-07 OVMax= 3.57D-05

 Cycle   7  Pass 1  IDiag  1:
 E= -33.6511324709195     Delta-E=       -0.000000006172 Rises=F Damp=F
 DIIS: error= 2.30D-06 at cycle   7 NSaved=   7.
 NSaved= 7 IEnMin= 7 EnMin= -33.6511324709195     IErMin= 7 ErrMin= 2.30D-06
 ErrMax= 2.30D-06  0.00D+00 EMaxC= 1.00D-01 BMatC= 1.36D-10 BMatP= 2.26D-09
 IDIUse=1 WtCom= 1.00D+00 WtEn= 0.00D+00
 Coeff-Com:  0.371D-03-0.190D-03-0.454D-02 0.147D-01-0.408D-01-0.762D-01
 Coeff-Com:  0.111D+01
 Coeff:      0.371D-03-0.190D-03-0.454D-02 0.147D-01-0.408D-01-0.762D-01
 Coeff:      0.111D+01
 Gap=     0.699 Goal=   None    Shift=    0.000
 RMSDP=9.59D-07 MaxDP=6.25D-06 DE=-6.17D-09 OVMax= 8.61D-06

 Cycle   8  Pass 1  IDiag  1:
 E= -33.6511324712175     Delta-E=       -0.000000000298 Rises=F Damp=F
 DIIS: error= 7.75D-07 at cycle   8 NSaved=   8.
 NSaved= 8 IEnMin= 8 EnMin= -33.6511324712175     IErMin= 8 ErrMin= 7.75D-07
 ErrMax= 7.75D-07  0.00D+00 EMaxC= 1.00D-01 BMatC= 2.30D-11 BMatP= 1.36D-10
 IDIUse=1 WtCom= 1.00D+00 WtEn= 0.00D+00
 Coeff-Com: -0.180D-06-0.253D-04-0.769D-04-0.839D-03 0.312D-01-0.176D+00
 Coeff-Com:  0.301D+00 0.844D+00
 Coeff:     -0.180D-06-0.253D-04-0.769D-04-0.839D-03 0.312D-01-0.176D+00
 Coeff:      0.301D+00 0.844D+00
 Gap=     0.699 Goal=   None    Shift=    0.000
 RMSDP=3.31D-07 MaxDP=2.55D-06 DE=-2.98D-10 OVMax= 2.71D-06

 Cycle   9  Pass 1  IDiag  1:
 E= -33.6511324712523     Delta-E=       -0.000000000035 Rises=F Damp=F
 DIIS: error= 1.87D-07 at cycle   9 NSaved=   9.
 NSaved= 9 IEnMin= 9 EnMin= -33.6511324712523     IErMin= 9 ErrMin= 1.87D-07
 ErrMax= 1.87D-07  0.00D+00 EMaxC= 1.00D-01 BMatC= 7.37D-13 BMatP= 2.30D-11
 IDIUse=1 WtCom= 1.00D+00 WtEn= 0.00D+00
 Coeff-Com:  0.349D-05 0.769D-05-0.319D-05 0.413D-03-0.125D-01 0.734D-01
 Coeff-Com: -0.168D+00-0.310D+00 0.142D+01
 Coeff:      0.349D-05 0.769D-05-0.319D-05 0.413D-03-0.125D-01 0.734D-01
 Coeff:     -0.168D+00-0.310D+00 0.142D+01
 Gap=     0.699 Goal=   None    Shift=    0.000
 RMSDP=1.29D-07 MaxDP=5.98D-07 DE=-3.48D-11 OVMax= 8.69D-07

 Cycle  10  Pass 1  IDiag  1:
 E= -33.6511324712542     Delta-E=       -0.000000000002 Rises=F Damp=F
 DIIS: error= 7.19D-09 at cycle  10 NSaved=  10.
 NSaved=10 IEnMin=10 EnMin= -33.6511324712542     IErMin=10 ErrMin= 7.19D-09
 ErrMax= 7.19D-09  0.00D+00 EMaxC= 1.00D-01 BMatC= 2.77D-15 BMatP= 7.37D-13
 IDIUse=1 WtCom= 1.00D+00 WtEn= 0.00D+00
 Coeff-Com:  0.851D-07-0.202D-05-0.101D-04-0.583D-04 0.275D-02-0.168D-01
 Coeff-Com:  0.391D-01 0.690D-01-0.369D+00 0.128D+01
 Coeff:      0.851D-07-0.202D-05-0.101D-04-0.583D-04 0.275D-02-0.168D-01
 Coeff:      0.391D-01 0.690D-01-0.369D+00 0.128D+01
 Gap=     0.699 Goal=   None    Shift=    0.000
 RMSDP=1.18D-08 MaxDP=5.42D-08 DE=-1.95D-12 OVMax= 6.73D-08

 Cycle  11  Pass 1  IDiag  1:
 E= -33.6511324712543     Delta-E=       -0.000000000000 Rises=F Damp=F
 DIIS: error= 3.59D-10 at cycle  11 NSaved=  11.
 NSaved=11 IEnMin=11 EnMin= -33.6511324712543     IErMin=11 ErrMin= 3.59D-10
 ErrMax= 3.59D-10  0.00D+00 EMaxC= 1.00D-01 BMatC= 3.57D-18 BMatP= 2.77D-15
 IDIUse=1 WtCom= 1.00D+00 WtEn= 0.00D+00
 Coeff-Com: -0.779D-07 0.354D-06 0.242D-05 0.760D-05-0.463D-03 0.287D-02
 Coeff-Com: -0.674D-02-0.118D-01 0.644D-01-0.241D+00 0.119D+01
 Coeff:     -0.779D-07 0.354D-06 0.242D-05 0.760D-05-0.463D-03 0.287D-02
 Coeff:     -0.674D-02-0.118D-01 0.644D-01-0.241D+00 0.119D+01
 Gap=     0.699 Goal=   None    Shift=    0.000
 RMSDP=2.12D-10 MaxDP=1.09D-09 DE=-4.26D-14 OVMax= 7.92D-10

 SCF Done:  E(RHF) =  -33.6511324713     A.U. after   11 cycles
            NFock= 11  Conv=0.21D-09     -V/T= 2.2570
 KE= 2.677176856283D+01 PE=-1.195996774181D+02 EE= 4.020908146655D+01
 Leave Link  502 at Sun Dec 10 06:55:57 2023, MaxMem=   536870912 cpu:               0.3 elap:               0.1
 (Enter /usr/site/hpc/x86_64/glibc-2.17/broadwell/gaussian/g16_a.03/pgi-16.5/g16/l801.exe)
 Windowed orbitals will be sorted by symmetry type.
 Range of M.O.s used for correlation:     1    24
 NBasis=    24 NAE=     8 NBE=     8 NFC=     0 NFV=     0
 NROrb=     24 NOA=     8 NOB=     8 NVA=    16 NVB=    16
 Leave Link  801 at Sun Dec 10 06:55:57 2023, MaxMem=   536870912 cpu:               0.1 elap:               0.0
 (Enter /usr/site/hpc/x86_64/glibc-2.17/broadwell/gaussian/g16_a.03/pgi-16.5/g16/l804.exe)
 Closed-shell transformation, MDV=   536870912 ITran=4 ISComp=2.
 Unit  1 TFree=       1025975 TCopy=        210600.
 Semi-Direct transformation.
 ModeAB=           4 MOrb=             8 LenV=     536742657
 LASXX=        22470 LTotXX=       22470 LenRXX=       48678
 LTotAB=       26208 MaxLAS=       55296 LenRXY=           0
 NonZer=       71148 LenScr=      524288 LnRSAI=       55296
 LnScr1=      524288 LExtra=           0 Total=      1152550
 MaxDsk=          -1 SrtSym=           T ITran=            4
 DoSDTr:  NPSUse=  4
 JobTyp=0 Pass  1:  I=   1 to   8.
 (rs|ai) integrals will be sorted in core.
 Complete sort for first half transformation.
 First half transformation complete.
 Complete sort for second half transformation.
 Second half transformation complete.
 Spin components of T(2) and E(2):
     alpha-alpha T2 =       0.9069467224D-02 E2=     -0.2589119478D-01
     alpha-beta  T2 =       0.5997112024D-01 E2=     -0.1766400882D+00
     beta-beta   T2 =       0.9069467224D-02 E2=     -0.2589119478D-01
 ANorm=    0.1038320786D+01
 E2 =    -0.2284224778D+00 EUMP2 =    -0.33879554949046D+02
 Leave Link  804 at Sun Dec 10 06:55:57 2023, MaxMem=   536870912 cpu:               0.2 elap:               0.1
 (Enter /usr/site/hpc/x86_64/glibc-2.17/broadwell/gaussian/g16_a.03/pgi-16.5/g16/l913.exe)
 CIDS:  MDV=   536870912.
 IFCWin=0 IBDFC=1 NFBD=     0     0 NFCmp=     0     0 NFFFC=     0     0
 Using DD3R+UMP44R for 1st iteration.
 Using DD4RQ for 2nd and later iterations.
 Keep R2 and R3 ints in memory in symmetry-blocked form, NReq=864360.
 FoFCou: FMM=F IPFlag=           0 FMFlag=           0 FMFlg1=           0
         NFxFlg=           0 DoJE=F BraDBF=F KetDBF=F FulRan=T
         wScrn=  0.000000 ICntrl=       600 IOpCl=  0 I1Cent=           0 NGrid=           0
         NMat0=    1 NMatS0=    300 NMatT0=    0 NMatD0=    1 NMtDS0=    0 NMtDT0=    0
 Petite list used in FoFCou.
 CIDS: In Core Option IDoMem=           1.
 CCSD(T)
 =======
 Iterations=  50 Convergence= 0.100D-06
 Produce multiple copies of IABC intergrals
 Iteration Nr.   1
 **********************
 DD1Dir will call FoFMem   1 times, MxPair=        72
 NAB=    36 NAA=     0 NBB=     0.
 MP4(R+Q)= -0.73731500D-03
 Maximum subspace dimension=  5
 A-vector RMS=  5.7633895D-03 Max=  1.3220081D-02 conv= 1.00D-05.
 RLE energy=       -0.2344974720
 E3=       -0.54551361D-02        EUMP3=      -0.33885010085D+02
 E4(DQ)=   -0.59147603D-02        UMP4(DQ)=   -0.33890924845D+02
 E4(SDQ)=  -0.79442710D-02        UMP4(SDQ)=  -0.33892954356D+02
 VARIATIONAL ENERGIES WITH THE FIRST-ORDER WAVEFUNCTION:
 DE(Corr)= -0.23434043     E(Corr)=     -33.885472901    
 NORM(A)=   0.10417663D+01
 Iteration Nr.   2
 **********************
 DD1Dir will call FoFMem   1 times, MxPair=        72
 NAB=    36 NAA=     0 NBB=     0.
 A-vector RMS=  9.8423505D-04 Max=  2.7385270D-03 conv= 1.00D-05.
 RLE energy=       -0.2422821548
 DE(Corr)= -0.24033547     E(CORR)=     -33.891467940     Delta=-6.00D-03
 NORM(A)=   0.10455699D+01
 Iteration Nr.   3
 **********************
 DD1Dir will call FoFMem   1 times, MxPair=        72
 NAB=    36 NAA=     0 NBB=     0.
 A-vector RMS=  3.8582040D-04 Max=  1.1664012D-03 conv= 1.00D-05.
 RLE energy=       -0.2428333603
 DE(Corr)= -0.24238467     E(CORR)=     -33.893517140     Delta=-2.05D-03
 NORM(A)=   0.10461338D+01
 Iteration Nr.   4
 **********************
 DD1Dir will call FoFMem   1 times, MxPair=        72
 NAB=    36 NAA=     0 NBB=     0.
 A-vector RMS=  9.3144250D-05 Max=  2.5127978D-04 conv= 1.00D-05.
 RLE energy=       -0.2428804740
 DE(Corr)= -0.24284434     E(CORR)=     -33.893976816     Delta=-4.60D-04
 NORM(A)=   0.10462090D+01
 Iteration Nr.   5
 **********************
 DD1Dir will call FoFMem   1 times, MxPair=        72
 NAB=    36 NAA=     0 NBB=     0.
 A-vector RMS=  4.1984007D-05 Max=  1.5365788D-04 conv= 1.00D-05.
 RLE energy=       -0.2428786796
 DE(Corr)= -0.24287664     E(CORR)=     -33.894009113     Delta=-3.23D-05
 NORM(A)=   0.10462198D+01
 Iteration Nr.   6
 **********************
 DD1Dir will call FoFMem   1 times, MxPair=        72
 NAB=    36 NAA=     0 NBB=     0.
 A-vector RMS=  1.1426993D-05 Max=  4.0716414D-05 conv= 1.00D-05.
 RLE energy=       -0.2428778192
 DE(Corr)= -0.24287883     E(CORR)=     -33.894011300     Delta=-2.19D-06
 NORM(A)=   0.10462234D+01
 Iteration Nr.   7
 **********************
 DD1Dir will call FoFMem   1 times, MxPair=        72
 NAB=    36 NAA=     0 NBB=     0.
 A-vector RMS=  3.3465477D-06 Max=  1.2000420D-05 conv= 1.00D-05.
 RLE energy=       -0.2428787414
 DE(Corr)= -0.24287820     E(CORR)=     -33.894010669     Delta= 6.31D-07
 NORM(A)=   0.10462248D+01
 Iteration Nr.   8
 **********************
 DD1Dir will call FoFMem   1 times, MxPair=        72
 NAB=    36 NAA=     0 NBB=     0.
 A-vector RMS=  5.5497215D-07 Max=  1.7545414D-06 conv= 1.00D-05.
 RLE energy=       -0.2428782494
 DE(Corr)= -0.24287825     E(CORR)=     -33.894010724     Delta=-5.55D-08
 NORM(A)=   0.10462249D+01
 CI/CC converged in    8 iterations to DelEn=-5.55D-08 Conv= 1.00D-07 ErrA1= 5.55D-07 Conv= 1.00D-05
 Wavefunction amplitudes converged. E(Corr)=     -33.894010724    
 Largest amplitude= 5.86D-02
 IPart=  4 IA=    2   12.50% done.
 IPart=  2 IA=    3   24.17% done.
 IPart=  3 IA=    4   35.00% done.
 IPart=  3 IA=    5   45.00% done.
 IPart=  2 IA=    6   54.17% done.
 IPart=  4 IA=    7   62.50% done.
 IPart=  1 IA=    8   70.00% done.
 IPart=  2 IA=   10   82.50% done.
 IPart=  1 IA=   12   91.67% done.
 Time for triples=        0.25 seconds.
 T4(CCSD)= -0.30902073D-02
 T5(CCSD)=  0.52681176D-03
 CCSD(T)= -0.33896574120D+02
 Discarding MO integrals.
 Leave Link  913 at Sun Dec 10 06:55:57 2023, MaxMem=   536870912 cpu:               0.8 elap:               0.2
 (Enter /usr/site/hpc/x86_64/glibc-2.17/broadwell/gaussian/g16_a.03/pgi-16.5/g16/l601.exe)
 Copying SCF densities to generalized density rwf, IOpCl= 0 IROHF=0.

 **********************************************************************

            Population analysis using the SCF density.

 **********************************************************************

 Orbital symmetries:
       Occupied  (A') (A') (A') (A') (A') (A') (A") (A")
       Virtual   (A') (A') (A') (A') (A") (A") (A') (A') (A') (A')
                 (A') (A') (A') (A') (A') (A')
 The electronic state is 1-A'.
 Alpha  occ. eigenvalues --   -1.35272  -1.34908  -0.70902  -0.70529  -0.54970
 Alpha  occ. eigenvalues --   -0.54604  -0.49833  -0.49470
 Alpha virt. eigenvalues --    0.20463   0.20834   0.30699   0.31059   0.80720
 Alpha virt. eigenvalues --    0.81078   0.83807   0.84168   0.86895   0.87311
 Alpha virt. eigenvalues --    1.17602   1.17963   1.22066   1.22429   2.57635
 Alpha virt. eigenvalues --    2.57993
          Condensed to atoms (all electrons):
               1          2          3          4          5          6
     1  O    6.212923   0.262322   0.263560   0.000000   0.000000   0.000000
     2  H    0.262322   0.393184  -0.023608   0.000000  -0.000000  -0.000000
     3  H    0.263560  -0.023608   0.389346   0.000000  -0.000000  -0.000000
     4  O    0.000000   0.000000   0.000000   6.212807   0.261794   0.263817
     5  H    0.000000  -0.000000  -0.000000   0.261794   0.394863  -0.023657
     6  H    0.000000  -0.000000  -0.000000   0.263817  -0.023657   0.388423
 Mulliken charges:
               1
     1  O   -0.738804
     2  H    0.368103
     3  H    0.370702
     4  O   -0.738418
     5  H    0.367001
     6  H    0.371417
 Sum of Mulliken charges =   0.00000
 Mulliken charges with hydrogens summed into heavy atoms:
               1
     1  O    0.000000
     4  O   -0.000000
 Electronic spatial extent (au):  <R**2>=            586.7903
 Charge=              0.0000 electrons
 Dipole moment (field-independent basis, Debye):
    X=             -2.0918    Y=             -1.0439    Z=              0.0000  Tot=              2.3378
 Quadrupole moment (field-independent basis, Debye-Ang):
   XX=             -9.3723   YY=             15.0571   ZZ=            -14.9877
   XY=             -5.6001   XZ=              0.0000   YZ=              0.0000
 Traceless Quadrupole moment (field-independent basis, Debye-Ang):
   XX=             -6.2713   YY=             18.1581   ZZ=            -11.8867
   XY=             -5.6001   XZ=              0.0000   YZ=              0.0000
 Octapole moment (field-independent basis, Debye-Ang**2):
  XXX=             -1.8891  YYY=            -15.9560  ZZZ=              0.0000  XYY=            -13.1464
  XXY=             -5.8496  XXZ=              0.0000  XZZ=             -0.3924  YZZ=             -0.1979
  YYZ=              0.0000  XYZ=              0.0000
 Hexadecapole moment (field-independent basis, Debye-Ang**3):
 XXXX=            -11.9847 YYYY=           -118.6442 ZZZZ=            -12.2194 XXXY=             -2.3787
 XXXZ=              0.0000 YYYX=            -34.1680 YYYZ=              0.0000 ZZZX=              0.0000
 ZZZY=              0.0000 XXYY=            -88.4275 XXZZ=             -4.5656 YYZZ=           -146.1471
 XXYZ=              0.0000 YYXZ=              0.0000 ZZXY=              0.8068
 N-N= 1.896769491743D+01 E-N=-1.195996774234D+02  KE= 2.677176856283D+01
 Symmetry A'   KE= 1.788743527335D+01
 Symmetry A"   KE= 8.884333289482D+00
 Leave Link  601 at Sun Dec 10 06:55:57 2023, MaxMem=   536870912 cpu:               0.1 elap:               0.0
 (Enter /usr/site/hpc/x86_64/glibc-2.17/broadwell/gaussian/g16_a.03/pgi-16.5/g16/l9999.exe)
 1\1\GINC-N045\SP\RCCSD(T)-FC\CEP-31G\H4O2\ROOT\10-Dec-2023\0\\#p CCSD(
 T)/CEP-31G\\H2O_H2O_4214\\0,1\O,0,0.,-0.009833,0.\H,0,-0.799571,-0.580
 965,0.\H,0,0.799571,-0.580965,0.\O,0,-0.007801,6.060943,0.\H,0,0.02583
 8,7.042969,0.\H,0,-0.947659,5.774284,0.\\Version=ES64L-G16RevA.03\Stat
 e=1-A'\HF=-33.6511325\MP2=-33.8795549\MP3=-33.8850101\MP4D=-33.8901875
 \MP4DQ=-33.8909248\MP4SDQ=-33.8929544\CCSD=-33.8940107\CCSD(T)=-33.896
 5741\RMSD=2.115e-10\PG=CS [SG(H4O2)]\\@


 THE RARE EARTHS PERPLEX US IN OUR RESEARCHES,
 BAFFLE US IN OUR SPECULATIONS, AND HAUNT US IN OUR
 VERY DREAMS.  THEY STRETCH LIKE AN UNKNOWN BEFORE US,
 MOCKING, MYSTIFYING, AND MURMURING STRANGE REVELATIONS
 AND POSSIBILITIES.  -- SIR WILLIAM CROOKE, 1832-1919
 Job cpu time:       0 days  0 hours  0 minutes  3.2 seconds.
 Elapsed time:       0 days  0 hours  0 minutes  1.0 seconds.
 File lengths (MBytes):  RWF=     72 Int=      0 D2E=      0 Chk=      8 Scr=      8
 Normal termination of Gaussian 16 at Sun Dec 10 06:55:57 2023.
