 Entering Gaussian System, Link 0=g16
 Input=H2O_H2O_3308.com
 Output=H2O_H2O_3308.log
 Initial command:
 /usr/site/hpc/x86_64/glibc-2.17/broadwell/gaussian/g16_a.03/pgi-16.5/g16/l1.exe "/gpfs/gpfs1/scratch/c7441090/OO Coord/Gau-1762943.inp" -scrdir="/gpfs/gpfs1/scratch/c7441090/OO Coord/"
 Entering Link 1 = /usr/site/hpc/x86_64/glibc-2.17/broadwell/gaussian/g16_a.03/pgi-16.5/g16/l1.exe PID=   1762944.
  
 Copyright (c) 1988,1990,1992,1993,1995,1998,2003,2009,2016,
            Gaussian, Inc.  All Rights Reserved.
  
 This is part of the Gaussian(R) 16 program.  It is based on
 the Gaussian(R) 09 system (copyright 2009, Gaussian, Inc.),
 the Gaussian(R) 03 system (copyright 2003, Gaussian, Inc.),
 the Gaussian(R) 98 system (copyright 1998, Gaussian, Inc.),
 the Gaussian(R) 94 system (copyright 1995, Gaussian, Inc.),
 the Gaussian 92(TM) system (copyright 1992, Gaussian, Inc.),
 the Gaussian 90(TM) system (copyright 1990, Gaussian, Inc.),
 the Gaussian 88(TM) system (copyright 1988, Gaussian, Inc.),
 the Gaussian 86(TM) system (copyright 1986, Carnegie Mellon
 University), and the Gaussian 82(TM) system (copyright 1983,
 Carnegie Mellon University). Gaussian is a federally registered
 trademark of Gaussian, Inc.
  
 This software contains proprietary and confidential information,
 including trade secrets, belonging to Gaussian, Inc.
  
 This software is provided under written license and may be
 used, copied, transmitted, or stored only in accord with that
 written license.
  
 The following legend is applicable only to US Government
 contracts under FAR:
  
                    RESTRICTED RIGHTS LEGEND
  
 Use, reproduction and disclosure by the US Government is
 subject to restrictions as set forth in subparagraphs (a)
 and (c) of the Commercial Computer Software - Restricted
 Rights clause in FAR 52.227-19.
  
 Gaussian, Inc.
 340 Quinnipiac St., Bldg. 40, Wallingford CT 06492
  
  
 ---------------------------------------------------------------
 Warning -- This program may not be used in any manner that
 competes with the business of Gaussian, Inc. or will provide
 assistance to any competitor of Gaussian, Inc.  The licensee
 of this program is prohibited from giving any competitor of
 Gaussian, Inc. access to this program.  By using this program,
 the user acknowledges that Gaussian, Inc. is engaged in the
 business of creating and licensing software in the field of
 computational chemistry and represents and warrants to the
 licensee that it is not a competitor of Gaussian, Inc. and that
 it will not use this program in any manner prohibited above.
 ---------------------------------------------------------------
  

 Cite this work as:
 Gaussian 16, Revision A.03,
 M. J. Frisch, G. W. Trucks, H. B. Schlegel, G. E. Scuseria, 
 M. A. Robb, J. R. Cheeseman, G. Scalmani, V. Barone, 
 G. A. Petersson, H. Nakatsuji, X. Li, M. Caricato, A. V. Marenich, 
 J. Bloino, B. G. Janesko, R. Gomperts, B. Mennucci, H. P. Hratchian, 
 J. V. Ortiz, A. F. Izmaylov, J. L. Sonnenberg, D. Williams-Young, 
 F. Ding, F. Lipparini, F. Egidi, J. Goings, B. Peng, A. Petrone, 
 T. Henderson, D. Ranasinghe, V. G. Zakrzewski, J. Gao, N. Rega, 
 G. Zheng, W. Liang, M. Hada, M. Ehara, K. Toyota, R. Fukuda, 
 J. Hasegawa, M. Ishida, T. Nakajima, Y. Honda, O. Kitao, H. Nakai, 
 T. Vreven, K. Throssell, J. A. Montgomery, Jr., J. E. Peralta, 
 F. Ogliaro, M. J. Bearpark, J. J. Heyd, E. N. Brothers, K. N. Kudin, 
 V. N. Staroverov, T. A. Keith, R. Kobayashi, J. Normand, 
 K. Raghavachari, A. P. Rendell, J. C. Burant, S. S. Iyengar, 
 J. Tomasi, M. Cossi, J. M. Millam, M. Klene, C. Adamo, R. Cammi, 
 J. W. Ochterski, R. L. Martin, K. Morokuma, O. Farkas, 
 J. B. Foresman, and D. J. Fox, Gaussian, Inc., Wallingford CT, 2016.
 
 ******************************************
 Gaussian 16:  ES64L-G16RevA.03 25-Dec-2016
                10-Dec-2023 
 ******************************************
 %NProcShared=4
 Will use up to    4 processors via shared memory.
 %Mem=4GB
 %Chk=H2O_H2O_3308.chk
 ------------------
 #p CCSD(T)/CEP-31G
 ------------------
 1/38=1,172=1/1;
 2/12=2,17=6,18=5,40=1/2;
 3/5=9,6=1,11=9,25=1,30=1/1,2,3;
 4//1;
 5/5=2,38=5/2;
 8/6=4,9=120000,10=1/1,4;
 9/5=7,14=2/13;
 6/7=2,8=2,9=2,10=2/1;
 99/5=1,9=1/99;
 Leave Link    1 at Sun Dec 10 06:39:23 2023, MaxMem=   536870912 cpu:               0.2 elap:               0.1
 (Enter /usr/site/hpc/x86_64/glibc-2.17/broadwell/gaussian/g16_a.03/pgi-16.5/g16/l101.exe)
 ------------
 H2O_H2O_3308
 ------------
 Symbolic Z-matrix:
 Charge =  0 Multiplicity = 1
 O                     0.       -0.00983   0. 
 H                    -0.79957  -0.58097   0. 
 H                     0.79957  -0.58097   0. 
 O                    -0.00492   5.10617   0. 
 H                     0.40197   6.00057   0. 
 H                    -0.98293   5.201     0. 
 
 ITRead=  0  0  0  0  0  0
 MicOpt= -1 -1 -1 -1 -1 -1
 NAtoms=      6 NQM=        6 NQMF=       0 NMMI=      0 NMMIF=      0
                NMic=       0 NMicF=      0.
                    Isotopes and Nuclear Properties:
 (Nuclear quadrupole moments (NQMom) in fm**2, nuclear magnetic moments (NMagM)
  in nuclear magnetons)

  Atom         1           2           3           4           5           6
 IAtWgt=          16           1           1          16           1           1
 AtmWgt=  15.9949146   1.0078250   1.0078250  15.9949146   1.0078250   1.0078250
 NucSpn=           0           1           1           0           1           1
 AtZEff=  -0.0000000  -0.0000000  -0.0000000  -0.0000000  -0.0000000  -0.0000000
 NQMom=    0.0000000   0.0000000   0.0000000   0.0000000   0.0000000   0.0000000
 NMagM=    0.0000000   2.7928460   2.7928460   0.0000000   2.7928460   2.7928460
 AtZNuc=   8.0000000   1.0000000   1.0000000   8.0000000   1.0000000   1.0000000
 Leave Link  101 at Sun Dec 10 06:39:23 2023, MaxMem=   536870912 cpu:               0.3 elap:               0.1
 (Enter /usr/site/hpc/x86_64/glibc-2.17/broadwell/gaussian/g16_a.03/pgi-16.5/g16/l202.exe)
                          Input orientation:                          
 ---------------------------------------------------------------------
 Center     Atomic      Atomic             Coordinates (Angstroms)
 Number     Number       Type             X           Y           Z
 ---------------------------------------------------------------------
      1          8           0        0.000000   -0.009833    0.000000
      2          1           0       -0.799571   -0.580965    0.000000
      3          1           0        0.799571   -0.580965    0.000000
      4          8           0       -0.004917    5.106167    0.000000
      5          1           0        0.401967    6.000568    0.000000
      6          1           0       -0.982932    5.200996    0.000000
 ---------------------------------------------------------------------
                    Distance matrix (angstroms):
                    1          2          3          4          5
     1  O    0.000000
     2  H    0.982601   0.000000
     3  H    0.982601   1.599142   0.000000
     4  O    5.116002   5.742382   5.743751   0.000000
     5  H    6.023827   6.690312   6.593532   0.982603   0.000000
     6  H    5.302725   5.784868   6.050487   0.982602   1.599144
                    6
     6  H    0.000000
 Stoichiometry    H4O2
 Framework group  CS[SG(H4O2)]
 Deg. of freedom     9
 Full point group                 CS      NOp   2
 Largest Abelian subgroup         CS      NOp   2
 Largest concise Abelian subgroup C1      NOp   1
                         Standard orientation:                         
 ---------------------------------------------------------------------
 Center     Atomic      Atomic             Coordinates (Angstroms)
 Number     Number       Type             X           Y           Z
 ---------------------------------------------------------------------
      1          8           0        0.028564   -2.550377    0.000000
      2          1           0       -0.771556   -3.120740    0.000000
      3          1           0        0.827586   -3.122277    0.000000
      4          8           0        0.028564    2.565625    0.000000
      5          1           0        0.436307    3.459635    0.000000
      6          1           0       -0.949360    2.661394    0.000000
 ---------------------------------------------------------------------
 Rotational constants (GHZ):         210.1393274           2.0364236           2.0168784
 Leave Link  202 at Sun Dec 10 06:39:23 2023, MaxMem=   536870912 cpu:               0.0 elap:               0.0
 (Enter /usr/site/hpc/x86_64/glibc-2.17/broadwell/gaussian/g16_a.03/pgi-16.5/g16/l301.exe)
 Standard basis: CEP-31G (6D, 10F)
 Ernie: Thresh=  0.10000D-02 Tol=  0.10000D-05 Strict=F.
 There are    20 symmetry adapted cartesian basis functions of A'  symmetry.
 There are     4 symmetry adapted cartesian basis functions of A"  symmetry.
 There are    20 symmetry adapted basis functions of A'  symmetry.
 There are     4 symmetry adapted basis functions of A"  symmetry.
    24 basis functions,    48 primitive gaussians,    24 cartesian basis functions
     8 alpha electrons        8 beta electrons
       nuclear repulsion energy        19.8804759100 Hartrees.
 IExCor=    0 DFT=F Ex=HF Corr=None ExCW=0 ScaHFX=  1.000000
 ScaDFX=  1.000000  1.000000  1.000000  1.000000 ScalE2=  1.000000  1.000000
 IRadAn=      5 IRanWt=     -1 IRanGd=            0 ICorTp=0 IEmpDi=  4
 NAtoms=    6 NActive=    6 NUniq=    6 SFac= 1.00D+00 NAtFMM=   60 NAOKFM=F Big=F
 Integral buffers will be    131072 words long.
 Raffenetti 1 integral format.
 Two-electron integral symmetry is turned on.
 Leave Link  301 at Sun Dec 10 06:39:23 2023, MaxMem=   536870912 cpu:               0.2 elap:               0.1
 (Enter /usr/site/hpc/x86_64/glibc-2.17/broadwell/gaussian/g16_a.03/pgi-16.5/g16/l302.exe)
 NPDir=0 NMtPBC=     1 NCelOv=     1 NCel=       1 NClECP=     1 NCelD=      1
         NCelK=      1 NCelE2=     1 NClLst=     1 CellRange=     0.0.
 One-electron integrals computed using PRISM.
 One-electron integral symmetry used in STVInt
   2 Symmetry operations used in ECPInt.
 ECPInt:  NShTT=      78 NPrTT=     318 LenC2=      79 LenP2D=     248.
 LDataN:  DoStor=T MaxTD1= 2 Len=   12
 NBasis=    24 RedAO= T EigKep=  3.86D-02  NBF=    20     4
 NBsUse=    24 1.00D-06 EigRej= -1.00D+00 NBFU=    20     4
 Leave Link  302 at Sun Dec 10 06:39:23 2023, MaxMem=   536870912 cpu:               0.3 elap:               0.1
 (Enter /usr/site/hpc/x86_64/glibc-2.17/broadwell/gaussian/g16_a.03/pgi-16.5/g16/l303.exe)
 DipDrv:  MaxL=1.
 Leave Link  303 at Sun Dec 10 06:39:23 2023, MaxMem=   536870912 cpu:               0.1 elap:               0.0
 (Enter /usr/site/hpc/x86_64/glibc-2.17/broadwell/gaussian/g16_a.03/pgi-16.5/g16/l401.exe)
 ExpMin= 1.78D-01 ExpMax= 1.92D+01 ExpMxC= 1.92D+01 IAcc=3 IRadAn=         5 AccDes= 0.00D+00
 Harris functional with IExCor=  205 and IRadAn=       5 diagonalized for initial guess.
 HarFok:  IExCor=  205 AccDes= 0.00D+00 IRadAn=         5 IDoV= 1 UseB2=F ITyADJ=14
 ICtDFT=  3500011 ScaDFX=  1.000000  1.000000  1.000000  1.000000
 FoFCou: FMM=F IPFlag=           0 FMFlag=      100000 FMFlg1=           0
         NFxFlg=           0 DoJE=T BraDBF=F KetDBF=T FulRan=T
         wScrn=  0.000000 ICntrl=       500 IOpCl=  0 I1Cent=   200000004 NGrid=           0
         NMat0=    1 NMatS0=      1 NMatT0=    0 NMatD0=    1 NMtDS0=    0 NMtDT0=    0
 Petite list used in FoFCou.
 Harris En= -34.4763681231040    
 JPrj=0 DoOrth=F DoCkMO=F.
 Initial guess orbital symmetries:
       Occupied  (A') (A') (A') (A') (A') (A') (A") (A")
       Virtual   (A') (A') (A') (A') (A") (A") (A') (A') (A') (A')
                 (A') (A') (A') (A') (A') (A')
 The electronic state of the initial guess is 1-A'.
 Leave Link  401 at Sun Dec 10 06:39:23 2023, MaxMem=   536870912 cpu:               0.4 elap:               0.1
 (Enter /usr/site/hpc/x86_64/glibc-2.17/broadwell/gaussian/g16_a.03/pgi-16.5/g16/l502.exe)
 Keep R1 ints in memory in symmetry-blocked form, NReq=851881.
 FoFCou: FMM=F IPFlag=           0 FMFlag=           0 FMFlg1=           0
         NFxFlg=           0 DoJE=F BraDBF=F KetDBF=F FulRan=T
         wScrn=  0.000000 ICntrl=       600 IOpCl=  0 I1Cent=           0 NGrid=           0
         NMat0=    1 NMatS0=    300 NMatT0=    0 NMatD0=    1 NMtDS0=    0 NMtDT0=    0
 Petite list used in FoFCou.
 Closed shell SCF:
 Using DIIS extrapolation, IDIIS=  1040.
 NGot=   536870912 LenX=   536840576 LenY=   536839559
 Requested convergence on RMS density matrix=1.00D-08 within 128 cycles.
 Requested convergence on MAX density matrix=1.00D-06.
 Requested convergence on             energy=1.00D-06.
 No special actions if energy rises.

 Cycle   1  Pass 1  IDiag  1:
 E= -33.5545308818187    
 DIIS: error= 6.93D-02 at cycle   1 NSaved=   1.
 NSaved= 1 IEnMin= 1 EnMin= -33.5545308818187     IErMin= 1 ErrMin= 6.93D-02
 ErrMax= 6.93D-02  0.00D+00 EMaxC= 1.00D-01 BMatC= 1.03D-01 BMatP= 1.03D-01
 IDIUse=3 WtCom= 3.07D-01 WtEn= 6.93D-01
 Coeff-Com:  0.100D+01
 Coeff-En:   0.100D+01
 Coeff:      0.100D+01
 Gap=     0.604 Goal=   None    Shift=    0.000
 GapD=    0.604 DampG=2.000 DampE=0.500 DampFc=1.0000 IDamp=-1.
 RMSDP=1.50D-02 MaxDP=1.18D-01              OVMax= 1.00D-01

 Cycle   2  Pass 1  IDiag  1:
 E= -33.6180700356656     Delta-E=       -0.063539153847 Rises=F Damp=F
 DIIS: error= 3.76D-02 at cycle   2 NSaved=   2.
 NSaved= 2 IEnMin= 2 EnMin= -33.6180700356656     IErMin= 2 ErrMin= 3.76D-02
 ErrMax= 3.76D-02  0.00D+00 EMaxC= 1.00D-01 BMatC= 3.87D-02 BMatP= 1.03D-01
 IDIUse=3 WtCom= 6.24D-01 WtEn= 3.76D-01
 Coeff-Com:  0.378D+00 0.622D+00
 Coeff-En:   0.108D+00 0.892D+00
 Coeff:      0.276D+00 0.724D+00
 Gap=     0.706 Goal=   None    Shift=    0.000
 RMSDP=6.46D-03 MaxDP=5.47D-02 DE=-6.35D-02 OVMax= 3.60D-02

 Cycle   3  Pass 1  IDiag  1:
 E= -33.6489729966405     Delta-E=       -0.030902960975 Rises=F Damp=F
 DIIS: error= 7.30D-03 at cycle   3 NSaved=   3.
 NSaved= 3 IEnMin= 3 EnMin= -33.6489729966405     IErMin= 3 ErrMin= 7.30D-03
 ErrMax= 7.30D-03  0.00D+00 EMaxC= 1.00D-01 BMatC= 9.32D-04 BMatP= 3.87D-02
 IDIUse=3 WtCom= 9.27D-01 WtEn= 7.30D-02
 Coeff-Com: -0.114D+00-0.146D-01 0.113D+01
 Coeff-En:   0.000D+00 0.000D+00 0.100D+01
 Coeff:     -0.106D+00-0.136D-01 0.112D+01
 Gap=     0.698 Goal=   None    Shift=    0.000
 RMSDP=1.11D-03 MaxDP=9.43D-03 DE=-3.09D-02 OVMax= 8.25D-03

 Cycle   4  Pass 1  IDiag  1:
 E= -33.6499070616385     Delta-E=       -0.000934064998 Rises=F Damp=F
 DIIS: error= 7.75D-04 at cycle   4 NSaved=   4.
 NSaved= 4 IEnMin= 4 EnMin= -33.6499070616385     IErMin= 4 ErrMin= 7.75D-04
 ErrMax= 7.75D-04  0.00D+00 EMaxC= 1.00D-01 BMatC= 6.21D-06 BMatP= 9.32D-04
 IDIUse=3 WtCom= 9.92D-01 WtEn= 7.75D-03
 Coeff-Com:  0.436D-01-0.183D-01-0.519D+00 0.149D+01
 Coeff-En:   0.000D+00 0.000D+00 0.000D+00 0.100D+01
 Coeff:      0.432D-01-0.182D-01-0.515D+00 0.149D+01
 Gap=     0.700 Goal=   None    Shift=    0.000
 RMSDP=2.39D-04 MaxDP=2.06D-03 DE=-9.34D-04 OVMax= 9.74D-04

 Cycle   5  Pass 1  IDiag  1:
 E= -33.6499206735248     Delta-E=       -0.000013611886 Rises=F Damp=F
 DIIS: error= 5.28D-05 at cycle   5 NSaved=   5.
 NSaved= 5 IEnMin= 5 EnMin= -33.6499206735248     IErMin= 5 ErrMin= 5.28D-05
 ErrMax= 5.28D-05  0.00D+00 EMaxC= 1.00D-01 BMatC= 4.32D-08 BMatP= 6.21D-06
 IDIUse=1 WtCom= 1.00D+00 WtEn= 0.00D+00
 Coeff-Com: -0.717D-02 0.336D-02 0.861D-01-0.299D+00 0.122D+01
 Coeff:     -0.717D-02 0.336D-02 0.861D-01-0.299D+00 0.122D+01
 Gap=     0.700 Goal=   None    Shift=    0.000
 RMSDP=1.67D-05 MaxDP=1.60D-04 DE=-1.36D-05 OVMax= 1.10D-04

 Cycle   6  Pass 1  IDiag  1:
 E= -33.6499207814699     Delta-E=       -0.000000107945 Rises=F Damp=F
 DIIS: error= 1.14D-05 at cycle   6 NSaved=   6.
 NSaved= 6 IEnMin= 6 EnMin= -33.6499207814699     IErMin= 6 ErrMin= 1.14D-05
 ErrMax= 1.14D-05  0.00D+00 EMaxC= 1.00D-01 BMatC= 2.40D-09 BMatP= 4.32D-08
 IDIUse=1 WtCom= 1.00D+00 WtEn= 0.00D+00
 Coeff-Com:  0.123D-02-0.443D-03-0.142D-01 0.562D-01-0.405D+00 0.136D+01
 Coeff:      0.123D-02-0.443D-03-0.142D-01 0.562D-01-0.405D+00 0.136D+01
 Gap=     0.700 Goal=   None    Shift=    0.000
 RMSDP=4.10D-06 MaxDP=4.27D-05 DE=-1.08D-07 OVMax= 3.66D-05

 Cycle   7  Pass 1  IDiag  1:
 E= -33.6499207880436     Delta-E=       -0.000000006574 Rises=F Damp=F
 DIIS: error= 2.28D-06 at cycle   7 NSaved=   7.
 NSaved= 7 IEnMin= 7 EnMin= -33.6499207880436     IErMin= 7 ErrMin= 2.28D-06
 ErrMax= 2.28D-06  0.00D+00 EMaxC= 1.00D-01 BMatC= 1.32D-10 BMatP= 2.40D-09
 IDIUse=1 WtCom= 1.00D+00 WtEn= 0.00D+00
 Coeff-Com:  0.317D-03-0.177D-03-0.389D-02 0.123D-01-0.221D-01-0.133D+00
 Coeff-Com:  0.115D+01
 Coeff:      0.317D-03-0.177D-03-0.389D-02 0.123D-01-0.221D-01-0.133D+00
 Coeff:      0.115D+01
 Gap=     0.700 Goal=   None    Shift=    0.000
 RMSDP=1.00D-06 MaxDP=6.31D-06 DE=-6.57D-09 OVMax= 8.78D-06

 Cycle   8  Pass 1  IDiag  1:
 E= -33.6499207883478     Delta-E=       -0.000000000304 Rises=F Damp=F
 DIIS: error= 6.95D-07 at cycle   8 NSaved=   8.
 NSaved= 8 IEnMin= 8 EnMin= -33.6499207883478     IErMin= 8 ErrMin= 6.95D-07
 ErrMax= 6.95D-07  0.00D+00 EMaxC= 1.00D-01 BMatC= 2.18D-11 BMatP= 1.32D-10
 IDIUse=1 WtCom= 1.00D+00 WtEn= 0.00D+00
 Coeff-Com:  0.367D-06-0.266D-04-0.953D-04-0.845D-03 0.312D-01-0.174D+00
 Coeff-Com:  0.323D+00 0.821D+00
 Coeff:      0.367D-06-0.266D-04-0.953D-04-0.845D-03 0.312D-01-0.174D+00
 Coeff:      0.323D+00 0.821D+00
 Gap=     0.700 Goal=   None    Shift=    0.000
 RMSDP=3.15D-07 MaxDP=2.37D-06 DE=-3.04D-10 OVMax= 2.56D-06

 Cycle   9  Pass 1  IDiag  1:
 E= -33.6499207883800     Delta-E=       -0.000000000032 Rises=F Damp=F
 DIIS: error= 1.92D-07 at cycle   9 NSaved=   9.
 NSaved= 9 IEnMin= 9 EnMin= -33.6499207883800     IErMin= 9 ErrMin= 1.92D-07
 ErrMax= 1.92D-07  0.00D+00 EMaxC= 1.00D-01 BMatC= 8.00D-13 BMatP= 2.18D-11
 IDIUse=1 WtCom= 1.00D+00 WtEn= 0.00D+00
 Coeff-Com:  0.317D-05 0.848D-05 0.670D-05 0.412D-03-0.127D-01 0.735D-01
 Coeff-Com: -0.184D+00-0.281D+00 0.140D+01
 Coeff:      0.317D-05 0.848D-05 0.670D-05 0.412D-03-0.127D-01 0.735D-01
 Coeff:     -0.184D+00-0.281D+00 0.140D+01
 Gap=     0.700 Goal=   None    Shift=    0.000
 RMSDP=1.35D-07 MaxDP=6.25D-07 DE=-3.22D-11 OVMax= 9.11D-07

 Cycle  10  Pass 1  IDiag  1:
 E= -33.6499207883822     Delta-E=       -0.000000000002 Rises=F Damp=F
 DIIS: error= 8.78D-09 at cycle  10 NSaved=  10.
 NSaved=10 IEnMin=10 EnMin= -33.6499207883822     IErMin=10 ErrMin= 8.78D-09
 ErrMax= 8.78D-09  0.00D+00 EMaxC= 1.00D-01 BMatC= 2.74D-15 BMatP= 8.00D-13
 IDIUse=1 WtCom= 1.00D+00 WtEn= 0.00D+00
 Coeff-Com:  0.117D-06-0.215D-05-0.116D-04-0.588D-04 0.275D-02-0.166D-01
 Coeff-Com:  0.422D-01 0.609D-01-0.358D+00 0.127D+01
 Coeff:      0.117D-06-0.215D-05-0.116D-04-0.588D-04 0.275D-02-0.166D-01
 Coeff:      0.422D-01 0.609D-01-0.358D+00 0.127D+01
 Gap=     0.700 Goal=   None    Shift=    0.000
 RMSDP=1.17D-08 MaxDP=5.68D-08 DE=-2.13D-12 OVMax= 6.63D-08

 Cycle  11  Pass 1  IDiag  1:
 E= -33.6499207883822     Delta-E=       -0.000000000000 Rises=F Damp=F
 DIIS: error= 3.52D-10 at cycle  11 NSaved=  11.
 NSaved=11 IEnMin=11 EnMin= -33.6499207883822     IErMin=11 ErrMin= 3.52D-10
 ErrMax= 3.52D-10  0.00D+00 EMaxC= 1.00D-01 BMatC= 3.68D-18 BMatP= 2.74D-15
 IDIUse=1 WtCom= 1.00D+00 WtEn= 0.00D+00
 Coeff-Com: -0.815D-07 0.370D-06 0.262D-05 0.763D-05-0.456D-03 0.279D-02
 Coeff-Com: -0.717D-02-0.102D-01 0.618D-01-0.237D+00 0.119D+01
 Coeff:     -0.815D-07 0.370D-06 0.262D-05 0.763D-05-0.456D-03 0.279D-02
 Coeff:     -0.717D-02-0.102D-01 0.618D-01-0.237D+00 0.119D+01
 Gap=     0.700 Goal=   None    Shift=    0.000
 RMSDP=2.11D-10 MaxDP=1.07D-09 DE=-2.84D-14 OVMax= 7.89D-10

 SCF Done:  E(RHF) =  -33.6499207884     A.U. after   11 cycles
            NFock= 11  Conv=0.21D-09     -V/T= 2.2570
 KE= 2.676977606153D+01 PE=-1.214790705030D+02 EE= 4.117889774313D+01
 Leave Link  502 at Sun Dec 10 06:39:24 2023, MaxMem=   536870912 cpu:               0.3 elap:               0.1
 (Enter /usr/site/hpc/x86_64/glibc-2.17/broadwell/gaussian/g16_a.03/pgi-16.5/g16/l801.exe)
 Windowed orbitals will be sorted by symmetry type.
 Range of M.O.s used for correlation:     1    24
 NBasis=    24 NAE=     8 NBE=     8 NFC=     0 NFV=     0
 NROrb=     24 NOA=     8 NOB=     8 NVA=    16 NVB=    16
 Leave Link  801 at Sun Dec 10 06:39:24 2023, MaxMem=   536870912 cpu:               0.1 elap:               0.0
 (Enter /usr/site/hpc/x86_64/glibc-2.17/broadwell/gaussian/g16_a.03/pgi-16.5/g16/l804.exe)
 Closed-shell transformation, MDV=   536870912 ITran=4 ISComp=2.
 Unit  1 TFree=       1025975 TCopy=        210600.
 Semi-Direct transformation.
 ModeAB=           4 MOrb=             8 LenV=     536742468
 LASXX=        22470 LTotXX=       22470 LenRXX=       48678
 LTotAB=       26208 MaxLAS=       55296 LenRXY=           0
 NonZer=       71148 LenScr=      524288 LnRSAI=       55296
 LnScr1=      524288 LExtra=           0 Total=      1152550
 MaxDsk=          -1 SrtSym=           T ITran=            4
 DoSDTr:  NPSUse=  4
 JobTyp=0 Pass  1:  I=   1 to   8.
 (rs|ai) integrals will be sorted in core.
 Complete sort for first half transformation.
 First half transformation complete.
 Complete sort for second half transformation.
 Second half transformation complete.
 Spin components of T(2) and E(2):
     alpha-alpha T2 =       0.9073837446D-02 E2=     -0.2589278129D-01
     alpha-beta  T2 =       0.6002814370D-01 E2=     -0.1767078445D+00
     beta-beta   T2 =       0.9073837446D-02 E2=     -0.2589278129D-01
 ANorm=    0.1038352454D+01
 E2 =    -0.2284934071D+00 EUMP2 =    -0.33878414195453D+02
 Leave Link  804 at Sun Dec 10 06:39:24 2023, MaxMem=   536870912 cpu:               0.2 elap:               0.1
 (Enter /usr/site/hpc/x86_64/glibc-2.17/broadwell/gaussian/g16_a.03/pgi-16.5/g16/l913.exe)
 CIDS:  MDV=   536870912.
 IFCWin=0 IBDFC=1 NFBD=     0     0 NFCmp=     0     0 NFFFC=     0     0
 Using DD3R+UMP44R for 1st iteration.
 Using DD4RQ for 2nd and later iterations.
 Keep R2 and R3 ints in memory in symmetry-blocked form, NReq=864489.
 FoFCou: FMM=F IPFlag=           0 FMFlag=           0 FMFlg1=           0
         NFxFlg=           0 DoJE=F BraDBF=F KetDBF=F FulRan=T
         wScrn=  0.000000 ICntrl=       600 IOpCl=  0 I1Cent=           0 NGrid=           0
         NMat0=    1 NMatS0=    300 NMatT0=    0 NMatD0=    1 NMtDS0=    0 NMtDT0=    0
 Petite list used in FoFCou.
 CIDS: In Core Option IDoMem=           1.
 CCSD(T)
 =======
 Iterations=  50 Convergence= 0.100D-06
 Produce multiple copies of IABC intergrals
 Iteration Nr.   1
 **********************
 DD1Dir will call FoFMem   1 times, MxPair=        72
 NAB=    36 NAA=     0 NBB=     0.
 MP4(R+Q)= -0.73128944D-03
 Maximum subspace dimension=  5
 A-vector RMS=  5.7722352D-03 Max=  1.3140625D-02 conv= 1.00D-05.
 RLE energy=       -0.2345841746
 E3=       -0.54762637D-02        EUMP3=      -0.33883890459D+02
 E4(DQ)=   -0.59189003D-02        UMP4(DQ)=   -0.33889809359D+02
 E4(SDQ)=  -0.79518670D-02        UMP4(SDQ)=  -0.33891842326D+02
 VARIATIONAL ENERGIES WITH THE FIRST-ORDER WAVEFUNCTION:
 DE(Corr)= -0.23442637     E(Corr)=     -33.884347161    
 NORM(A)=   0.10418103D+01
 Iteration Nr.   2
 **********************
 DD1Dir will call FoFMem   1 times, MxPair=        72
 NAB=    36 NAA=     0 NBB=     0.
 A-vector RMS=  9.8596186D-04 Max=  2.7408943D-03 conv= 1.00D-05.
 RLE energy=       -0.2423823828
 DE(Corr)= -0.24043282     E(CORR)=     -33.890353613     Delta=-6.01D-03
 NORM(A)=   0.10456252D+01
 Iteration Nr.   3
 **********************
 DD1Dir will call FoFMem   1 times, MxPair=        72
 NAB=    36 NAA=     0 NBB=     0.
 A-vector RMS=  3.8934001D-04 Max=  1.1750819D-03 conv= 1.00D-05.
 RLE energy=       -0.2429344992
 DE(Corr)= -0.24248450     E(CORR)=     -33.892405287     Delta=-2.05D-03
 NORM(A)=   0.10461923D+01
 Iteration Nr.   4
 **********************
 DD1Dir will call FoFMem   1 times, MxPair=        72
 NAB=    36 NAA=     0 NBB=     0.
 A-vector RMS=  9.4248010D-05 Max=  2.5387626D-04 conv= 1.00D-05.
 RLE energy=       -0.2429819742
 DE(Corr)= -0.24294560     E(CORR)=     -33.892866386     Delta=-4.61D-04
 NORM(A)=   0.10462686D+01
 Iteration Nr.   5
 **********************
 DD1Dir will call FoFMem   1 times, MxPair=        72
 NAB=    36 NAA=     0 NBB=     0.
 A-vector RMS=  4.2617806D-05 Max=  1.5523967D-04 conv= 1.00D-05.
 RLE energy=       -0.2429801637
 DE(Corr)= -0.24297808     E(CORR)=     -33.892898870     Delta=-3.25D-05
 NORM(A)=   0.10462798D+01
 Iteration Nr.   6
 **********************
 DD1Dir will call FoFMem   1 times, MxPair=        72
 NAB=    36 NAA=     0 NBB=     0.
 A-vector RMS=  1.1584704D-05 Max=  4.1321232D-05 conv= 1.00D-05.
 RLE energy=       -0.2429792673
 DE(Corr)= -0.24298030     E(CORR)=     -33.892901091     Delta=-2.22D-06
 NORM(A)=   0.10462834D+01
 Iteration Nr.   7
 **********************
 DD1Dir will call FoFMem   1 times, MxPair=        72
 NAB=    36 NAA=     0 NBB=     0.
 A-vector RMS=  3.3826362D-06 Max=  1.2198787D-05 conv= 1.00D-05.
 RLE energy=       -0.2429801999
 DE(Corr)= -0.24297965     E(CORR)=     -33.892900443     Delta= 6.48D-07
 NORM(A)=   0.10462849D+01
 Iteration Nr.   8
 **********************
 DD1Dir will call FoFMem   1 times, MxPair=        72
 NAB=    36 NAA=     0 NBB=     0.
 A-vector RMS=  5.7496250D-07 Max=  1.8968810D-06 conv= 1.00D-05.
 RLE energy=       -0.2429797012
 DE(Corr)= -0.24297971     E(CORR)=     -33.892900496     Delta=-5.34D-08
 NORM(A)=   0.10462850D+01
 CI/CC converged in    8 iterations to DelEn=-5.34D-08 Conv= 1.00D-07 ErrA1= 5.75D-07 Conv= 1.00D-05
 Wavefunction amplitudes converged. E(Corr)=     -33.892900496    
 Largest amplitude= 5.77D-02
 IPart=  3 IA=    2   12.50% done.
 IPart=  4 IA=    3   24.17% done.
 IPart=  2 IA=    4   35.00% done.
 IPart=  2 IA=    5   45.00% done.
 IPart=  3 IA=    6   54.17% done.
 IPart=  4 IA=    7   62.50% done.
 IPart=  1 IA=    8   70.00% done.
 IPart=  4 IA=   10   82.50% done.
 IPart=  3 IA=   12   91.67% done.
 Time for triples=        0.24 seconds.
 T4(CCSD)= -0.30957103D-02
 T5(CCSD)=  0.52772478D-03
 CCSD(T)= -0.33895468482D+02
 Discarding MO integrals.
 Leave Link  913 at Sun Dec 10 06:39:24 2023, MaxMem=   536870912 cpu:               0.8 elap:               0.2
 (Enter /usr/site/hpc/x86_64/glibc-2.17/broadwell/gaussian/g16_a.03/pgi-16.5/g16/l601.exe)
 Copying SCF densities to generalized density rwf, IOpCl= 0 IROHF=0.

 **********************************************************************

            Population analysis using the SCF density.

 **********************************************************************

 Orbital symmetries:
       Occupied  (A') (A') (A') (A') (A') (A') (A") (A")
       Virtual   (A') (A') (A') (A') (A") (A") (A') (A') (A') (A')
                 (A') (A') (A') (A') (A') (A')
 The electronic state is 1-A'.
 Alpha  occ. eigenvalues --   -1.34837  -1.34660  -0.70463  -0.70279  -0.54466
 Alpha  occ. eigenvalues --   -0.54287  -0.49380  -0.49204
 Alpha virt. eigenvalues --    0.20823   0.21020   0.31063   0.31233   0.81170
 Alpha virt. eigenvalues --    0.81349   0.84028   0.84890   0.87410   0.87674
 Alpha virt. eigenvalues --    1.17986   1.18161   1.22461   1.22636   2.58048
 Alpha virt. eigenvalues --    2.58222
          Condensed to atoms (all electrons):
               1          2          3          4          5          6
     1  O    6.210361   0.261419   0.262800   0.000001   0.000000   0.000000
     2  H    0.261419   0.396341  -0.023714   0.000000  -0.000000  -0.000000
     3  H    0.262800  -0.023714   0.392287   0.000000  -0.000000  -0.000000
     4  O    0.000001   0.000000   0.000000   6.210136   0.260890   0.263131
     5  H    0.000000  -0.000000  -0.000000   0.260890   0.397672  -0.023771
     6  H    0.000000  -0.000000  -0.000000   0.263131  -0.023771   0.391693
 Mulliken charges:
               1
     1  O   -0.734581
     2  H    0.365954
     3  H    0.368627
     4  O   -0.734158
     5  H    0.365210
     6  H    0.368947
 Sum of Mulliken charges =   0.00000
 Mulliken charges with hydrogens summed into heavy atoms:
               1
     1  O    0.000001
     4  O   -0.000001
 Electronic spatial extent (au):  <R**2>=            433.8561
 Charge=              0.0000 electrons
 Dipole moment (field-independent basis, Debye):
    X=             -1.3144    Y=             -0.3598    Z=              0.0000  Tot=              1.3627
 Quadrupole moment (field-independent basis, Debye-Ang):
   XX=             -8.5779   YY=             13.7195   ZZ=            -14.9862
   XY=             -2.6403   XZ=              0.0000   YZ=              0.0000
 Traceless Quadrupole moment (field-independent basis, Debye-Ang):
   XX=             -5.2963   YY=             17.0010   ZZ=            -11.7047
   XY=             -2.6403   XZ=              0.0000   YZ=              0.0000
 Octapole moment (field-independent basis, Debye-Ang**2):
  XXX=             -1.7372  YYY=             -2.5280  ZZZ=              0.0000  XYY=             -3.4017
  XXY=             -2.2108  XXZ=              0.0000  XZZ=             -0.2460  YZZ=             -0.0685
  YYZ=              0.0000  XYZ=              0.0000
 Hexadecapole moment (field-independent basis, Debye-Ang**3):
 XXXX=            -11.8014 YYYY=           -130.1263 ZZZZ=            -12.2168 XXXY=             -2.9977
 XXXZ=              0.0000 YYYX=             -0.8488 YYYZ=              0.0000 ZZZX=              0.0000
 ZZZY=              0.0000 XXYY=            -54.3808 XXZZ=             -4.6001 YYZZ=           -106.0317
 XXYZ=              0.0000 YYXZ=              0.0000 ZZXY=              0.4083
 N-N= 1.988047590996D+01 E-N=-1.214790705089D+02  KE= 2.676977606153D+01
 Symmetry A'   KE= 1.788388956484D+01
 Symmetry A"   KE= 8.885886496693D+00
 Leave Link  601 at Sun Dec 10 06:39:24 2023, MaxMem=   536870912 cpu:               0.1 elap:               0.0
 (Enter /usr/site/hpc/x86_64/glibc-2.17/broadwell/gaussian/g16_a.03/pgi-16.5/g16/l9999.exe)
 1\1\GINC-N045\SP\RCCSD(T)-FC\CEP-31G\H4O2\ROOT\10-Dec-2023\0\\#p CCSD(
 T)/CEP-31G\\H2O_H2O_3308\\0,1\O,0,0.,-0.009833,0.\H,0,-0.799571,-0.580
 965,0.\H,0,0.799571,-0.580965,0.\O,0,-0.004917,5.106167,0.\H,0,0.40196
 7,6.000568,0.\H,0,-0.982932,5.200996,0.\\Version=ES64L-G16RevA.03\Stat
 e=1-A'\HF=-33.6499208\MP2=-33.8784142\MP3=-33.8838905\MP4D=-33.8890781
 \MP4DQ=-33.8898094\MP4SDQ=-33.8918423\CCSD=-33.8929005\CCSD(T)=-33.895
 4685\RMSD=2.112e-10\PG=CS [SG(H4O2)]\\@


 GOD GAVE US TWO ENDS... ONE TO SIT ON...    
 AND THE OTHER TO THINK WITH...              
 YOUR SUCCESS DEPENDS UPON WHICH END YOU     
 USE THE MOST...                             
                                             
 IT'S A CASE OF HEADS YOU WIN TAILS YOU LOSE.
          SOURCE UNKNOWN(IT'S JUST AS WELL.) 
 Job cpu time:       0 days  0 hours  0 minutes  3.2 seconds.
 Elapsed time:       0 days  0 hours  0 minutes  1.0 seconds.
 File lengths (MBytes):  RWF=     72 Int=      0 D2E=      0 Chk=      8 Scr=      8
 Normal termination of Gaussian 16 at Sun Dec 10 06:39:24 2023.
