 Entering Gaussian System, Link 0=g16
 Input=H2O_H2O_4061.com
 Output=H2O_H2O_4061.log
 Initial command:
 /usr/site/hpc/x86_64/glibc-2.17/broadwell/gaussian/g16_a.03/pgi-16.5/g16/l1.exe "/gpfs/gpfs1/scratch/c7441090/OO Coord/Gau-1797847.inp" -scrdir="/gpfs/gpfs1/scratch/c7441090/OO Coord/"
 Entering Link 1 = /usr/site/hpc/x86_64/glibc-2.17/broadwell/gaussian/g16_a.03/pgi-16.5/g16/l1.exe PID=   1797848.
  
 Copyright (c) 1988,1990,1992,1993,1995,1998,2003,2009,2016,
            Gaussian, Inc.  All Rights Reserved.
  
 This is part of the Gaussian(R) 16 program.  It is based on
 the Gaussian(R) 09 system (copyright 2009, Gaussian, Inc.),
 the Gaussian(R) 03 system (copyright 2003, Gaussian, Inc.),
 the Gaussian(R) 98 system (copyright 1998, Gaussian, Inc.),
 the Gaussian(R) 94 system (copyright 1995, Gaussian, Inc.),
 the Gaussian 92(TM) system (copyright 1992, Gaussian, Inc.),
 the Gaussian 90(TM) system (copyright 1990, Gaussian, Inc.),
 the Gaussian 88(TM) system (copyright 1988, Gaussian, Inc.),
 the Gaussian 86(TM) system (copyright 1986, Carnegie Mellon
 University), and the Gaussian 82(TM) system (copyright 1983,
 Carnegie Mellon University). Gaussian is a federally registered
 trademark of Gaussian, Inc.
  
 This software contains proprietary and confidential information,
 including trade secrets, belonging to Gaussian, Inc.
  
 This software is provided under written license and may be
 used, copied, transmitted, or stored only in accord with that
 written license.
  
 The following legend is applicable only to US Government
 contracts under FAR:
  
                    RESTRICTED RIGHTS LEGEND
  
 Use, reproduction and disclosure by the US Government is
 subject to restrictions as set forth in subparagraphs (a)
 and (c) of the Commercial Computer Software - Restricted
 Rights clause in FAR 52.227-19.
  
 Gaussian, Inc.
 340 Quinnipiac St., Bldg. 40, Wallingford CT 06492
  
  
 ---------------------------------------------------------------
 Warning -- This program may not be used in any manner that
 competes with the business of Gaussian, Inc. or will provide
 assistance to any competitor of Gaussian, Inc.  The licensee
 of this program is prohibited from giving any competitor of
 Gaussian, Inc. access to this program.  By using this program,
 the user acknowledges that Gaussian, Inc. is engaged in the
 business of creating and licensing software in the field of
 computational chemistry and represents and warrants to the
 licensee that it is not a competitor of Gaussian, Inc. and that
 it will not use this program in any manner prohibited above.
 ---------------------------------------------------------------
  

 Cite this work as:
 Gaussian 16, Revision A.03,
 M. J. Frisch, G. W. Trucks, H. B. Schlegel, G. E. Scuseria, 
 M. A. Robb, J. R. Cheeseman, G. Scalmani, V. Barone, 
 G. A. Petersson, H. Nakatsuji, X. Li, M. Caricato, A. V. Marenich, 
 J. Bloino, B. G. Janesko, R. Gomperts, B. Mennucci, H. P. Hratchian, 
 J. V. Ortiz, A. F. Izmaylov, J. L. Sonnenberg, D. Williams-Young, 
 F. Ding, F. Lipparini, F. Egidi, J. Goings, B. Peng, A. Petrone, 
 T. Henderson, D. Ranasinghe, V. G. Zakrzewski, J. Gao, N. Rega, 
 G. Zheng, W. Liang, M. Hada, M. Ehara, K. Toyota, R. Fukuda, 
 J. Hasegawa, M. Ishida, T. Nakajima, Y. Honda, O. Kitao, H. Nakai, 
 T. Vreven, K. Throssell, J. A. Montgomery, Jr., J. E. Peralta, 
 F. Ogliaro, M. J. Bearpark, J. J. Heyd, E. N. Brothers, K. N. Kudin, 
 V. N. Staroverov, T. A. Keith, R. Kobayashi, J. Normand, 
 K. Raghavachari, A. P. Rendell, J. C. Burant, S. S. Iyengar, 
 J. Tomasi, M. Cossi, J. M. Millam, M. Klene, C. Adamo, R. Cammi, 
 J. W. Ochterski, R. L. Martin, K. Morokuma, O. Farkas, 
 J. B. Foresman, and D. J. Fox, Gaussian, Inc., Wallingford CT, 2016.
 
 ******************************************
 Gaussian 16:  ES64L-G16RevA.03 25-Dec-2016
                10-Dec-2023 
 ******************************************
 %NProcShared=4
 Will use up to    4 processors via shared memory.
 %Mem=4GB
 %Chk=H2O_H2O_4061.chk
 ------------------
 #p CCSD(T)/CEP-31G
 ------------------
 1/38=1,172=1/1;
 2/12=2,17=6,18=5,40=1/2;
 3/5=9,6=1,11=9,25=1,30=1/1,2,3;
 4//1;
 5/5=2,38=5/2;
 8/6=4,9=120000,10=1/1,4;
 9/5=7,14=2/13;
 6/7=2,8=2,9=2,10=2/1;
 99/5=1,9=1/99;
 Leave Link    1 at Sun Dec 10 06:53:11 2023, MaxMem=   536870912 cpu:               0.2 elap:               0.1
 (Enter /usr/site/hpc/x86_64/glibc-2.17/broadwell/gaussian/g16_a.03/pgi-16.5/g16/l101.exe)
 ------------
 H2O_H2O_4061
 ------------
 Symbolic Z-matrix:
 Charge =  0 Multiplicity = 1
 O                     0.       -0.00983   0. 
 H                    -0.79957  -0.58097   0. 
 H                     0.79957  -0.58097   0. 
 O                    -0.00648   5.9028    0. 
 H                     0.21809   6.85939   0. 
 H                    -0.98421   5.80501   0. 
 
 ITRead=  0  0  0  0  0  0
 MicOpt= -1 -1 -1 -1 -1 -1
 NAtoms=      6 NQM=        6 NQMF=       0 NMMI=      0 NMMIF=      0
                NMic=       0 NMicF=      0.
                    Isotopes and Nuclear Properties:
 (Nuclear quadrupole moments (NQMom) in fm**2, nuclear magnetic moments (NMagM)
  in nuclear magnetons)

  Atom         1           2           3           4           5           6
 IAtWgt=          16           1           1          16           1           1
 AtmWgt=  15.9949146   1.0078250   1.0078250  15.9949146   1.0078250   1.0078250
 NucSpn=           0           1           1           0           1           1
 AtZEff=  -0.0000000  -0.0000000  -0.0000000  -0.0000000  -0.0000000  -0.0000000
 NQMom=    0.0000000   0.0000000   0.0000000   0.0000000   0.0000000   0.0000000
 NMagM=    0.0000000   2.7928460   2.7928460   0.0000000   2.7928460   2.7928460
 AtZNuc=   8.0000000   1.0000000   1.0000000   8.0000000   1.0000000   1.0000000
 Leave Link  101 at Sun Dec 10 06:53:11 2023, MaxMem=   536870912 cpu:               0.3 elap:               0.1
 (Enter /usr/site/hpc/x86_64/glibc-2.17/broadwell/gaussian/g16_a.03/pgi-16.5/g16/l202.exe)
                          Input orientation:                          
 ---------------------------------------------------------------------
 Center     Atomic      Atomic             Coordinates (Angstroms)
 Number     Number       Type             X           Y           Z
 ---------------------------------------------------------------------
      1          8           0        0.000000   -0.009833    0.000000
      2          1           0       -0.799571   -0.580965    0.000000
      3          1           0        0.799571   -0.580965    0.000000
      4          8           0       -0.006483    5.902799    0.000000
      5          1           0        0.218093    6.859393    0.000000
      6          1           0       -0.984207    5.805005    0.000000
 ---------------------------------------------------------------------
                    Distance matrix (angstroms):
                    1          2          3          4          5
     1  O    0.000000
     2  H    0.982601   0.000000
     3  H    0.982601   1.599142   0.000000
     4  O    5.912636   6.532089   6.533676   0.000000
     5  H    6.872687   7.509632   7.463045   0.982602   0.000000
     6  H    5.897542   6.388639   6.630421   0.982603   1.599143
                    6
     6  H    0.000000
 Stoichiometry    H4O2
 Framework group  CS[SG(H4O2)]
 Deg. of freedom     9
 Full point group                 CS      NOp   2
 Largest Abelian subgroup         CS      NOp   2
 Largest concise Abelian subgroup C1      NOp   1
                         Standard orientation:                         
 ---------------------------------------------------------------------
 Center     Atomic      Atomic             Coordinates (Angstroms)
 Number     Number       Type             X           Y           Z
 ---------------------------------------------------------------------
      1          8           0        0.037673   -2.942186    0.000000
      2          1           0       -0.762524   -3.512441    0.000000
      3          1           0        0.836617   -3.514194    0.000000
      4          8           0        0.037673    2.970450    0.000000
      5          1           0        0.263298    3.926797    0.000000
      6          1           0       -0.940158    2.873728    0.000000
 ---------------------------------------------------------------------
 Rotational constants (GHZ):         222.0349293           1.5391711           1.5285748
 Leave Link  202 at Sun Dec 10 06:53:11 2023, MaxMem=   536870912 cpu:               0.1 elap:               0.0
 (Enter /usr/site/hpc/x86_64/glibc-2.17/broadwell/gaussian/g16_a.03/pgi-16.5/g16/l301.exe)
 Standard basis: CEP-31G (6D, 10F)
 Ernie: Thresh=  0.10000D-02 Tol=  0.10000D-05 Strict=F.
 There are    20 symmetry adapted cartesian basis functions of A'  symmetry.
 There are     4 symmetry adapted cartesian basis functions of A"  symmetry.
 There are    20 symmetry adapted basis functions of A'  symmetry.
 There are     4 symmetry adapted basis functions of A"  symmetry.
    24 basis functions,    48 primitive gaussians,    24 cartesian basis functions
     8 alpha electrons        8 beta electrons
       nuclear repulsion energy        19.0853233208 Hartrees.
 IExCor=    0 DFT=F Ex=HF Corr=None ExCW=0 ScaHFX=  1.000000
 ScaDFX=  1.000000  1.000000  1.000000  1.000000 ScalE2=  1.000000  1.000000
 IRadAn=      5 IRanWt=     -1 IRanGd=            0 ICorTp=0 IEmpDi=  4
 NAtoms=    6 NActive=    6 NUniq=    6 SFac= 1.00D+00 NAtFMM=   60 NAOKFM=F Big=F
 Integral buffers will be    131072 words long.
 Raffenetti 1 integral format.
 Two-electron integral symmetry is turned on.
 Leave Link  301 at Sun Dec 10 06:53:11 2023, MaxMem=   536870912 cpu:               0.2 elap:               0.1
 (Enter /usr/site/hpc/x86_64/glibc-2.17/broadwell/gaussian/g16_a.03/pgi-16.5/g16/l302.exe)
 NPDir=0 NMtPBC=     1 NCelOv=     1 NCel=       1 NClECP=     1 NCelD=      1
         NCelK=      1 NCelE2=     1 NClLst=     1 CellRange=     0.0.
 One-electron integrals computed using PRISM.
 One-electron integral symmetry used in STVInt
   2 Symmetry operations used in ECPInt.
 ECPInt:  NShTT=      78 NPrTT=     318 LenC2=      77 LenP2D=     242.
 LDataN:  DoStor=T MaxTD1= 2 Len=   12
 NBasis=    24 RedAO= T EigKep=  3.86D-02  NBF=    20     4
 NBsUse=    24 1.00D-06 EigRej= -1.00D+00 NBFU=    20     4
 Leave Link  302 at Sun Dec 10 06:53:11 2023, MaxMem=   536870912 cpu:               0.3 elap:               0.1
 (Enter /usr/site/hpc/x86_64/glibc-2.17/broadwell/gaussian/g16_a.03/pgi-16.5/g16/l303.exe)
 DipDrv:  MaxL=1.
 Leave Link  303 at Sun Dec 10 06:53:11 2023, MaxMem=   536870912 cpu:               0.1 elap:               0.0
 (Enter /usr/site/hpc/x86_64/glibc-2.17/broadwell/gaussian/g16_a.03/pgi-16.5/g16/l401.exe)
 ExpMin= 1.78D-01 ExpMax= 1.92D+01 ExpMxC= 1.92D+01 IAcc=3 IRadAn=         5 AccDes= 0.00D+00
 Harris functional with IExCor=  205 and IRadAn=       5 diagonalized for initial guess.
 HarFok:  IExCor=  205 AccDes= 0.00D+00 IRadAn=         5 IDoV= 1 UseB2=F ITyADJ=14
 ICtDFT=  3500011 ScaDFX=  1.000000  1.000000  1.000000  1.000000
 FoFCou: FMM=F IPFlag=           0 FMFlag=      100000 FMFlg1=           0
         NFxFlg=           0 DoJE=T BraDBF=F KetDBF=T FulRan=T
         wScrn=  0.000000 ICntrl=       500 IOpCl=  0 I1Cent=   200000004 NGrid=           0
         NMat0=    1 NMatS0=      1 NMatT0=    0 NMatD0=    1 NMtDS0=    0 NMtDT0=    0
 Petite list used in FoFCou.
 Harris En= -34.4763704150337    
 JPrj=0 DoOrth=F DoCkMO=F.
 Initial guess orbital symmetries:
       Occupied  (A') (A') (A') (A') (A') (A') (A") (A")
       Virtual   (A') (A') (A') (A') (A") (A") (A') (A') (A') (A')
                 (A') (A') (A') (A') (A') (A')
 The electronic state of the initial guess is 1-A'.
 Leave Link  401 at Sun Dec 10 06:53:11 2023, MaxMem=   536870912 cpu:               0.4 elap:               0.1
 (Enter /usr/site/hpc/x86_64/glibc-2.17/broadwell/gaussian/g16_a.03/pgi-16.5/g16/l502.exe)
 Keep R1 ints in memory in symmetry-blocked form, NReq=851752.
 FoFCou: FMM=F IPFlag=           0 FMFlag=           0 FMFlg1=           0
         NFxFlg=           0 DoJE=F BraDBF=F KetDBF=F FulRan=T
         wScrn=  0.000000 ICntrl=       600 IOpCl=  0 I1Cent=           0 NGrid=           0
         NMat0=    1 NMatS0=    300 NMatT0=    0 NMatD0=    1 NMtDS0=    0 NMtDT0=    0
 Petite list used in FoFCou.
 Closed shell SCF:
 Using DIIS extrapolation, IDIIS=  1040.
 NGot=   536870912 LenX=   536840576 LenY=   536839559
 Requested convergence on RMS density matrix=1.00D-08 within 128 cycles.
 Requested convergence on MAX density matrix=1.00D-06.
 Requested convergence on             energy=1.00D-06.
 No special actions if energy rises.

 Cycle   1  Pass 1  IDiag  1:
 E= -33.5558903002006    
 DIIS: error= 6.73D-02 at cycle   1 NSaved=   1.
 NSaved= 1 IEnMin= 1 EnMin= -33.5558903002006     IErMin= 1 ErrMin= 6.73D-02
 ErrMax= 6.73D-02  0.00D+00 EMaxC= 1.00D-01 BMatC= 1.02D-01 BMatP= 1.02D-01
 IDIUse=3 WtCom= 3.27D-01 WtEn= 6.73D-01
 Coeff-Com:  0.100D+01
 Coeff-En:   0.100D+01
 Coeff:      0.100D+01
 Gap=     0.606 Goal=   None    Shift=    0.000
 GapD=    0.606 DampG=2.000 DampE=0.500 DampFc=1.0000 IDamp=-1.
 RMSDP=1.49D-02 MaxDP=1.17D-01              OVMax= 9.98D-02

 Cycle   2  Pass 1  IDiag  1:
 E= -33.6191147855341     Delta-E=       -0.063224485334 Rises=F Damp=F
 DIIS: error= 3.75D-02 at cycle   2 NSaved=   2.
 NSaved= 2 IEnMin= 2 EnMin= -33.6191147855341     IErMin= 2 ErrMin= 3.75D-02
 ErrMax= 3.75D-02  0.00D+00 EMaxC= 1.00D-01 BMatC= 3.85D-02 BMatP= 1.02D-01
 IDIUse=3 WtCom= 6.25D-01 WtEn= 3.75D-01
 Coeff-Com:  0.377D+00 0.623D+00
 Coeff-En:   0.109D+00 0.891D+00
 Coeff:      0.277D+00 0.723D+00
 Gap=     0.706 Goal=   None    Shift=    0.000
 RMSDP=6.43D-03 MaxDP=5.45D-02 DE=-6.32D-02 OVMax= 3.59D-02

 Cycle   3  Pass 1  IDiag  1:
 E= -33.6498696292738     Delta-E=       -0.030754843740 Rises=F Damp=F
 DIIS: error= 7.06D-03 at cycle   3 NSaved=   3.
 NSaved= 3 IEnMin= 3 EnMin= -33.6498696292738     IErMin= 3 ErrMin= 7.06D-03
 ErrMax= 7.06D-03  0.00D+00 EMaxC= 1.00D-01 BMatC= 9.18D-04 BMatP= 3.85D-02
 IDIUse=3 WtCom= 9.29D-01 WtEn= 7.06D-02
 Coeff-Com: -0.114D+00-0.154D-01 0.113D+01
 Coeff-En:   0.000D+00 0.000D+00 0.100D+01
 Coeff:     -0.106D+00-0.143D-01 0.112D+01
 Gap=     0.698 Goal=   None    Shift=    0.000
 RMSDP=1.10D-03 MaxDP=9.35D-03 DE=-3.08D-02 OVMax= 8.17D-03

 Cycle   4  Pass 1  IDiag  1:
 E= -33.6507883684474     Delta-E=       -0.000918739174 Rises=F Damp=F
 DIIS: error= 7.60D-04 at cycle   4 NSaved=   4.
 NSaved= 4 IEnMin= 4 EnMin= -33.6507883684474     IErMin= 4 ErrMin= 7.60D-04
 ErrMax= 7.60D-04  0.00D+00 EMaxC= 1.00D-01 BMatC= 5.98D-06 BMatP= 9.18D-04
 IDIUse=3 WtCom= 9.92D-01 WtEn= 7.60D-03
 Coeff-Com:  0.437D-01-0.177D-01-0.522D+00 0.150D+01
 Coeff-En:   0.000D+00 0.000D+00 0.000D+00 0.100D+01
 Coeff:      0.434D-01-0.176D-01-0.518D+00 0.149D+01
 Gap=     0.700 Goal=   None    Shift=    0.000
 RMSDP=2.37D-04 MaxDP=2.04D-03 DE=-9.19D-04 OVMax= 9.68D-04

 Cycle   5  Pass 1  IDiag  1:
 E= -33.6508016605627     Delta-E=       -0.000013292115 Rises=F Damp=F
 DIIS: error= 5.15D-05 at cycle   5 NSaved=   5.
 NSaved= 5 IEnMin= 5 EnMin= -33.6508016605627     IErMin= 5 ErrMin= 5.15D-05
 ErrMax= 5.15D-05  0.00D+00 EMaxC= 1.00D-01 BMatC= 4.10D-08 BMatP= 5.98D-06
 IDIUse=1 WtCom= 1.00D+00 WtEn= 0.00D+00
 Coeff-Com: -0.713D-02 0.323D-02 0.860D-01-0.296D+00 0.121D+01
 Coeff:     -0.713D-02 0.323D-02 0.860D-01-0.296D+00 0.121D+01
 Gap=     0.700 Goal=   None    Shift=    0.000
 RMSDP=1.63D-05 MaxDP=1.55D-04 DE=-1.33D-05 OVMax= 1.06D-04

 Cycle   6  Pass 1  IDiag  1:
 E= -33.6508017625366     Delta-E=       -0.000000101974 Rises=F Damp=F
 DIIS: error= 1.11D-05 at cycle   6 NSaved=   6.
 NSaved= 6 IEnMin= 6 EnMin= -33.6508017625366     IErMin= 6 ErrMin= 1.11D-05
 ErrMax= 1.11D-05  0.00D+00 EMaxC= 1.00D-01 BMatC= 2.29D-09 BMatP= 4.10D-08
 IDIUse=1 WtCom= 1.00D+00 WtEn= 0.00D+00
 Coeff-Com:  0.124D-02-0.436D-03-0.144D-01 0.564D-01-0.405D+00 0.136D+01
 Coeff:      0.124D-02-0.436D-03-0.144D-01 0.564D-01-0.405D+00 0.136D+01
 Gap=     0.700 Goal=   None    Shift=    0.000
 RMSDP=4.02D-06 MaxDP=4.16D-05 DE=-1.02D-07 OVMax= 3.58D-05

 Cycle   7  Pass 1  IDiag  1:
 E= -33.6508017688215     Delta-E=       -0.000000006285 Rises=F Damp=F
 DIIS: error= 2.28D-06 at cycle   7 NSaved=   7.
 NSaved= 7 IEnMin= 7 EnMin= -33.6508017688215     IErMin= 7 ErrMin= 2.28D-06
 ErrMax= 2.28D-06  0.00D+00 EMaxC= 1.00D-01 BMatC= 1.25D-10 BMatP= 2.29D-09
 IDIUse=1 WtCom= 1.00D+00 WtEn= 0.00D+00
 Coeff-Com:  0.293D-03-0.163D-03-0.362D-02 0.112D-01-0.147D-01-0.160D+00
 Coeff-Com:  0.117D+01
 Coeff:      0.293D-03-0.163D-03-0.362D-02 0.112D-01-0.147D-01-0.160D+00
 Coeff:      0.117D+01
 Gap=     0.700 Goal=   None    Shift=    0.000
 RMSDP=9.90D-07 MaxDP=6.20D-06 DE=-6.28D-09 OVMax= 8.67D-06

 Cycle   8  Pass 1  IDiag  1:
 E= -33.6508017691133     Delta-E=       -0.000000000292 Rises=F Damp=F
 DIIS: error= 7.66D-07 at cycle   8 NSaved=   8.
 NSaved= 8 IEnMin= 8 EnMin= -33.6508017691133     IErMin= 8 ErrMin= 7.66D-07
 ErrMax= 7.66D-07  0.00D+00 EMaxC= 1.00D-01 BMatC= 1.99D-11 BMatP= 1.25D-10
 IDIUse=1 WtCom= 1.00D+00 WtEn= 0.00D+00
 Coeff-Com:  0.325D-07-0.252D-04-0.801D-04-0.826D-03 0.307D-01-0.173D+00
 Coeff-Com:  0.334D+00 0.809D+00
 Coeff:      0.325D-07-0.252D-04-0.801D-04-0.826D-03 0.307D-01-0.173D+00
 Coeff:      0.334D+00 0.809D+00
 Gap=     0.700 Goal=   None    Shift=    0.000
 RMSDP=2.91D-07 MaxDP=2.22D-06 DE=-2.92D-10 OVMax= 2.39D-06

 Cycle   9  Pass 1  IDiag  1:
 E= -33.6508017691420     Delta-E=       -0.000000000029 Rises=F Damp=F
 DIIS: error= 1.87D-07 at cycle   9 NSaved=   9.
 NSaved= 9 IEnMin= 9 EnMin= -33.6508017691420     IErMin= 9 ErrMin= 1.87D-07
 ErrMax= 1.87D-07  0.00D+00 EMaxC= 1.00D-01 BMatC= 7.56D-13 BMatP= 1.99D-11
 IDIUse=1 WtCom= 1.00D+00 WtEn= 0.00D+00
 Coeff-Com:  0.341D-05 0.790D-05-0.924D-06 0.414D-03-0.126D-01 0.738D-01
 Coeff-Com: -0.190D+00-0.270D+00 0.140D+01
 Coeff:      0.341D-05 0.790D-05-0.924D-06 0.414D-03-0.126D-01 0.738D-01
 Coeff:     -0.190D+00-0.270D+00 0.140D+01
 Gap=     0.700 Goal=   None    Shift=    0.000
 RMSDP=1.30D-07 MaxDP=6.00D-07 DE=-2.87D-11 OVMax= 8.76D-07

 Cycle  10  Pass 1  IDiag  1:
 E= -33.6508017691440     Delta-E=       -0.000000000002 Rises=F Damp=F
 DIIS: error= 8.64D-09 at cycle  10 NSaved=  10.
 NSaved=10 IEnMin=10 EnMin= -33.6508017691440     IErMin=10 ErrMin= 8.64D-09
 ErrMax= 8.64D-09  0.00D+00 EMaxC= 1.00D-01 BMatC= 2.75D-15 BMatP= 7.56D-13
 IDIUse=1 WtCom= 1.00D+00 WtEn= 0.00D+00
 Coeff-Com:  0.877D-07-0.205D-05-0.104D-04-0.592D-04 0.277D-02-0.169D-01
 Coeff-Com:  0.441D-01 0.590D-01-0.363D+00 0.127D+01
 Coeff:      0.877D-07-0.205D-05-0.104D-04-0.592D-04 0.277D-02-0.169D-01
 Coeff:      0.441D-01 0.590D-01-0.363D+00 0.127D+01
 Gap=     0.700 Goal=   None    Shift=    0.000
 RMSDP=1.17D-08 MaxDP=5.42D-08 DE=-2.00D-12 OVMax= 6.69D-08

 Cycle  11  Pass 1  IDiag  1:
 E= -33.6508017691440     Delta-E=        0.000000000000 Rises=F Damp=F
 DIIS: error= 3.53D-10 at cycle  11 NSaved=  11.
 NSaved=11 IEnMin=10 EnMin= -33.6508017691440     IErMin=11 ErrMin= 3.53D-10
 ErrMax= 3.53D-10  0.00D+00 EMaxC= 1.00D-01 BMatC= 3.50D-18 BMatP= 2.75D-15
 IDIUse=1 WtCom= 1.00D+00 WtEn= 0.00D+00
 Coeff-Com: -0.787D-07 0.362D-06 0.248D-05 0.784D-05-0.470D-03 0.290D-02
 Coeff-Com: -0.766D-02-0.101D-01 0.639D-01-0.242D+00 0.119D+01
 Coeff:     -0.787D-07 0.362D-06 0.248D-05 0.784D-05-0.470D-03 0.290D-02
 Coeff:     -0.766D-02-0.101D-01 0.639D-01-0.242D+00 0.119D+01
 Gap=     0.700 Goal=   None    Shift=    0.000
 RMSDP=2.06D-10 MaxDP=1.03D-09 DE= 7.11D-15 OVMax= 7.38D-10

 SCF Done:  E(RHF) =  -33.6508017691     A.U. after   11 cycles
            NFock= 11  Conv=0.21D-09     -V/T= 2.2570
 KE= 2.677127267949D+01 PE=-1.198483122634D+02 EE= 4.034091449394D+01
 Leave Link  502 at Sun Dec 10 06:53:12 2023, MaxMem=   536870912 cpu:               0.3 elap:               0.1
 (Enter /usr/site/hpc/x86_64/glibc-2.17/broadwell/gaussian/g16_a.03/pgi-16.5/g16/l801.exe)
 Windowed orbitals will be sorted by symmetry type.
 Range of M.O.s used for correlation:     1    24
 NBasis=    24 NAE=     8 NBE=     8 NFC=     0 NFV=     0
 NROrb=     24 NOA=     8 NOB=     8 NVA=    16 NVB=    16
 Leave Link  801 at Sun Dec 10 06:53:12 2023, MaxMem=   536870912 cpu:               0.1 elap:               0.0
 (Enter /usr/site/hpc/x86_64/glibc-2.17/broadwell/gaussian/g16_a.03/pgi-16.5/g16/l804.exe)
 Closed-shell transformation, MDV=   536870912 ITran=4 ISComp=2.
 Unit  1 TFree=       1025975 TCopy=        210600.
 Semi-Direct transformation.
 ModeAB=           4 MOrb=             8 LenV=     536742657
 LASXX=        22470 LTotXX=       22470 LenRXX=       48678
 LTotAB=       26208 MaxLAS=       55296 LenRXY=           0
 NonZer=       71148 LenScr=      524288 LnRSAI=       55296
 LnScr1=      524288 LExtra=           0 Total=      1152550
 MaxDsk=          -1 SrtSym=           T ITran=            4
 DoSDTr:  NPSUse=  4
 JobTyp=0 Pass  1:  I=   1 to   8.
 (rs|ai) integrals will be sorted in core.
 Complete sort for first half transformation.
 First half transformation complete.
 Complete sort for second half transformation.
 Second half transformation complete.
 Spin components of T(2) and E(2):
     alpha-alpha T2 =       0.9070422544D-02 E2=     -0.2589116796D-01
     alpha-beta  T2 =       0.5998579842D-01 E2=     -0.1766570005D+00
     beta-beta   T2 =       0.9070422544D-02 E2=     -0.2589116796D-01
 ANorm=    0.1038328774D+01
 E2 =    -0.2284393364D+00 EUMP2 =    -0.33879241105550D+02
 Leave Link  804 at Sun Dec 10 06:53:12 2023, MaxMem=   536870912 cpu:               0.2 elap:               0.1
 (Enter /usr/site/hpc/x86_64/glibc-2.17/broadwell/gaussian/g16_a.03/pgi-16.5/g16/l913.exe)
 CIDS:  MDV=   536870912.
 IFCWin=0 IBDFC=1 NFBD=     0     0 NFCmp=     0     0 NFFFC=     0     0
 Using DD3R+UMP44R for 1st iteration.
 Using DD4RQ for 2nd and later iterations.
 Keep R2 and R3 ints in memory in symmetry-blocked form, NReq=864360.
 FoFCou: FMM=F IPFlag=           0 FMFlag=           0 FMFlg1=           0
         NFxFlg=           0 DoJE=F BraDBF=F KetDBF=F FulRan=T
         wScrn=  0.000000 ICntrl=       600 IOpCl=  0 I1Cent=           0 NGrid=           0
         NMat0=    1 NMatS0=    300 NMatT0=    0 NMatD0=    1 NMtDS0=    0 NMtDT0=    0
 Petite list used in FoFCou.
 CIDS: In Core Option IDoMem=           1.
 CCSD(T)
 =======
 Iterations=  50 Convergence= 0.100D-06
 Produce multiple copies of IABC intergrals
 Iteration Nr.   1
 **********************
 DD1Dir will call FoFMem   1 times, MxPair=        72
 NAB=    36 NAA=     0 NBB=     0.
 MP4(R+Q)= -0.73574746D-03
 Maximum subspace dimension=  5
 A-vector RMS=  5.7656503D-03 Max=  1.3222264D-02 conv= 1.00D-05.
 RLE energy=       -0.2345188165
 E3=       -0.54609723D-02        EUMP3=      -0.33884702078D+02
 E4(DQ)=   -0.59158819D-02        UMP4(DQ)=   -0.33890617960D+02
 E4(SDQ)=  -0.79462870D-02        UMP4(SDQ)=  -0.33892648365D+02
 VARIATIONAL ENERGIES WITH THE FIRST-ORDER WAVEFUNCTION:
 DE(Corr)= -0.23436156     E(Corr)=     -33.885163325    
 NORM(A)=   0.10417776D+01
 Iteration Nr.   2
 **********************
 DD1Dir will call FoFMem   1 times, MxPair=        72
 NAB=    36 NAA=     0 NBB=     0.
 A-vector RMS=  9.8473571D-04 Max=  2.7391337D-03 conv= 1.00D-05.
 RLE energy=       -0.2423071569
 DE(Corr)= -0.24035964     E(CORR)=     -33.891161408     Delta=-6.00D-03
 NORM(A)=   0.10455843D+01
 Iteration Nr.   3
 **********************
 DD1Dir will call FoFMem   1 times, MxPair=        72
 NAB=    36 NAA=     0 NBB=     0.
 A-vector RMS=  3.8674486D-04 Max=  1.1705148D-03 conv= 1.00D-05.
 RLE energy=       -0.2428586024
 DE(Corr)= -0.24240957     E(CORR)=     -33.893211337     Delta=-2.05D-03
 NORM(A)=   0.10461491D+01
 Iteration Nr.   4
 **********************
 DD1Dir will call FoFMem   1 times, MxPair=        72
 NAB=    36 NAA=     0 NBB=     0.
 A-vector RMS=  9.3437228D-05 Max=  2.5212922D-04 conv= 1.00D-05.
 RLE energy=       -0.2429058093
 DE(Corr)= -0.24286962     E(CORR)=     -33.893671384     Delta=-4.60D-04
 NORM(A)=   0.10462245D+01
 Iteration Nr.   5
 **********************
 DD1Dir will call FoFMem   1 times, MxPair=        72
 NAB=    36 NAA=     0 NBB=     0.
 A-vector RMS=  4.2154558D-05 Max=  1.5428438D-04 conv= 1.00D-05.
 RLE energy=       -0.2429040102
 DE(Corr)= -0.24290196     E(CORR)=     -33.893703730     Delta=-3.23D-05
 NORM(A)=   0.10462355D+01
 Iteration Nr.   6
 **********************
 DD1Dir will call FoFMem   1 times, MxPair=        72
 NAB=    36 NAA=     0 NBB=     0.
 A-vector RMS=  1.1466553D-05 Max=  4.0848771D-05 conv= 1.00D-05.
 RLE energy=       -0.2429031417
 DE(Corr)= -0.24290416     E(CORR)=     -33.893705926     Delta=-2.20D-06
 NORM(A)=   0.10462391D+01
 Iteration Nr.   7
 **********************
 DD1Dir will call FoFMem   1 times, MxPair=        72
 NAB=    36 NAA=     0 NBB=     0.
 A-vector RMS=  3.3541324D-06 Max=  1.2025992D-05 conv= 1.00D-05.
 RLE energy=       -0.2429040663
 DE(Corr)= -0.24290352     E(CORR)=     -33.893705290     Delta= 6.35D-07
 NORM(A)=   0.10462405D+01
 Iteration Nr.   8
 **********************
 DD1Dir will call FoFMem   1 times, MxPair=        72
 NAB=    36 NAA=     0 NBB=     0.
 A-vector RMS=  5.5580134D-07 Max=  1.7564610D-06 conv= 1.00D-05.
 RLE energy=       -0.2429035729
 DE(Corr)= -0.24290358     E(CORR)=     -33.893705346     Delta=-5.53D-08
 NORM(A)=   0.10462406D+01
 CI/CC converged in    8 iterations to DelEn=-5.53D-08 Conv= 1.00D-07 ErrA1= 5.56D-07 Conv= 1.00D-05
 Wavefunction amplitudes converged. E(Corr)=     -33.893705346    
 Largest amplitude= 5.86D-02
 IPart=  4 IA=    2   12.50% done.
 IPart=  3 IA=    3   24.17% done.
 IPart=  2 IA=    4   35.00% done.
 IPart=  3 IA=    5   45.00% done.
 IPart=  2 IA=    6   54.17% done.
 IPart=  1 IA=    7   62.50% done.
 IPart=  4 IA=    8   70.00% done.
 IPart=  3 IA=   10   82.50% done.
 IPart=  4 IA=   12   91.67% done.
 Time for triples=        0.26 seconds.
 T4(CCSD)= -0.30915245D-02
 T5(CCSD)=  0.52702659D-03
 CCSD(T)= -0.33896269844D+02
 Discarding MO integrals.
 Leave Link  913 at Sun Dec 10 06:53:12 2023, MaxMem=   536870912 cpu:               0.9 elap:               0.2
 (Enter /usr/site/hpc/x86_64/glibc-2.17/broadwell/gaussian/g16_a.03/pgi-16.5/g16/l601.exe)
 Copying SCF densities to generalized density rwf, IOpCl= 0 IROHF=0.

 **********************************************************************

            Population analysis using the SCF density.

 **********************************************************************

 Orbital symmetries:
       Occupied  (A') (A') (A') (A') (A') (A') (A") (A")
       Virtual   (A') (A') (A') (A') (A") (A") (A') (A') (A') (A')
                 (A') (A') (A') (A') (A') (A')
 The electronic state is 1-A'.
 Alpha  occ. eigenvalues --   -1.35127  -1.34883  -0.70755  -0.70505  -0.54806
 Alpha  occ. eigenvalues --   -0.54562  -0.49683  -0.49440
 Alpha virt. eigenvalues --    0.20590   0.20838   0.30824   0.31063   0.80870
 Alpha virt. eigenvalues --    0.81110   0.83987   0.84233   0.87064   0.87351
 Alpha virt. eigenvalues --    1.17733   1.17974   1.22199   1.22442   2.57774
 Alpha virt. eigenvalues --    2.58013
          Condensed to atoms (all electrons):
               1          2          3          4          5          6
     1  O    6.212202   0.262149   0.263282   0.000000   0.000000   0.000000
     2  H    0.262149   0.393850  -0.023641   0.000000  -0.000000  -0.000000
     3  H    0.263282  -0.023641   0.390368   0.000000  -0.000000  -0.000000
     4  O    0.000000   0.000000   0.000000   6.212057   0.261690   0.263541
     5  H    0.000000  -0.000000  -0.000000   0.261690   0.395179  -0.023686
     6  H    0.000000  -0.000000  -0.000000   0.263541  -0.023686   0.389675
 Mulliken charges:
               1
     1  O   -0.737633
     2  H    0.367642
     3  H    0.369991
     4  O   -0.737287
     5  H    0.366818
     6  H    0.370470
 Sum of Mulliken charges =  -0.00000
 Mulliken charges with hydrogens summed into heavy atoms:
               1
     1  O    0.000000
     4  O   -0.000000
 Electronic spatial extent (au):  <R**2>=            560.9984
 Charge=             -0.0000 electrons
 Dipole moment (field-independent basis, Debye):
    X=             -1.7375    Y=             -0.6625    Z=              0.0000  Tot=              1.8596
 Quadrupole moment (field-independent basis, Debye-Ang):
   XX=             -8.9602   YY=             16.2675   ZZ=            -14.9872
   XY=             -4.3190   XZ=              0.0000   YZ=              0.0000
 Traceless Quadrupole moment (field-independent basis, Debye-Ang):
   XX=             -6.4002   YY=             18.8274   ZZ=            -12.4272
   XY=             -4.3190   XZ=              0.0000   YZ=              0.0000
 Octapole moment (field-independent basis, Debye-Ang**2):
  XXX=             -1.9452  YYY=             -8.4861  ZZZ=              0.0000  XYY=             -8.6546
  XXY=             -4.1088  XXZ=              0.0000  XZZ=             -0.3258  YZZ=             -0.1256
  YYZ=              0.0000  XYZ=              0.0000
 Hexadecapole moment (field-independent basis, Debye-Ang**3):
 XXXX=            -11.7976 YYYY=           -107.1869 ZZZZ=            -12.2185 XXXY=             -3.2124
 XXXZ=              0.0000 YYYX=            -16.6659 YYYZ=              0.0000 ZZZX=              0.0000
 ZZZY=              0.0000 XXYY=            -78.4952 XXZZ=             -4.5822 YYZZ=           -139.2423
 XXYZ=              0.0000 YYXZ=              0.0000 ZZXY=              0.6431
 N-N= 1.908532332081D+01 E-N=-1.198483122689D+02  KE= 2.677127267949D+01
 Symmetry A'   KE= 1.788640378896D+01
 Symmetry A"   KE= 8.884868890532D+00
 Leave Link  601 at Sun Dec 10 06:53:12 2023, MaxMem=   536870912 cpu:               0.1 elap:               0.0
 (Enter /usr/site/hpc/x86_64/glibc-2.17/broadwell/gaussian/g16_a.03/pgi-16.5/g16/l9999.exe)
 1\1\GINC-N045\SP\RCCSD(T)-FC\CEP-31G\H4O2\ROOT\10-Dec-2023\0\\#p CCSD(
 T)/CEP-31G\\H2O_H2O_4061\\0,1\O,0,0.,-0.009833,0.\H,0,-0.799571,-0.580
 965,0.\H,0,0.799571,-0.580965,0.\O,0,-0.006483,5.902799,0.\H,0,0.21809
 3,6.859393,0.\H,0,-0.984207,5.805005,0.\\Version=ES64L-G16RevA.03\Stat
 e=1-A'\HF=-33.6508018\MP2=-33.8792411\MP3=-33.8847021\MP4D=-33.8898822
 \MP4DQ=-33.890618\MP4SDQ=-33.8926484\CCSD=-33.8937053\CCSD(T)=-33.8962
 698\RMSD=2.058e-10\PG=CS [SG(H4O2)]\\@


 ONE THORN OF EXPERIENCE IS WORTH A WHOLE WILDERNESS OF
 WARNING....  LOWELL - AMONG MY BOOKS
 Job cpu time:       0 days  0 hours  0 minutes  3.4 seconds.
 Elapsed time:       0 days  0 hours  0 minutes  1.1 seconds.
 File lengths (MBytes):  RWF=     72 Int=      0 D2E=      0 Chk=      8 Scr=      8
 Normal termination of Gaussian 16 at Sun Dec 10 06:53:12 2023.
