 Entering Gaussian System, Link 0=g16
 Input=H2O_H2O_1099.com
 Output=H2O_H2O_1099.log
 Initial command:
 /usr/site/hpc/x86_64/glibc-2.17/broadwell/gaussian/g16_a.03/pgi-16.5/g16/l1.exe "/gpfs/gpfs1/scratch/c7441090/OO Coord/Gau-1257686.inp" -scrdir="/gpfs/gpfs1/scratch/c7441090/OO Coord/"
 Entering Link 1 = /usr/site/hpc/x86_64/glibc-2.17/broadwell/gaussian/g16_a.03/pgi-16.5/g16/l1.exe PID=   1257687.
  
 Copyright (c) 1988,1990,1992,1993,1995,1998,2003,2009,2016,
            Gaussian, Inc.  All Rights Reserved.
  
 This is part of the Gaussian(R) 16 program.  It is based on
 the Gaussian(R) 09 system (copyright 2009, Gaussian, Inc.),
 the Gaussian(R) 03 system (copyright 2003, Gaussian, Inc.),
 the Gaussian(R) 98 system (copyright 1998, Gaussian, Inc.),
 the Gaussian(R) 94 system (copyright 1995, Gaussian, Inc.),
 the Gaussian 92(TM) system (copyright 1992, Gaussian, Inc.),
 the Gaussian 90(TM) system (copyright 1990, Gaussian, Inc.),
 the Gaussian 88(TM) system (copyright 1988, Gaussian, Inc.),
 the Gaussian 86(TM) system (copyright 1986, Carnegie Mellon
 University), and the Gaussian 82(TM) system (copyright 1983,
 Carnegie Mellon University). Gaussian is a federally registered
 trademark of Gaussian, Inc.
  
 This software contains proprietary and confidential information,
 including trade secrets, belonging to Gaussian, Inc.
  
 This software is provided under written license and may be
 used, copied, transmitted, or stored only in accord with that
 written license.
  
 The following legend is applicable only to US Government
 contracts under FAR:
  
                    RESTRICTED RIGHTS LEGEND
  
 Use, reproduction and disclosure by the US Government is
 subject to restrictions as set forth in subparagraphs (a)
 and (c) of the Commercial Computer Software - Restricted
 Rights clause in FAR 52.227-19.
  
 Gaussian, Inc.
 340 Quinnipiac St., Bldg. 40, Wallingford CT 06492
  
  
 ---------------------------------------------------------------
 Warning -- This program may not be used in any manner that
 competes with the business of Gaussian, Inc. or will provide
 assistance to any competitor of Gaussian, Inc.  The licensee
 of this program is prohibited from giving any competitor of
 Gaussian, Inc. access to this program.  By using this program,
 the user acknowledges that Gaussian, Inc. is engaged in the
 business of creating and licensing software in the field of
 computational chemistry and represents and warrants to the
 licensee that it is not a competitor of Gaussian, Inc. and that
 it will not use this program in any manner prohibited above.
 ---------------------------------------------------------------
  

 Cite this work as:
 Gaussian 16, Revision A.03,
 M. J. Frisch, G. W. Trucks, H. B. Schlegel, G. E. Scuseria, 
 M. A. Robb, J. R. Cheeseman, G. Scalmani, V. Barone, 
 G. A. Petersson, H. Nakatsuji, X. Li, M. Caricato, A. V. Marenich, 
 J. Bloino, B. G. Janesko, R. Gomperts, B. Mennucci, H. P. Hratchian, 
 J. V. Ortiz, A. F. Izmaylov, J. L. Sonnenberg, D. Williams-Young, 
 F. Ding, F. Lipparini, F. Egidi, J. Goings, B. Peng, A. Petrone, 
 T. Henderson, D. Ranasinghe, V. G. Zakrzewski, J. Gao, N. Rega, 
 G. Zheng, W. Liang, M. Hada, M. Ehara, K. Toyota, R. Fukuda, 
 J. Hasegawa, M. Ishida, T. Nakajima, Y. Honda, O. Kitao, H. Nakai, 
 T. Vreven, K. Throssell, J. A. Montgomery, Jr., J. E. Peralta, 
 F. Ogliaro, M. J. Bearpark, J. J. Heyd, E. N. Brothers, K. N. Kudin, 
 V. N. Staroverov, T. A. Keith, R. Kobayashi, J. Normand, 
 K. Raghavachari, A. P. Rendell, J. C. Burant, S. S. Iyengar, 
 J. Tomasi, M. Cossi, J. M. Millam, M. Klene, C. Adamo, R. Cammi, 
 J. W. Ochterski, R. L. Martin, K. Morokuma, O. Farkas, 
 J. B. Foresman, and D. J. Fox, Gaussian, Inc., Wallingford CT, 2016.
 
 ******************************************
 Gaussian 16:  ES64L-G16RevA.03 25-Dec-2016
                10-Dec-2023 
 ******************************************
 %NProcShared=4
 Will use up to    4 processors via shared memory.
 %Mem=4GB
 %Chk=H2O_H2O_1099.chk
 ------------------
 #p CCSD(T)/CEP-31G
 ------------------
 1/38=1,172=1/1;
 2/12=2,17=6,18=5,40=1/2;
 3/5=9,6=1,11=9,25=1,30=1/1,2,3;
 4//1;
 5/5=2,38=5/2;
 8/6=4,9=120000,10=1/1,4;
 9/5=7,14=2/13;
 6/7=2,8=2,9=2,10=2/1;
 99/5=1,9=1/99;
 Leave Link    1 at Sun Dec 10 06:45:17 2023, MaxMem=   536870912 cpu:               0.2 elap:               0.1
 (Enter /usr/site/hpc/x86_64/glibc-2.17/broadwell/gaussian/g16_a.03/pgi-16.5/g16/l101.exe)
 ------------
 H2O_H2O_1099
 ------------
 Symbolic Z-matrix:
 Charge =  0 Multiplicity = 1
 O                     0.       -0.00983   0. 
 H                    -0.79957  -0.58097   0. 
 H                     0.79957  -0.58097   0. 
 O                    -0.00983   2.73098   0. 
 H                    -0.58097   3.53055   0. 
 H                    -0.58097   1.93141   0. 
 
 ITRead=  0  0  0  0  0  0
 MicOpt= -1 -1 -1 -1 -1 -1
 NAtoms=      6 NQM=        6 NQMF=       0 NMMI=      0 NMMIF=      0
                NMic=       0 NMicF=      0.
                    Isotopes and Nuclear Properties:
 (Nuclear quadrupole moments (NQMom) in fm**2, nuclear magnetic moments (NMagM)
  in nuclear magnetons)

  Atom         1           2           3           4           5           6
 IAtWgt=          16           1           1          16           1           1
 AtmWgt=  15.9949146   1.0078250   1.0078250  15.9949146   1.0078250   1.0078250
 NucSpn=           0           1           1           0           1           1
 AtZEff=  -0.0000000  -0.0000000  -0.0000000  -0.0000000  -0.0000000  -0.0000000
 NQMom=    0.0000000   0.0000000   0.0000000   0.0000000   0.0000000   0.0000000
 NMagM=    0.0000000   2.7928460   2.7928460   0.0000000   2.7928460   2.7928460
 AtZNuc=   8.0000000   1.0000000   1.0000000   8.0000000   1.0000000   1.0000000
 Leave Link  101 at Sun Dec 10 06:45:17 2023, MaxMem=   536870912 cpu:               0.3 elap:               0.1
 (Enter /usr/site/hpc/x86_64/glibc-2.17/broadwell/gaussian/g16_a.03/pgi-16.5/g16/l202.exe)
                          Input orientation:                          
 ---------------------------------------------------------------------
 Center     Atomic      Atomic             Coordinates (Angstroms)
 Number     Number       Type             X           Y           Z
 ---------------------------------------------------------------------
      1          8           0        0.000000   -0.009833    0.000000
      2          1           0       -0.799571   -0.580965    0.000000
      3          1           0        0.799571   -0.580965    0.000000
      4          8           0       -0.009833    2.730980    0.000000
      5          1           0       -0.580965    3.530551    0.000000
      6          1           0       -0.580965    1.931408    0.000000
 ---------------------------------------------------------------------
                    Distance matrix (angstroms):
                    1          2          3          4          5
     1  O    0.000000
     2  H    0.982601   0.000000
     3  H    0.982601   1.599142   0.000000
     4  O    2.740831   3.404800   3.409416   0.000000
     5  H    3.587735   4.117323   4.337101   0.982601   0.000000
     6  H    2.026311   2.521866   2.866688   0.982602   1.599143
                    6
     6  H    0.000000
 Stoichiometry    H4O2
 Framework group  CS[SG(H4O2)]
 Deg. of freedom     9
 Full point group                 CS      NOp   2
 Largest Abelian subgroup         CS      NOp   2
 Largest concise Abelian subgroup C1      NOp   1
                         Standard orientation:                         
 ---------------------------------------------------------------------
 Center     Atomic      Atomic             Coordinates (Angstroms)
 Number     Number       Type             X           Y           Z
 ---------------------------------------------------------------------
      1          8           0        0.057318   -1.313507    0.000000
      2          1           0       -0.744297   -1.881767    0.000000
      3          1           0        0.854835   -1.887504    0.000000
      4          8           0        0.057318    1.427323    0.000000
      5          1           0       -0.510942    2.228938    0.000000
      6          1           0       -0.516679    0.629805    0.000000
 ---------------------------------------------------------------------
 Rotational constants (GHZ):         269.8897662           6.9456711           6.7714074
 Leave Link  202 at Sun Dec 10 06:45:17 2023, MaxMem=   536870912 cpu:               0.1 elap:               0.0
 (Enter /usr/site/hpc/x86_64/glibc-2.17/broadwell/gaussian/g16_a.03/pgi-16.5/g16/l301.exe)
 Standard basis: CEP-31G (6D, 10F)
 Ernie: Thresh=  0.10000D-02 Tol=  0.10000D-05 Strict=F.
 There are    20 symmetry adapted cartesian basis functions of A'  symmetry.
 There are     4 symmetry adapted cartesian basis functions of A"  symmetry.
 There are    20 symmetry adapted basis functions of A'  symmetry.
 There are     4 symmetry adapted basis functions of A"  symmetry.
    24 basis functions,    48 primitive gaussians,    24 cartesian basis functions
     8 alpha electrons        8 beta electrons
       nuclear repulsion energy        25.4981928618 Hartrees.
 IExCor=    0 DFT=F Ex=HF Corr=None ExCW=0 ScaHFX=  1.000000
 ScaDFX=  1.000000  1.000000  1.000000  1.000000 ScalE2=  1.000000  1.000000
 IRadAn=      5 IRanWt=     -1 IRanGd=            0 ICorTp=0 IEmpDi=  4
 NAtoms=    6 NActive=    6 NUniq=    6 SFac= 1.00D+00 NAtFMM=   60 NAOKFM=F Big=F
 Integral buffers will be    131072 words long.
 Raffenetti 1 integral format.
 Two-electron integral symmetry is turned on.
 Leave Link  301 at Sun Dec 10 06:45:17 2023, MaxMem=   536870912 cpu:               0.2 elap:               0.1
 (Enter /usr/site/hpc/x86_64/glibc-2.17/broadwell/gaussian/g16_a.03/pgi-16.5/g16/l302.exe)
 NPDir=0 NMtPBC=     1 NCelOv=     1 NCel=       1 NClECP=     1 NCelD=      1
         NCelK=      1 NCelE2=     1 NClLst=     1 CellRange=     0.0.
 One-electron integrals computed using PRISM.
 One-electron integral symmetry used in STVInt
   2 Symmetry operations used in ECPInt.
 ECPInt:  NShTT=      78 NPrTT=     318 LenC2=      79 LenP2D=     290.
 LDataN:  DoStor=T MaxTD1= 2 Len=   12
 NBasis=    24 RedAO= T EigKep=  2.68D-02  NBF=    20     4
 NBsUse=    24 1.00D-06 EigRej= -1.00D+00 NBFU=    20     4
 Leave Link  302 at Sun Dec 10 06:45:17 2023, MaxMem=   536870912 cpu:               0.3 elap:               0.1
 (Enter /usr/site/hpc/x86_64/glibc-2.17/broadwell/gaussian/g16_a.03/pgi-16.5/g16/l303.exe)
 DipDrv:  MaxL=1.
 Leave Link  303 at Sun Dec 10 06:45:17 2023, MaxMem=   536870912 cpu:               0.1 elap:               0.0
 (Enter /usr/site/hpc/x86_64/glibc-2.17/broadwell/gaussian/g16_a.03/pgi-16.5/g16/l401.exe)
 ExpMin= 1.78D-01 ExpMax= 1.92D+01 ExpMxC= 1.92D+01 IAcc=3 IRadAn=         5 AccDes= 0.00D+00
 Harris functional with IExCor=  205 and IRadAn=       5 diagonalized for initial guess.
 HarFok:  IExCor=  205 AccDes= 0.00D+00 IRadAn=         5 IDoV= 1 UseB2=F ITyADJ=14
 ICtDFT=  3500011 ScaDFX=  1.000000  1.000000  1.000000  1.000000
 FoFCou: FMM=F IPFlag=           0 FMFlag=      100000 FMFlg1=           0
         NFxFlg=           0 DoJE=T BraDBF=F KetDBF=T FulRan=T
         wScrn=  0.000000 ICntrl=       500 IOpCl=  0 I1Cent=   200000004 NGrid=           0
         NMat0=    1 NMatS0=      1 NMatT0=    0 NMatD0=    1 NMtDS0=    0 NMtDT0=    0
 Petite list used in FoFCou.
 Harris En= -34.4815476431128    
 JPrj=0 DoOrth=F DoCkMO=F.
 Initial guess orbital symmetries:
       Occupied  (A') (A') (A') (A') (A') (A') (A") (A")
       Virtual   (A') (A') (A') (A') (A') (A") (A') (A") (A') (A')
                 (A') (A') (A') (A') (A') (A')
 The electronic state of the initial guess is 1-A'.
 Leave Link  401 at Sun Dec 10 06:45:17 2023, MaxMem=   536870912 cpu:               0.4 elap:               0.1
 (Enter /usr/site/hpc/x86_64/glibc-2.17/broadwell/gaussian/g16_a.03/pgi-16.5/g16/l502.exe)
 Keep R1 ints in memory in symmetry-blocked form, NReq=852625.
 FoFCou: FMM=F IPFlag=           0 FMFlag=           0 FMFlg1=           0
         NFxFlg=           0 DoJE=F BraDBF=F KetDBF=F FulRan=T
         wScrn=  0.000000 ICntrl=       600 IOpCl=  0 I1Cent=           0 NGrid=           0
         NMat0=    1 NMatS0=    300 NMatT0=    0 NMatD0=    1 NMtDS0=    0 NMtDT0=    0
 Petite list used in FoFCou.
 Closed shell SCF:
 Using DIIS extrapolation, IDIIS=  1040.
 NGot=   536870912 LenX=   536840576 LenY=   536839559
 Requested convergence on RMS density matrix=1.00D-08 within 128 cycles.
 Requested convergence on MAX density matrix=1.00D-06.
 Requested convergence on             energy=1.00D-06.
 No special actions if energy rises.

 Cycle   1  Pass 1  IDiag  1:
 E= -33.5633457970495    
 DIIS: error= 6.28D-02 at cycle   1 NSaved=   1.
 NSaved= 1 IEnMin= 1 EnMin= -33.5633457970495     IErMin= 1 ErrMin= 6.28D-02
 ErrMax= 6.28D-02  0.00D+00 EMaxC= 1.00D-01 BMatC= 9.78D-02 BMatP= 9.78D-02
 IDIUse=3 WtCom= 3.72D-01 WtEn= 6.28D-01
 Coeff-Com:  0.100D+01
 Coeff-En:   0.100D+01
 Coeff:      0.100D+01
 Gap=     0.575 Goal=   None    Shift=    0.000
 GapD=    0.575 DampG=2.000 DampE=0.500 DampFc=1.0000 IDamp=-1.
 RMSDP=1.50D-02 MaxDP=1.20D-01              OVMax= 9.71D-02

 Cycle   2  Pass 1  IDiag  1:
 E= -33.6248930119746     Delta-E=       -0.061547214925 Rises=F Damp=F
 DIIS: error= 3.57D-02 at cycle   2 NSaved=   2.
 NSaved= 2 IEnMin= 2 EnMin= -33.6248930119746     IErMin= 2 ErrMin= 3.57D-02
 ErrMax= 3.57D-02  0.00D+00 EMaxC= 1.00D-01 BMatC= 3.55D-02 BMatP= 9.78D-02
 IDIUse=3 WtCom= 6.43D-01 WtEn= 3.57D-01
 Coeff-Com:  0.373D+00 0.627D+00
 Coeff-En:   0.855D-01 0.915D+00
 Coeff:      0.270D+00 0.730D+00
 Gap=     0.656 Goal=   None    Shift=    0.000
 RMSDP=6.29D-03 MaxDP=5.53D-02 DE=-6.15D-02 OVMax= 3.64D-02

 Cycle   3  Pass 1  IDiag  1:
 E= -33.6531030229053     Delta-E=       -0.028210010931 Rises=F Damp=F
 DIIS: error= 6.70D-03 at cycle   3 NSaved=   3.
 NSaved= 3 IEnMin= 3 EnMin= -33.6531030229053     IErMin= 3 ErrMin= 6.70D-03
 ErrMax= 6.70D-03  0.00D+00 EMaxC= 1.00D-01 BMatC= 9.23D-04 BMatP= 3.55D-02
 IDIUse=3 WtCom= 9.33D-01 WtEn= 6.70D-02
 Coeff-Com: -0.109D+00-0.430D-02 0.111D+01
 Coeff-En:   0.000D+00 0.000D+00 0.100D+01
 Coeff:     -0.101D+00-0.401D-02 0.111D+01
 Gap=     0.648 Goal=   None    Shift=    0.000
 RMSDP=1.16D-03 MaxDP=9.23D-03 DE=-2.82D-02 OVMax= 7.74D-03

 Cycle   4  Pass 1  IDiag  1:
 E= -33.6540157401341     Delta-E=       -0.000912717229 Rises=F Damp=F
 DIIS: error= 6.94D-04 at cycle   4 NSaved=   4.
 NSaved= 4 IEnMin= 4 EnMin= -33.6540157401341     IErMin= 4 ErrMin= 6.94D-04
 ErrMax= 6.94D-04  0.00D+00 EMaxC= 1.00D-01 BMatC= 5.94D-06 BMatP= 9.23D-04
 IDIUse=3 WtCom= 9.93D-01 WtEn= 6.94D-03
 Coeff-Com:  0.309D-01-0.212D-01-0.400D+00 0.139D+01
 Coeff-En:   0.000D+00 0.000D+00 0.000D+00 0.100D+01
 Coeff:      0.306D-01-0.211D-01-0.397D+00 0.139D+01
 Gap=     0.651 Goal=   None    Shift=    0.000
 RMSDP=2.33D-04 MaxDP=2.05D-03 DE=-9.13D-04 OVMax= 1.23D-03

 Cycle   5  Pass 1  IDiag  1:
 E= -33.6540285894375     Delta-E=       -0.000012849303 Rises=F Damp=F
 DIIS: error= 8.47D-05 at cycle   5 NSaved=   5.
 NSaved= 5 IEnMin= 5 EnMin= -33.6540285894375     IErMin= 5 ErrMin= 8.47D-05
 ErrMax= 8.47D-05  0.00D+00 EMaxC= 1.00D-01 BMatC= 3.17D-07 BMatP= 5.94D-06
 IDIUse=1 WtCom= 1.00D+00 WtEn= 0.00D+00
 Coeff-Com:  0.119D-01-0.526D-02-0.143D+00 0.337D+00 0.800D+00
 Coeff:      0.119D-01-0.526D-02-0.143D+00 0.337D+00 0.800D+00
 Gap=     0.650 Goal=   None    Shift=    0.000
 RMSDP=2.91D-05 MaxDP=3.02D-04 DE=-1.28D-05 OVMax= 2.06D-04

 Cycle   6  Pass 1  IDiag  1:
 E= -33.6540289775632     Delta-E=       -0.000000388126 Rises=F Damp=F
 DIIS: error= 2.56D-05 at cycle   6 NSaved=   6.
 NSaved= 6 IEnMin= 6 EnMin= -33.6540289775632     IErMin= 6 ErrMin= 2.56D-05
 ErrMax= 2.56D-05  0.00D+00 EMaxC= 1.00D-01 BMatC= 1.91D-08 BMatP= 3.17D-07
 IDIUse=1 WtCom= 1.00D+00 WtEn= 0.00D+00
 Coeff-Com: -0.360D-02 0.199D-02 0.445D-01-0.150D+00 0.161D-01 0.109D+01
 Coeff:     -0.360D-02 0.199D-02 0.445D-01-0.150D+00 0.161D-01 0.109D+01
 Gap=     0.651 Goal=   None    Shift=    0.000
 RMSDP=9.70D-06 MaxDP=1.03D-04 DE=-3.88D-07 OVMax= 6.52D-05

 Cycle   7  Pass 1  IDiag  1:
 E= -33.6540290121887     Delta-E=       -0.000000034625 Rises=F Damp=F
 DIIS: error= 4.53D-06 at cycle   7 NSaved=   7.
 NSaved= 7 IEnMin= 7 EnMin= -33.6540290121887     IErMin= 7 ErrMin= 4.53D-06
 ErrMax= 4.53D-06  0.00D+00 EMaxC= 1.00D-01 BMatC= 6.27D-10 BMatP= 1.91D-08
 IDIUse=1 WtCom= 1.00D+00 WtEn= 0.00D+00
 Coeff-Com:  0.945D-03-0.467D-03-0.114D-01 0.423D-01-0.290D-01-0.383D+00
 Coeff-Com:  0.138D+01
 Coeff:      0.945D-03-0.467D-03-0.114D-01 0.423D-01-0.290D-01-0.383D+00
 Coeff:      0.138D+01
 Gap=     0.651 Goal=   None    Shift=    0.000
 RMSDP=2.35D-06 MaxDP=2.26D-05 DE=-3.46D-08 OVMax= 2.06D-05

 Cycle   8  Pass 1  IDiag  1:
 E= -33.6540290139666     Delta-E=       -0.000000001778 Rises=F Damp=F
 DIIS: error= 9.10D-07 at cycle   8 NSaved=   8.
 NSaved= 8 IEnMin= 8 EnMin= -33.6540290139666     IErMin= 8 ErrMin= 9.10D-07
 ErrMax= 9.10D-07  0.00D+00 EMaxC= 1.00D-01 BMatC= 2.51D-11 BMatP= 6.27D-10
 IDIUse=1 WtCom= 1.00D+00 WtEn= 0.00D+00
 Coeff-Com:  0.153D-04-0.420D-04-0.331D-03 0.398D-03 0.629D-02 0.135D-01
 Coeff-Com: -0.266D+00 0.125D+01
 Coeff:      0.153D-04-0.420D-04-0.331D-03 0.398D-03 0.629D-02 0.135D-01
 Coeff:     -0.266D+00 0.125D+01
 Gap=     0.651 Goal=   None    Shift=    0.000
 RMSDP=5.01D-07 MaxDP=4.20D-06 DE=-1.78D-09 OVMax= 4.40D-06

 Cycle   9  Pass 1  IDiag  1:
 E= -33.6540290140357     Delta-E=       -0.000000000069 Rises=F Damp=F
 DIIS: error= 2.03D-07 at cycle   9 NSaved=   9.
 NSaved= 9 IEnMin= 9 EnMin= -33.6540290140357     IErMin= 9 ErrMin= 2.03D-07
 ErrMax= 2.03D-07  0.00D+00 EMaxC= 1.00D-01 BMatC= 8.93D-13 BMatP= 2.51D-11
 IDIUse=1 WtCom= 1.00D+00 WtEn= 0.00D+00
 Coeff-Com:  0.192D-05 0.108D-04 0.354D-04 0.275D-05-0.191D-02-0.420D-02
 Coeff-Com:  0.881D-01-0.503D+00 0.142D+01
 Coeff:      0.192D-05 0.108D-04 0.354D-04 0.275D-05-0.191D-02-0.420D-02
 Coeff:      0.881D-01-0.503D+00 0.142D+01
 Gap=     0.651 Goal=   None    Shift=    0.000
 RMSDP=1.38D-07 MaxDP=6.40D-07 DE=-6.92D-11 OVMax= 9.54D-07

 Cycle  10  Pass 1  IDiag  1:
 E= -33.6540290140385     Delta-E=       -0.000000000003 Rises=F Damp=F
 DIIS: error= 1.81D-08 at cycle  10 NSaved=  10.
 NSaved=10 IEnMin=10 EnMin= -33.6540290140385     IErMin=10 ErrMin= 1.81D-08
 ErrMax= 1.81D-08  0.00D+00 EMaxC= 1.00D-01 BMatC= 1.25D-14 BMatP= 8.93D-13
 IDIUse=1 WtCom= 1.00D+00 WtEn= 0.00D+00
 Coeff-Com:  0.319D-06-0.277D-05-0.166D-04 0.454D-04 0.373D-03 0.469D-03
 Coeff-Com: -0.181D-01 0.113D+00-0.411D+00 0.132D+01
 Coeff:      0.319D-06-0.277D-05-0.166D-04 0.454D-04 0.373D-03 0.469D-03
 Coeff:     -0.181D-01 0.113D+00-0.411D+00 0.132D+01
 Gap=     0.651 Goal=   None    Shift=    0.000
 RMSDP=1.89D-08 MaxDP=9.84D-08 DE=-2.77D-12 OVMax= 1.24D-07

 Cycle  11  Pass 1  IDiag  1:
 E= -33.6540290140385     Delta-E=        0.000000000000 Rises=F Damp=F
 DIIS: error= 2.35D-09 at cycle  11 NSaved=  11.
 NSaved=11 IEnMin=10 EnMin= -33.6540290140385     IErMin=11 ErrMin= 2.35D-09
 ErrMax= 2.35D-09  0.00D+00 EMaxC= 1.00D-01 BMatC= 9.16D-17 BMatP= 1.25D-14
 IDIUse=1 WtCom= 1.00D+00 WtEn= 0.00D+00
 Coeff-Com: -0.145D-06 0.744D-06 0.503D-05-0.149D-04-0.987D-04-0.986D-04
 Coeff-Com:  0.474D-02-0.302D-01 0.113D+00-0.399D+00 0.131D+01
 Coeff:     -0.145D-06 0.744D-06 0.503D-05-0.149D-04-0.987D-04-0.986D-04
 Coeff:      0.474D-02-0.302D-01 0.113D+00-0.399D+00 0.131D+01
 Gap=     0.651 Goal=   None    Shift=    0.000
 RMSDP=1.31D-09 MaxDP=7.25D-09 DE= 2.84D-14 OVMax= 1.01D-08

 SCF Done:  E(RHF) =  -33.6540290140     A.U. after   11 cycles
            NFock= 11  Conv=0.13D-08     -V/T= 2.2555
 KE= 2.680591846416D+01 PE=-1.328073613149D+02 EE= 4.684922097490D+01
 Leave Link  502 at Sun Dec 10 06:45:18 2023, MaxMem=   536870912 cpu:               0.3 elap:               0.1
 (Enter /usr/site/hpc/x86_64/glibc-2.17/broadwell/gaussian/g16_a.03/pgi-16.5/g16/l801.exe)
 Windowed orbitals will be sorted by symmetry type.
 Range of M.O.s used for correlation:     1    24
 NBasis=    24 NAE=     8 NBE=     8 NFC=     0 NFV=     0
 NROrb=     24 NOA=     8 NOB=     8 NVA=    16 NVB=    16
 Leave Link  801 at Sun Dec 10 06:45:18 2023, MaxMem=   536870912 cpu:               0.1 elap:               0.0
 (Enter /usr/site/hpc/x86_64/glibc-2.17/broadwell/gaussian/g16_a.03/pgi-16.5/g16/l804.exe)
 Closed-shell transformation, MDV=   536870912 ITran=4 ISComp=2.
 Unit  1 TFree=       1025975 TCopy=        210600.
 Semi-Direct transformation.
 ModeAB=           2 MOrb=             8 LenV=     536741638
 LASXX=        22470 LTotXX=       22470 LenRXX=       22470
 LTotAB=       26208 MaxLAS=       57600 LenRXY=       57600
 NonZer=       62208 LenScr=      524288 LnRSAI=           0
 LnScr1=           0 LExtra=           0 Total=       604358
 MaxDsk=          -1 SrtSym=           F ITran=            4
 DoSDTr:  NPSUse=  4
 JobTyp=0 Pass  1:  I=   1 to   8.
 (rs|ai) integrals will be sorted in core.
 Complete sort for first half transformation.
 First half transformation complete.
 Complete sort for second half transformation.
 Second half transformation complete.
 Spin components of T(2) and E(2):
     alpha-alpha T2 =       0.9145296454D-02 E2=     -0.2623115211D-01
     alpha-beta  T2 =       0.5978272266D-01 E2=     -0.1770651804D+00
     beta-beta   T2 =       0.9145296454D-02 E2=     -0.2623115211D-01
 ANorm=    0.1038303094D+01
 E2 =    -0.2295274846D+00 EUMP2 =    -0.33883556498641D+02
 Leave Link  804 at Sun Dec 10 06:45:18 2023, MaxMem=   536870912 cpu:               0.2 elap:               0.1
 (Enter /usr/site/hpc/x86_64/glibc-2.17/broadwell/gaussian/g16_a.03/pgi-16.5/g16/l913.exe)
 CIDS:  MDV=   536870912.
 IFCWin=0 IBDFC=1 NFBD=     0     0 NFCmp=     0     0 NFFFC=     0     0
 Using DD3R+UMP44R for 1st iteration.
 Using DD4RQ for 2nd and later iterations.
 Keep R2 and R3 ints in memory in symmetry-blocked form, NReq=865233.
 FoFCou: FMM=F IPFlag=           0 FMFlag=           0 FMFlg1=           0
         NFxFlg=           0 DoJE=F BraDBF=F KetDBF=F FulRan=T
         wScrn=  0.000000 ICntrl=       600 IOpCl=  0 I1Cent=           0 NGrid=           0
         NMat0=    1 NMatS0=    300 NMatT0=    0 NMatD0=    1 NMtDS0=    0 NMtDT0=    0
 Petite list used in FoFCou.
 CIDS: In Core Option IDoMem=           1.
 CCSD(T)
 =======
 Iterations=  50 Convergence= 0.100D-06
 Produce multiple copies of IABC intergrals
 Iteration Nr.   1
 **********************
 DD1Dir will call FoFMem   1 times, MxPair=        72
 NAB=    36 NAA=     0 NBB=     0.
 MP4(R+Q)= -0.66596173D-03
 Maximum subspace dimension=  5
 A-vector RMS=  5.9518630D-03 Max=  1.2668505D-02 conv= 1.00D-05.
 RLE energy=       -0.2352420663
 E3=       -0.51863470D-02        EUMP3=      -0.33888742846D+02
 E4(DQ)=   -0.58067529D-02        UMP4(DQ)=   -0.33894549599D+02
 E4(SDQ)=  -0.79463037D-02        UMP4(SDQ)=  -0.33896689149D+02
 VARIATIONAL ENERGIES WITH THE FIRST-ORDER WAVEFUNCTION:
 DE(Corr)= -0.23510359     E(Corr)=     -33.889132601    
 NORM(A)=   0.10416558D+01
 Iteration Nr.   2
 **********************
 DD1Dir will call FoFMem   1 times, MxPair=        72
 NAB=    36 NAA=     0 NBB=     0.
 A-vector RMS=  9.7451906D-04 Max=  2.6391464D-03 conv= 1.00D-05.
 RLE energy=       -0.2430544959
 DE(Corr)= -0.24114700     E(CORR)=     -33.895176014     Delta=-6.04D-03
 NORM(A)=   0.10454697D+01
 Iteration Nr.   3
 **********************
 DD1Dir will call FoFMem   1 times, MxPair=        72
 NAB=    36 NAA=     0 NBB=     0.
 A-vector RMS=  4.0157464D-04 Max=  8.9715889D-04 conv= 1.00D-05.
 RLE energy=       -0.2436037844
 DE(Corr)= -0.24314680     E(CORR)=     -33.897175818     Delta=-2.00D-03
 NORM(A)=   0.10460388D+01
 Iteration Nr.   4
 **********************
 DD1Dir will call FoFMem   1 times, MxPair=        72
 NAB=    36 NAA=     0 NBB=     0.
 A-vector RMS=  9.3163095D-05 Max=  2.3012233D-04 conv= 1.00D-05.
 RLE energy=       -0.2436540303
 DE(Corr)= -0.24361802     E(CORR)=     -33.897647030     Delta=-4.71D-04
 NORM(A)=   0.10461127D+01
 Iteration Nr.   5
 **********************
 DD1Dir will call FoFMem   1 times, MxPair=        72
 NAB=    36 NAA=     0 NBB=     0.
 A-vector RMS=  3.9188915D-05 Max=  1.2164925D-04 conv= 1.00D-05.
 RLE energy=       -0.2436533874
 DE(Corr)= -0.24365047     E(CORR)=     -33.897679488     Delta=-3.25D-05
 NORM(A)=   0.10461219D+01
 Iteration Nr.   6
 **********************
 DD1Dir will call FoFMem   1 times, MxPair=        72
 NAB=    36 NAA=     0 NBB=     0.
 A-vector RMS=  1.4270969D-05 Max=  5.0519930D-05 conv= 1.00D-05.
 RLE energy=       -0.2436504324
 DE(Corr)= -0.24365311     E(CORR)=     -33.897682125     Delta=-2.64D-06
 NORM(A)=   0.10461241D+01
 Iteration Nr.   7
 **********************
 DD1Dir will call FoFMem   1 times, MxPair=        72
 NAB=    36 NAA=     0 NBB=     0.
 A-vector RMS=  4.8493528D-06 Max=  1.5555574D-05 conv= 1.00D-05.
 RLE energy=       -0.2436521563
 DE(Corr)= -0.24365268     E(CORR)=     -33.897681690     Delta= 4.35D-07
 NORM(A)=   0.10461257D+01
 Iteration Nr.   8
 **********************
 DD1Dir will call FoFMem   1 times, MxPair=        72
 NAB=    36 NAA=     0 NBB=     0.
 A-vector RMS=  1.6744204D-06 Max=  5.9094404D-06 conv= 1.00D-05.
 RLE energy=       -0.2436521900
 DE(Corr)= -0.24365233     E(CORR)=     -33.897681348     Delta= 3.42D-07
 NORM(A)=   0.10461262D+01
 Iteration Nr.   9
 **********************
 DD1Dir will call FoFMem   1 times, MxPair=        72
 NAB=    36 NAA=     0 NBB=     0.
 A-vector RMS=  4.4826892D-07 Max=  1.7053378D-06 conv= 1.00D-05.
 RLE energy=       -0.2436524372
 DE(Corr)= -0.24365247     E(CORR)=     -33.897681480     Delta=-1.32D-07
 NORM(A)=   0.10461265D+01
 Iteration Nr.  10
 **********************
 DD1Dir will call FoFMem   1 times, MxPair=        72
 NAB=    36 NAA=     0 NBB=     0.
 A-vector RMS=  1.2288056D-07 Max=  5.5929095D-07 conv= 1.00D-05.
 RLE energy=       -0.2436525666
 DE(Corr)= -0.24365254     E(CORR)=     -33.897681554     Delta=-7.36D-08
 NORM(A)=   0.10461266D+01
 CI/CC converged in   10 iterations to DelEn=-7.36D-08 Conv= 1.00D-07 ErrA1= 1.23D-07 Conv= 1.00D-05
 Wavefunction amplitudes converged. E(Corr)=     -33.897681554    
 Largest amplitude= 4.38D-02
 IPart=  3 IA=    2   12.50% done.
 IPart=  2 IA=    3   24.17% done.
 IPart=  4 IA=    4   35.00% done.
 IPart=  2 IA=    5   45.00% done.
 IPart=  4 IA=    6   54.17% done.
 IPart=  3 IA=    7   62.50% done.
 IPart=  1 IA=    8   70.00% done.
 IPart=  3 IA=   10   82.50% done.
 IPart=  2 IA=   12   91.67% done.
 Time for triples=        0.26 seconds.
 T4(CCSD)= -0.32813755D-02
 T5(CCSD)=  0.54843134D-03
 CCSD(T)= -0.33900414498D+02
 Discarding MO integrals.
 Leave Link  913 at Sun Dec 10 06:45:18 2023, MaxMem=   536870912 cpu:               0.9 elap:               0.3
 (Enter /usr/site/hpc/x86_64/glibc-2.17/broadwell/gaussian/g16_a.03/pgi-16.5/g16/l601.exe)
 Copying SCF densities to generalized density rwf, IOpCl= 0 IROHF=0.

 **********************************************************************

            Population analysis using the SCF density.

 **********************************************************************

 Orbital symmetries:
       Occupied  (A') (A') (A') (A') (A') (A") (A') (A")
       Virtual   (A') (A') (A') (A') (A") (A') (A") (A') (A') (A')
                 (A') (A') (A') (A') (A') (A')
 The electronic state is 1-A'.
 Alpha  occ. eigenvalues --   -1.36954  -1.31697  -0.72603  -0.68029  -0.56435
 Alpha  occ. eigenvalues --   -0.51580  -0.51554  -0.46298
 Alpha virt. eigenvalues --    0.18761   0.26126   0.29357   0.36838   0.76879
 Alpha virt. eigenvalues --    0.78188   0.86905   0.87323   0.95344   1.10529
 Alpha virt. eigenvalues --    1.17241   1.19939   1.22768   1.31240   2.56829
 Alpha virt. eigenvalues --    2.90248
          Condensed to atoms (all electrons):
               1          2          3          4          5          6
     1  O    6.265051   0.256691   0.277030  -0.017241   0.000544  -0.011451
     2  H    0.256691   0.395224  -0.022717   0.000583  -0.000025   0.000207
     3  H    0.277030  -0.022717   0.341405   0.000357  -0.000012   0.000508
     4  O   -0.017241   0.000583   0.000357   6.241098   0.249342   0.270194
     5  H    0.000544  -0.000025  -0.000012   0.249342   0.432912  -0.022506
     6  H   -0.011451   0.000207   0.000508   0.270194  -0.022506   0.361298
 Mulliken charges:
               1
     1  O   -0.770624
     2  H    0.370036
     3  H    0.403428
     4  O   -0.744333
     5  H    0.339745
     6  H    0.401749
 Sum of Mulliken charges =  -0.00000
 Mulliken charges with hydrogens summed into heavy atoms:
               1
     1  O    0.002840
     4  O   -0.002840
 Electronic spatial extent (au):  <R**2>=            153.1361
 Charge=             -0.0000 electrons
 Dipole moment (field-independent basis, Debye):
    X=             -2.5094    Y=             -2.9725    Z=              0.0000  Tot=              3.8901
 Quadrupole moment (field-independent basis, Debye-Ang):
   XX=            -10.1227   YY=             -3.6255   ZZ=            -15.0060
   XY=             -4.0190   XZ=              0.0000   YZ=              0.0000
 Traceless Quadrupole moment (field-independent basis, Debye-Ang):
   XX=             -0.5380   YY=              5.9593   ZZ=             -5.4213
   XY=             -4.0190   XZ=              0.0000   YZ=              0.0000
 Octapole moment (field-independent basis, Debye-Ang**2):
  XXX=             -1.0678  YYY=             -9.6685  ZZZ=              0.0000  XYY=             -5.7269
  XXY=             -4.8813  XXZ=              0.0000  XZZ=             -0.4579  YZZ=             -0.6242
  YYZ=              0.0000  XYZ=              0.0000
 Hexadecapole moment (field-independent basis, Debye-Ang**3):
 XXXX=            -12.7284 YYYY=           -105.1838 ZZZZ=            -12.2565 XXXY=             -0.3272
 XXXZ=              0.0000 YYYX=            -12.4326 YYYZ=              0.0000 ZZZX=              0.0000
 ZZZY=              0.0000 XXYY=            -20.4725 XXZZ=             -4.5358 YYZZ=            -33.9135
 XXYZ=              0.0000 YYXZ=              0.0000 ZZXY=              0.4555
 N-N= 2.549819286177D+01 E-N=-1.328073613169D+02  KE= 2.680591846416D+01
 Symmetry A'   KE= 1.794291142677D+01
 Symmetry A"   KE= 8.863007037394D+00
 Leave Link  601 at Sun Dec 10 06:45:18 2023, MaxMem=   536870912 cpu:               0.1 elap:               0.0
 (Enter /usr/site/hpc/x86_64/glibc-2.17/broadwell/gaussian/g16_a.03/pgi-16.5/g16/l9999.exe)
 1\1\GINC-N033\SP\RCCSD(T)-FC\CEP-31G\H4O2\ROOT\10-Dec-2023\0\\#p CCSD(
 T)/CEP-31G\\H2O_H2O_1099\\0,1\O,0,0.,-0.009833,0.\H,0,-0.799571,-0.580
 965,0.\H,0,0.799571,-0.580965,0.\O,0,-0.009833,2.73098,0.\H,0,-0.58096
 5,3.530551,0.\H,0,-0.580965,1.931408,0.\\Version=ES64L-G16RevA.03\Stat
 e=1-A'\HF=-33.654029\MP2=-33.8835565\MP3=-33.8887428\MP4D=-33.8938836\
 MP4DQ=-33.8945496\MP4SDQ=-33.8966891\CCSD=-33.8976816\CCSD(T)=-33.9004
 145\RMSD=1.305e-09\PG=CS [SG(H4O2)]\\@


 TRUTH, IN SCIENCE, CAN BE DEFINED AS THE WORKING HYPOTHESIS 
 BEST FITTED TO OPEN THE WAY TO THE NEXT BETTER ONE.

                              -- KONRAD LORENZ
 Job cpu time:       0 days  0 hours  0 minutes  3.4 seconds.
 Elapsed time:       0 days  0 hours  0 minutes  1.1 seconds.
 File lengths (MBytes):  RWF=     72 Int=      0 D2E=      0 Chk=      8 Scr=      8
 Normal termination of Gaussian 16 at Sun Dec 10 06:45:18 2023.
