 Entering Gaussian System, Link 0=g16
 Input=H2O_H2O_115.com
 Output=H2O_H2O_115.log
 Initial command:
 /usr/site/hpc/x86_64/glibc-2.17/broadwell/gaussian/g16_a.03/pgi-16.5/g16/l1.exe "/gpfs/gpfs1/scratch/c7441090/OO Coord/Gau-1169293.inp" -scrdir="/gpfs/gpfs1/scratch/c7441090/OO Coord/"
 Entering Link 1 = /usr/site/hpc/x86_64/glibc-2.17/broadwell/gaussian/g16_a.03/pgi-16.5/g16/l1.exe PID=   1169294.
  
 Copyright (c) 1988,1990,1992,1993,1995,1998,2003,2009,2016,
            Gaussian, Inc.  All Rights Reserved.
  
 This is part of the Gaussian(R) 16 program.  It is based on
 the Gaussian(R) 09 system (copyright 2009, Gaussian, Inc.),
 the Gaussian(R) 03 system (copyright 2003, Gaussian, Inc.),
 the Gaussian(R) 98 system (copyright 1998, Gaussian, Inc.),
 the Gaussian(R) 94 system (copyright 1995, Gaussian, Inc.),
 the Gaussian 92(TM) system (copyright 1992, Gaussian, Inc.),
 the Gaussian 90(TM) system (copyright 1990, Gaussian, Inc.),
 the Gaussian 88(TM) system (copyright 1988, Gaussian, Inc.),
 the Gaussian 86(TM) system (copyright 1986, Carnegie Mellon
 University), and the Gaussian 82(TM) system (copyright 1983,
 Carnegie Mellon University). Gaussian is a federally registered
 trademark of Gaussian, Inc.
  
 This software contains proprietary and confidential information,
 including trade secrets, belonging to Gaussian, Inc.
  
 This software is provided under written license and may be
 used, copied, transmitted, or stored only in accord with that
 written license.
  
 The following legend is applicable only to US Government
 contracts under FAR:
  
                    RESTRICTED RIGHTS LEGEND
  
 Use, reproduction and disclosure by the US Government is
 subject to restrictions as set forth in subparagraphs (a)
 and (c) of the Commercial Computer Software - Restricted
 Rights clause in FAR 52.227-19.
  
 Gaussian, Inc.
 340 Quinnipiac St., Bldg. 40, Wallingford CT 06492
  
  
 ---------------------------------------------------------------
 Warning -- This program may not be used in any manner that
 competes with the business of Gaussian, Inc. or will provide
 assistance to any competitor of Gaussian, Inc.  The licensee
 of this program is prohibited from giving any competitor of
 Gaussian, Inc. access to this program.  By using this program,
 the user acknowledges that Gaussian, Inc. is engaged in the
 business of creating and licensing software in the field of
 computational chemistry and represents and warrants to the
 licensee that it is not a competitor of Gaussian, Inc. and that
 it will not use this program in any manner prohibited above.
 ---------------------------------------------------------------
  

 Cite this work as:
 Gaussian 16, Revision A.03,
 M. J. Frisch, G. W. Trucks, H. B. Schlegel, G. E. Scuseria, 
 M. A. Robb, J. R. Cheeseman, G. Scalmani, V. Barone, 
 G. A. Petersson, H. Nakatsuji, X. Li, M. Caricato, A. V. Marenich, 
 J. Bloino, B. G. Janesko, R. Gomperts, B. Mennucci, H. P. Hratchian, 
 J. V. Ortiz, A. F. Izmaylov, J. L. Sonnenberg, D. Williams-Young, 
 F. Ding, F. Lipparini, F. Egidi, J. Goings, B. Peng, A. Petrone, 
 T. Henderson, D. Ranasinghe, V. G. Zakrzewski, J. Gao, N. Rega, 
 G. Zheng, W. Liang, M. Hada, M. Ehara, K. Toyota, R. Fukuda, 
 J. Hasegawa, M. Ishida, T. Nakajima, Y. Honda, O. Kitao, H. Nakai, 
 T. Vreven, K. Throssell, J. A. Montgomery, Jr., J. E. Peralta, 
 F. Ogliaro, M. J. Bearpark, J. J. Heyd, E. N. Brothers, K. N. Kudin, 
 V. N. Staroverov, T. A. Keith, R. Kobayashi, J. Normand, 
 K. Raghavachari, A. P. Rendell, J. C. Burant, S. S. Iyengar, 
 J. Tomasi, M. Cossi, J. M. Millam, M. Klene, C. Adamo, R. Cammi, 
 J. W. Ochterski, R. L. Martin, K. Morokuma, O. Farkas, 
 J. B. Foresman, and D. J. Fox, Gaussian, Inc., Wallingford CT, 2016.
 
 ******************************************
 Gaussian 16:  ES64L-G16RevA.03 25-Dec-2016
                10-Dec-2023 
 ******************************************
 %NProcShared=4
 Will use up to    4 processors via shared memory.
 %Mem=4GB
 %Chk=H2O_H2O_115.chk
 ------------------
 #p CCSD(T)/CEP-31G
 ------------------
 1/38=1,172=1/1;
 2/12=2,17=6,18=5,40=1/2;
 3/5=9,6=1,11=9,25=1,30=1/1,2,3;
 4//1;
 5/5=2,38=5/2;
 8/6=4,9=120000,10=1/1,4;
 9/5=7,14=2/13;
 6/7=2,8=2,9=2,10=2/1;
 99/5=1,9=1/99;
 Leave Link    1 at Sun Dec 10 06:26:52 2023, MaxMem=   536870912 cpu:               0.2 elap:               0.1
 (Enter /usr/site/hpc/x86_64/glibc-2.17/broadwell/gaussian/g16_a.03/pgi-16.5/g16/l101.exe)
 -----------
 H2O_H2O_115
 -----------
 Symbolic Z-matrix:
 Charge =  0 Multiplicity = 1
 O                     0.       -0.00983   0. 
 H                    -0.79957  -0.58097   0. 
 H                     0.79957  -0.58097   0. 
 O                    -0.00818   1.69936   0. 
 H                    -0.03884   2.68149   0. 
 H                    -0.92727   1.35185   0. 
 
 ITRead=  0  0  0  0  0  0
 MicOpt= -1 -1 -1 -1 -1 -1
 NAtoms=      6 NQM=        6 NQMF=       0 NMMI=      0 NMMIF=      0
                NMic=       0 NMicF=      0.
                    Isotopes and Nuclear Properties:
 (Nuclear quadrupole moments (NQMom) in fm**2, nuclear magnetic moments (NMagM)
  in nuclear magnetons)

  Atom         1           2           3           4           5           6
 IAtWgt=          16           1           1          16           1           1
 AtmWgt=  15.9949146   1.0078250   1.0078250  15.9949146   1.0078250   1.0078250
 NucSpn=           0           1           1           0           1           1
 AtZEff=  -0.0000000  -0.0000000  -0.0000000  -0.0000000  -0.0000000  -0.0000000
 NQMom=    0.0000000   0.0000000   0.0000000   0.0000000   0.0000000   0.0000000
 NMagM=    0.0000000   2.7928460   2.7928460   0.0000000   2.7928460   2.7928460
 AtZNuc=   8.0000000   1.0000000   1.0000000   8.0000000   1.0000000   1.0000000
 Leave Link  101 at Sun Dec 10 06:26:52 2023, MaxMem=   536870912 cpu:               0.3 elap:               0.1
 (Enter /usr/site/hpc/x86_64/glibc-2.17/broadwell/gaussian/g16_a.03/pgi-16.5/g16/l202.exe)
                          Input orientation:                          
 ---------------------------------------------------------------------
 Center     Atomic      Atomic             Coordinates (Angstroms)
 Number     Number       Type             X           Y           Z
 ---------------------------------------------------------------------
      1          8           0        0.000000   -0.009833    0.000000
      2          1           0       -0.799571   -0.580965    0.000000
      3          1           0        0.799571   -0.580965    0.000000
      4          8           0       -0.008176    1.699362    0.000000
      5          1           0       -0.038837    2.681485    0.000000
      6          1           0       -0.927273    1.351847    0.000000
 ---------------------------------------------------------------------
                    Distance matrix (angstroms):
                    1          2          3          4          5
     1  O    0.000000
     2  H    0.982601   0.000000
     3  H    0.982601   1.599142   0.000000
     4  O    1.709215   2.413752   2.419162   0.000000
     5  H    2.691598   3.349970   3.368458   0.982601   0.000000
     6  H    1.647425   1.937026   2.591863   0.982602   1.599142
                    6
     6  H    0.000000
 Stoichiometry    H4O2
 Framework group  CS[SG(H4O2)]
 Deg. of freedom     9
 Full point group                 CS      NOp   2
 Largest Abelian subgroup         CS      NOp   2
 Largest concise Abelian subgroup C1      NOp   1
                         Standard orientation:                         
 ---------------------------------------------------------------------
 Center     Atomic      Atomic             Coordinates (Angstroms)
 Number     Number       Type             X           Y           Z
 ---------------------------------------------------------------------
      1          8           0        0.047609   -0.829452    0.000000
      2          1           0       -0.754685   -1.396753    0.000000
      3          1           0        0.844439   -1.404402    0.000000
      4          8           0        0.047609    0.879763    0.000000
      5          1           0        0.021646    1.862021    0.000000
      6          1           0       -0.873140    0.536648    0.000000
 ---------------------------------------------------------------------
 Rotational constants (GHZ):         239.7097032          16.2355024          15.2056275
 Leave Link  202 at Sun Dec 10 06:26:52 2023, MaxMem=   536870912 cpu:               0.0 elap:               0.0
 (Enter /usr/site/hpc/x86_64/glibc-2.17/broadwell/gaussian/g16_a.03/pgi-16.5/g16/l301.exe)
 Standard basis: CEP-31G (6D, 10F)
 Ernie: Thresh=  0.10000D-02 Tol=  0.10000D-05 Strict=F.
 There are    20 symmetry adapted cartesian basis functions of A'  symmetry.
 There are     4 symmetry adapted cartesian basis functions of A"  symmetry.
 There are    20 symmetry adapted basis functions of A'  symmetry.
 There are     4 symmetry adapted basis functions of A"  symmetry.
    24 basis functions,    48 primitive gaussians,    24 cartesian basis functions
     8 alpha electrons        8 beta electrons
       nuclear repulsion energy        31.2598505414 Hartrees.
 IExCor=    0 DFT=F Ex=HF Corr=None ExCW=0 ScaHFX=  1.000000
 ScaDFX=  1.000000  1.000000  1.000000  1.000000 ScalE2=  1.000000  1.000000
 IRadAn=      5 IRanWt=     -1 IRanGd=            0 ICorTp=0 IEmpDi=  4
 NAtoms=    6 NActive=    6 NUniq=    6 SFac= 1.00D+00 NAtFMM=   60 NAOKFM=F Big=F
 Integral buffers will be    131072 words long.
 Raffenetti 1 integral format.
 Two-electron integral symmetry is turned on.
 Leave Link  301 at Sun Dec 10 06:26:52 2023, MaxMem=   536870912 cpu:               0.2 elap:               0.1
 (Enter /usr/site/hpc/x86_64/glibc-2.17/broadwell/gaussian/g16_a.03/pgi-16.5/g16/l302.exe)
 NPDir=0 NMtPBC=     1 NCelOv=     1 NCel=       1 NClECP=     1 NCelD=      1
         NCelK=      1 NCelE2=     1 NClLst=     1 CellRange=     0.0.
 One-electron integrals computed using PRISM.
 One-electron integral symmetry used in STVInt
   2 Symmetry operations used in ECPInt.
 ECPInt:  NShTT=      78 NPrTT=     318 LenC2=      79 LenP2D=     299.
 LDataN:  DoStor=T MaxTD1= 2 Len=   12
 NBasis=    24 RedAO= T EigKep=  2.63D-02  NBF=    20     4
 NBsUse=    24 1.00D-06 EigRej= -1.00D+00 NBFU=    20     4
 Leave Link  302 at Sun Dec 10 06:26:52 2023, MaxMem=   536870912 cpu:               0.3 elap:               0.1
 (Enter /usr/site/hpc/x86_64/glibc-2.17/broadwell/gaussian/g16_a.03/pgi-16.5/g16/l303.exe)
 DipDrv:  MaxL=1.
 Leave Link  303 at Sun Dec 10 06:26:53 2023, MaxMem=   536870912 cpu:               0.1 elap:               0.0
 (Enter /usr/site/hpc/x86_64/glibc-2.17/broadwell/gaussian/g16_a.03/pgi-16.5/g16/l401.exe)
 ExpMin= 1.78D-01 ExpMax= 1.92D+01 ExpMxC= 1.92D+01 IAcc=3 IRadAn=         5 AccDes= 0.00D+00
 Harris functional with IExCor=  205 and IRadAn=       5 diagonalized for initial guess.
 HarFok:  IExCor=  205 AccDes= 0.00D+00 IRadAn=         5 IDoV= 1 UseB2=F ITyADJ=14
 ICtDFT=  3500011 ScaDFX=  1.000000  1.000000  1.000000  1.000000
 FoFCou: FMM=F IPFlag=           0 FMFlag=      100000 FMFlg1=           0
         NFxFlg=           0 DoJE=T BraDBF=F KetDBF=T FulRan=T
         wScrn=  0.000000 ICntrl=       500 IOpCl=  0 I1Cent=   200000004 NGrid=           0
         NMat0=    1 NMatS0=      1 NMatT0=    0 NMatD0=    1 NMtDS0=    0 NMtDT0=    0
 Petite list used in FoFCou.
 Harris En= -34.3761353954484    
 JPrj=0 DoOrth=F DoCkMO=F.
 Initial guess orbital symmetries:
       Occupied  (A') (A') (A') (A') (A') (A") (A") (A')
       Virtual   (A') (A') (A') (A') (A") (A') (A") (A') (A') (A')
                 (A') (A') (A') (A') (A') (A')
 The electronic state of the initial guess is 1-A'.
 Leave Link  401 at Sun Dec 10 06:26:53 2023, MaxMem=   536870912 cpu:               0.4 elap:               0.1
 (Enter /usr/site/hpc/x86_64/glibc-2.17/broadwell/gaussian/g16_a.03/pgi-16.5/g16/l502.exe)
 Keep R1 ints in memory in symmetry-blocked form, NReq=852802.
 FoFCou: FMM=F IPFlag=           0 FMFlag=           0 FMFlg1=           0
         NFxFlg=           0 DoJE=F BraDBF=F KetDBF=F FulRan=T
         wScrn=  0.000000 ICntrl=       600 IOpCl=  0 I1Cent=           0 NGrid=           0
         NMat0=    1 NMatS0=    300 NMatT0=    0 NMatD0=    1 NMtDS0=    0 NMtDT0=    0
 Petite list used in FoFCou.
 Closed shell SCF:
 Using DIIS extrapolation, IDIIS=  1040.
 NGot=   536870912 LenX=   536840576 LenY=   536839559
 Requested convergence on RMS density matrix=1.00D-08 within 128 cycles.
 Requested convergence on MAX density matrix=1.00D-06.
 Requested convergence on             energy=1.00D-06.
 No special actions if energy rises.

 Cycle   1  Pass 1  IDiag  1:
 E= -33.3973562083715    
 DIIS: error= 6.37D-02 at cycle   1 NSaved=   1.
 NSaved= 1 IEnMin= 1 EnMin= -33.3973562083715     IErMin= 1 ErrMin= 6.37D-02
 ErrMax= 6.37D-02  0.00D+00 EMaxC= 1.00D-01 BMatC= 1.29D-01 BMatP= 1.29D-01
 IDIUse=3 WtCom= 3.63D-01 WtEn= 6.37D-01
 Coeff-Com:  0.100D+01
 Coeff-En:   0.100D+01
 Coeff:      0.100D+01
 Gap=     0.470 Goal=   None    Shift=    0.000
 GapD=    0.470 DampG=2.000 DampE=0.500 DampFc=1.0000 IDamp=-1.
 RMSDP=2.45D-02 MaxDP=1.43D-01              OVMax= 1.42D-01

 Cycle   2  Pass 1  IDiag  1:
 E= -33.4659309825027     Delta-E=       -0.068574774131 Rises=F Damp=F
 DIIS: error= 4.85D-02 at cycle   2 NSaved=   2.
 NSaved= 2 IEnMin= 2 EnMin= -33.4659309825027     IErMin= 2 ErrMin= 4.85D-02
 ErrMax= 4.85D-02  0.00D+00 EMaxC= 1.00D-01 BMatC= 6.23D-02 BMatP= 1.29D-01
 IDIUse=3 WtCom= 5.15D-01 WtEn= 4.85D-01
 Coeff-Com:  0.408D+00 0.592D+00
 Coeff-En:   0.212D+00 0.788D+00
 Coeff:      0.313D+00 0.687D+00
 Gap=     0.597 Goal=   None    Shift=    0.000
 RMSDP=1.20D-02 MaxDP=7.37D-02 DE=-6.86D-02 OVMax= 6.52D-02

 Cycle   3  Pass 1  IDiag  1:
 E= -33.5149792955639     Delta-E=       -0.049048313061 Rises=F Damp=F
 DIIS: error= 7.27D-03 at cycle   3 NSaved=   3.
 NSaved= 3 IEnMin= 3 EnMin= -33.5149792955639     IErMin= 3 ErrMin= 7.27D-03
 ErrMax= 7.27D-03  0.00D+00 EMaxC= 1.00D-01 BMatC= 1.45D-03 BMatP= 6.23D-02
 IDIUse=3 WtCom= 9.27D-01 WtEn= 7.27D-02
 Coeff-Com: -0.116D+00 0.825D-03 0.112D+01
 Coeff-En:   0.000D+00 0.000D+00 0.100D+01
 Coeff:     -0.107D+00 0.765D-03 0.111D+01
 Gap=     0.587 Goal=   None    Shift=    0.000
 RMSDP=1.65D-03 MaxDP=1.11D-02 DE=-4.90D-02 OVMax= 9.86D-03

 Cycle   4  Pass 1  IDiag  1:
 E= -33.5163582071141     Delta-E=       -0.001378911550 Rises=F Damp=F
 DIIS: error= 9.39D-04 at cycle   4 NSaved=   4.
 NSaved= 4 IEnMin= 4 EnMin= -33.5163582071141     IErMin= 4 ErrMin= 9.39D-04
 ErrMax= 9.39D-04  0.00D+00 EMaxC= 1.00D-01 BMatC= 8.93D-06 BMatP= 1.45D-03
 IDIUse=3 WtCom= 9.91D-01 WtEn= 9.39D-03
 Coeff-Com:  0.310D-01-0.215D-01-0.380D+00 0.137D+01
 Coeff-En:   0.000D+00 0.000D+00 0.000D+00 0.100D+01
 Coeff:      0.307D-01-0.213D-01-0.377D+00 0.137D+01
 Gap=     0.587 Goal=   None    Shift=    0.000
 RMSDP=3.02D-04 MaxDP=2.32D-03 DE=-1.38D-03 OVMax= 1.32D-03

 Cycle   5  Pass 1  IDiag  1:
 E= -33.5163764229327     Delta-E=       -0.000018215819 Rises=F Damp=F
 DIIS: error= 1.08D-04 at cycle   5 NSaved=   5.
 NSaved= 5 IEnMin= 5 EnMin= -33.5163764229327     IErMin= 5 ErrMin= 1.08D-04
 ErrMax= 1.08D-04  0.00D+00 EMaxC= 1.00D-01 BMatC= 4.80D-07 BMatP= 8.93D-06
 IDIUse=3 WtCom= 9.99D-01 WtEn= 1.08D-03
 Coeff-Com:  0.120D-01-0.580D-02-0.138D+00 0.320D+00 0.812D+00
 Coeff-En:   0.000D+00 0.000D+00 0.000D+00 0.000D+00 0.100D+01
 Coeff:      0.120D-01-0.579D-02-0.138D+00 0.320D+00 0.812D+00
 Gap=     0.587 Goal=   None    Shift=    0.000
 RMSDP=5.50D-05 MaxDP=4.06D-04 DE=-1.82D-05 OVMax= 3.29D-04

 Cycle   6  Pass 1  IDiag  1:
 E= -33.5163771344986     Delta-E=       -0.000000711566 Rises=F Damp=F
 DIIS: error= 3.65D-05 at cycle   6 NSaved=   6.
 NSaved= 6 IEnMin= 6 EnMin= -33.5163771344986     IErMin= 6 ErrMin= 3.65D-05
 ErrMax= 3.65D-05  0.00D+00 EMaxC= 1.00D-01 BMatC= 3.68D-08 BMatP= 4.80D-07
 IDIUse=1 WtCom= 1.00D+00 WtEn= 0.00D+00
 Coeff-Com: -0.328D-02 0.197D-02 0.400D-01-0.147D+00-0.801D-02 0.112D+01
 Coeff:     -0.328D-02 0.197D-02 0.400D-01-0.147D+00-0.801D-02 0.112D+01
 Gap=     0.588 Goal=   None    Shift=    0.000
 RMSDP=2.88D-05 MaxDP=1.34D-04 DE=-7.12D-07 OVMax= 1.90D-04

 Cycle   7  Pass 1  IDiag  1:
 E= -33.5163772232053     Delta-E=       -0.000000088707 Rises=F Damp=F
 DIIS: error= 1.04D-05 at cycle   7 NSaved=   7.
 NSaved= 7 IEnMin= 7 EnMin= -33.5163772232053     IErMin= 7 ErrMin= 1.04D-05
 ErrMax= 1.04D-05  0.00D+00 EMaxC= 1.00D-01 BMatC= 1.84D-09 BMatP= 3.68D-08
 IDIUse=1 WtCom= 1.00D+00 WtEn= 0.00D+00
 Coeff-Com:  0.912D-03-0.528D-03-0.108D-01 0.443D-01-0.186D-01-0.442D+00
 Coeff-Com:  0.143D+01
 Coeff:      0.912D-03-0.528D-03-0.108D-01 0.443D-01-0.186D-01-0.442D+00
 Coeff:      0.143D+01
 Gap=     0.588 Goal=   None    Shift=    0.000
 RMSDP=1.01D-05 MaxDP=5.92D-05 DE=-8.87D-08 OVMax= 7.36D-05

 Cycle   8  Pass 1  IDiag  1:
 E= -33.5163772310015     Delta-E=       -0.000000007796 Rises=F Damp=F
 DIIS: error= 2.22D-06 at cycle   8 NSaved=   8.
 NSaved= 8 IEnMin= 8 EnMin= -33.5163772310015     IErMin= 8 ErrMin= 2.22D-06
 ErrMax= 2.22D-06  0.00D+00 EMaxC= 1.00D-01 BMatC= 1.37D-10 BMatP= 1.84D-09
 IDIUse=1 WtCom= 1.00D+00 WtEn= 0.00D+00
 Coeff-Com: -0.845D-04 0.363D-04 0.897D-03-0.577D-02 0.127D-01 0.813D-01
 Coeff-Com: -0.564D+00 0.147D+01
 Coeff:     -0.845D-04 0.363D-04 0.897D-03-0.577D-02 0.127D-01 0.813D-01
 Coeff:     -0.564D+00 0.147D+01
 Gap=     0.588 Goal=   None    Shift=    0.000
 RMSDP=2.99D-06 MaxDP=1.87D-05 DE=-7.80D-09 OVMax= 2.13D-05

 Cycle   9  Pass 1  IDiag  1:
 E= -33.5163772315728     Delta-E=       -0.000000000571 Rises=F Damp=F
 DIIS: error= 2.90D-07 at cycle   9 NSaved=   9.
 NSaved= 9 IEnMin= 9 EnMin= -33.5163772315728     IErMin= 9 ErrMin= 2.90D-07
 ErrMax= 2.90D-07  0.00D+00 EMaxC= 1.00D-01 BMatC= 2.55D-12 BMatP= 1.37D-10
 IDIUse=1 WtCom= 1.00D+00 WtEn= 0.00D+00
 Coeff-Com:  0.107D-04 0.179D-05-0.878D-04 0.497D-03-0.151D-02-0.877D-02
 Coeff-Com:  0.897D-01-0.351D+00 0.127D+01
 Coeff:      0.107D-04 0.179D-05-0.878D-04 0.497D-03-0.151D-02-0.877D-02
 Coeff:      0.897D-01-0.351D+00 0.127D+01
 Gap=     0.588 Goal=   None    Shift=    0.000
 RMSDP=3.15D-07 MaxDP=1.80D-06 DE=-5.71D-10 OVMax= 1.96D-06

 Cycle  10  Pass 1  IDiag  1:
 E= -33.5163772315807     Delta-E=       -0.000000000008 Rises=F Damp=F
 DIIS: error= 4.21D-08 at cycle  10 NSaved=  10.
 NSaved=10 IEnMin=10 EnMin= -33.5163772315807     IErMin=10 ErrMin= 4.21D-08
 ErrMax= 4.21D-08  0.00D+00 EMaxC= 1.00D-01 BMatC= 5.23D-14 BMatP= 2.55D-12
 IDIUse=1 WtCom= 1.00D+00 WtEn= 0.00D+00
 Coeff-Com: -0.257D-05-0.920D-06 0.194D-04-0.713D-04 0.260D-03 0.119D-02
 Coeff-Com: -0.174D-01 0.805D-01-0.383D+00 0.132D+01
 Coeff:     -0.257D-05-0.920D-06 0.194D-04-0.713D-04 0.260D-03 0.119D-02
 Coeff:     -0.174D-01 0.805D-01-0.383D+00 0.132D+01
 Gap=     0.588 Goal=   None    Shift=    0.000
 RMSDP=3.03D-08 MaxDP=1.55D-07 DE=-7.93D-12 OVMax= 1.82D-07

 Cycle  11  Pass 1  IDiag  1:
 E= -33.5163772315807     Delta-E=       -0.000000000000 Rises=F Damp=F
 DIIS: error= 1.32D-08 at cycle  11 NSaved=  11.
 NSaved=11 IEnMin=11 EnMin= -33.5163772315807     IErMin=11 ErrMin= 1.32D-08
 ErrMax= 1.32D-08  0.00D+00 EMaxC= 1.00D-01 BMatC= 3.24D-15 BMatP= 5.23D-14
 IDIUse=1 WtCom= 1.00D+00 WtEn= 0.00D+00
 Coeff-Com: -0.261D-06 0.849D-06 0.576D-05-0.312D-04-0.260D-04 0.208D-03
 Coeff-Com:  0.247D-02-0.177D-01 0.114D+00-0.595D+00 0.150D+01
 Coeff:     -0.261D-06 0.849D-06 0.576D-05-0.312D-04-0.260D-04 0.208D-03
 Coeff:      0.247D-02-0.177D-01 0.114D+00-0.595D+00 0.150D+01
 Gap=     0.588 Goal=   None    Shift=    0.000
 RMSDP=7.58D-09 MaxDP=4.37D-08 DE=-2.84D-14 OVMax= 5.28D-08

 SCF Done:  E(RHF) =  -33.5163772316     A.U. after   11 cycles
            NFock= 11  Conv=0.76D-08     -V/T= 2.2359
 KE= 2.711901420944D+01 PE=-1.446142961050D+02 EE= 5.271905412251D+01
 Leave Link  502 at Sun Dec 10 06:26:53 2023, MaxMem=   536870912 cpu:               0.3 elap:               0.1
 (Enter /usr/site/hpc/x86_64/glibc-2.17/broadwell/gaussian/g16_a.03/pgi-16.5/g16/l801.exe)
 Windowed orbitals will be sorted by symmetry type.
 Range of M.O.s used for correlation:     1    24
 NBasis=    24 NAE=     8 NBE=     8 NFC=     0 NFV=     0
 NROrb=     24 NOA=     8 NOB=     8 NVA=    16 NVB=    16
 Leave Link  801 at Sun Dec 10 06:26:53 2023, MaxMem=   536870912 cpu:               0.1 elap:               0.0
 (Enter /usr/site/hpc/x86_64/glibc-2.17/broadwell/gaussian/g16_a.03/pgi-16.5/g16/l804.exe)
 Closed-shell transformation, MDV=   536870912 ITran=4 ISComp=2.
 Unit  1 TFree=       1025975 TCopy=        210600.
 Semi-Direct transformation.
 ModeAB=           2 MOrb=             8 LenV=     536741418
 LASXX=        22470 LTotXX=       22470 LenRXX=       22470
 LTotAB=       26208 MaxLAS=       57600 LenRXY=       57600
 NonZer=       62208 LenScr=      524288 LnRSAI=           0
 LnScr1=           0 LExtra=           0 Total=       604358
 MaxDsk=          -1 SrtSym=           F ITran=            4
 DoSDTr:  NPSUse=  4
 JobTyp=0 Pass  1:  I=   1 to   8.
 (rs|ai) integrals will be sorted in core.
 Complete sort for first half transformation.
 First half transformation complete.
 Complete sort for second half transformation.
 Second half transformation complete.
 Spin components of T(2) and E(2):
     alpha-alpha T2 =       0.9776995363D-02 E2=     -0.2760706242D-01
     alpha-beta  T2 =       0.6235769487D-01 E2=     -0.1807901713D+00
     beta-beta   T2 =       0.9776995363D-02 E2=     -0.2760706242D-01
 ANorm=    0.1040149838D+01
 E2 =    -0.2360042961D+00 EUMP2 =    -0.33752381527721D+02
 Leave Link  804 at Sun Dec 10 06:26:53 2023, MaxMem=   536870912 cpu:               0.2 elap:               0.1
 (Enter /usr/site/hpc/x86_64/glibc-2.17/broadwell/gaussian/g16_a.03/pgi-16.5/g16/l913.exe)
 CIDS:  MDV=   536870912.
 IFCWin=0 IBDFC=1 NFBD=     0     0 NFCmp=     0     0 NFFFC=     0     0
 Using DD3R+UMP44R for 1st iteration.
 Using DD4RQ for 2nd and later iterations.
 Keep R2 and R3 ints in memory in symmetry-blocked form, NReq=865410.
 FoFCou: FMM=F IPFlag=           0 FMFlag=           0 FMFlg1=           0
         NFxFlg=           0 DoJE=F BraDBF=F KetDBF=F FulRan=T
         wScrn=  0.000000 ICntrl=       600 IOpCl=  0 I1Cent=           0 NGrid=           0
         NMat0=    1 NMatS0=    300 NMatT0=    0 NMatD0=    1 NMtDS0=    0 NMtDT0=    0
 Petite list used in FoFCou.
 CIDS: In Core Option IDoMem=           1.
 CCSD(T)
 =======
 Iterations=  50 Convergence= 0.100D-06
 Produce multiple copies of IABC intergrals
 Iteration Nr.   1
 **********************
 DD1Dir will call FoFMem   1 times, MxPair=        72
 NAB=    36 NAA=     0 NBB=     0.
 MP4(R+Q)= -0.28347465D-03
 Maximum subspace dimension=  5
 A-vector RMS=  7.0743157D-03 Max=  2.0921241D-02 conv= 1.00D-05.
 RLE energy=       -0.2402333897
 E3=       -0.42136997D-02        EUMP3=      -0.33756595227D+02
 E4(DQ)=   -0.59563311D-02        UMP4(DQ)=   -0.33762551558D+02
 E4(SDQ)=  -0.86233389D-02        UMP4(SDQ)=  -0.33765218566D+02
 VARIATIONAL ENERGIES WITH THE FIRST-ORDER WAVEFUNCTION:
 DE(Corr)= -0.24015945     E(Corr)=     -33.756536678    
 NORM(A)=   0.10435150D+01
 Iteration Nr.   2
 **********************
 DD1Dir will call FoFMem   1 times, MxPair=        72
 NAB=    36 NAA=     0 NBB=     0.
 A-vector RMS=  1.1942160D-03 Max=  2.8739729D-03 conv= 1.00D-05.
 RLE energy=       -0.2487273521
 DE(Corr)= -0.24693515     E(CORR)=     -33.763312382     Delta=-6.78D-03
 NORM(A)=   0.10478521D+01
 Iteration Nr.   3
 **********************
 DD1Dir will call FoFMem   1 times, MxPair=        72
 NAB=    36 NAA=     0 NBB=     0.
 A-vector RMS=  8.5061384D-04 Max=  3.5975280D-03 conv= 1.00D-05.
 RLE energy=       -0.2494337597
 DE(Corr)= -0.24878617     E(CORR)=     -33.765163400     Delta=-1.85D-03
 NORM(A)=   0.10488171D+01
 Iteration Nr.   4
 **********************
 DD1Dir will call FoFMem   1 times, MxPair=        72
 NAB=    36 NAA=     0 NBB=     0.
 A-vector RMS=  1.8885077D-04 Max=  4.8794847D-04 conv= 1.00D-05.
 RLE energy=       -0.2495195875
 DE(Corr)= -0.24945722     E(CORR)=     -33.765834448     Delta=-6.71D-04
 NORM(A)=   0.10490220D+01
 Iteration Nr.   5
 **********************
 DD1Dir will call FoFMem   1 times, MxPair=        72
 NAB=    36 NAA=     0 NBB=     0.
 A-vector RMS=  9.3986605D-05 Max=  3.8492076D-04 conv= 1.00D-05.
 RLE energy=       -0.2495207288
 DE(Corr)= -0.24951159     E(CORR)=     -33.765888823     Delta=-5.44D-05
 NORM(A)=   0.10490722D+01
 Iteration Nr.   6
 **********************
 DD1Dir will call FoFMem   1 times, MxPair=        72
 NAB=    36 NAA=     0 NBB=     0.
 A-vector RMS=  3.4920441D-05 Max=  1.1101790D-04 conv= 1.00D-05.
 RLE energy=       -0.2495100396
 DE(Corr)= -0.24951779     E(CORR)=     -33.765895026     Delta=-6.20D-06
 NORM(A)=   0.10490865D+01
 Iteration Nr.   7
 **********************
 DD1Dir will call FoFMem   1 times, MxPair=        72
 NAB=    36 NAA=     0 NBB=     0.
 A-vector RMS=  1.0216319D-05 Max=  3.5830277D-05 conv= 1.00D-05.
 RLE energy=       -0.2495147017
 DE(Corr)= -0.24951701     E(CORR)=     -33.765894238     Delta= 7.88D-07
 NORM(A)=   0.10490924D+01
 Iteration Nr.   8
 **********************
 DD1Dir will call FoFMem   1 times, MxPair=        72
 NAB=    36 NAA=     0 NBB=     0.
 A-vector RMS=  3.9939587D-06 Max=  1.7987718D-05 conv= 1.00D-05.
 RLE energy=       -0.2495150483
 DE(Corr)= -0.24951547     E(CORR)=     -33.765892698     Delta= 1.54D-06
 NORM(A)=   0.10490941D+01
 Iteration Nr.   9
 **********************
 DD1Dir will call FoFMem   1 times, MxPair=        72
 NAB=    36 NAA=     0 NBB=     0.
 A-vector RMS=  1.5647868D-06 Max=  7.1591542D-06 conv= 1.00D-05.
 RLE energy=       -0.2495161204
 DE(Corr)= -0.24951599     E(CORR)=     -33.765893226     Delta=-5.27D-07
 NORM(A)=   0.10490947D+01
 Iteration Nr.  10
 **********************
 DD1Dir will call FoFMem   1 times, MxPair=        72
 NAB=    36 NAA=     0 NBB=     0.
 A-vector RMS=  7.2861820D-07 Max=  3.5404894D-06 conv= 1.00D-05.
 RLE energy=       -0.2495162197
 DE(Corr)= -0.24951611     E(CORR)=     -33.765893344     Delta=-1.19D-07
 NORM(A)=   0.10490949D+01
 Iteration Nr.  11
 **********************
 DD1Dir will call FoFMem   1 times, MxPair=        72
 NAB=    36 NAA=     0 NBB=     0.
 A-vector RMS=  2.7067048D-07 Max=  1.2120311D-06 conv= 1.00D-05.
 RLE energy=       -0.2495163188
 DE(Corr)= -0.24951628     E(CORR)=     -33.765893511     Delta=-1.67D-07
 NORM(A)=   0.10490950D+01
 Iteration Nr.  12
 **********************
 DD1Dir will call FoFMem   1 times, MxPair=        72
 NAB=    36 NAA=     0 NBB=     0.
 A-vector RMS=  9.2861380D-08 Max=  3.7701409D-07 conv= 1.00D-05.
 RLE energy=       -0.2495163267
 DE(Corr)= -0.24951631     E(CORR)=     -33.765893542     Delta=-3.05D-08
 NORM(A)=   0.10490950D+01
 CI/CC converged in   12 iterations to DelEn=-3.05D-08 Conv= 1.00D-07 ErrA1= 9.29D-08 Conv= 1.00D-05
 Wavefunction amplitudes converged. E(Corr)=     -33.765893542    
 Largest amplitude= 3.33D-02
 IPart=  4 IA=    2   12.50% done.
 IPart=  3 IA=    3   24.17% done.
 IPart=  2 IA=    4   35.00% done.
 IPart=  2 IA=    5   45.00% done.
 IPart=  3 IA=    6   54.17% done.
 IPart=  4 IA=    7   62.50% done.
 IPart=  1 IA=    8   70.00% done.
 IPart=  2 IA=   10   82.50% done.
 IPart=  4 IA=   12   91.67% done.
 Time for triples=        0.24 seconds.
 T4(CCSD)= -0.41302735D-02
 T5(CCSD)=  0.74362702D-03
 CCSD(T)= -0.33769280188D+02
 Discarding MO integrals.
 Leave Link  913 at Sun Dec 10 06:26:53 2023, MaxMem=   536870912 cpu:               1.0 elap:               0.3
 (Enter /usr/site/hpc/x86_64/glibc-2.17/broadwell/gaussian/g16_a.03/pgi-16.5/g16/l601.exe)
 Copying SCF densities to generalized density rwf, IOpCl= 0 IROHF=0.

 **********************************************************************

            Population analysis using the SCF density.

 **********************************************************************

 Orbital symmetries:
       Occupied  (A') (A') (A') (A') (A') (A") (A") (A')
       Virtual   (A') (A') (A') (A') (A") (A') (A") (A') (A') (A')
                 (A') (A') (A') (A') (A') (A')
 The electronic state is 1-A'.
 Alpha  occ. eigenvalues --   -1.38583  -1.29070  -0.74242  -0.69776  -0.56627
 Alpha  occ. eigenvalues --   -0.52491  -0.43218  -0.38851
 Alpha virt. eigenvalues --    0.19901   0.28961   0.30670   0.33587   0.80727
 Alpha virt. eigenvalues --    0.84221   0.89291   0.95252   0.97109   1.19240
 Alpha virt. eigenvalues --    1.21490   1.25976   1.27602   1.37775   2.60374
 Alpha virt. eigenvalues --    3.32737
          Condensed to atoms (all electrons):
               1          2          3          4          5          6
     1  O    7.146730   0.193015   0.240353  -0.809410   0.037681  -0.040399
     2  H    0.193015   0.439325  -0.009188   0.038124  -0.001025  -0.002481
     3  H    0.240353  -0.009188   0.330944   0.036281  -0.001031   0.001108
     4  O   -0.809410   0.038124   0.036281   6.904863   0.194331   0.272539
     5  H    0.037681  -0.001025  -0.001031   0.194331   0.476127  -0.015409
     6  H   -0.040399  -0.002481   0.001108   0.272539  -0.015409   0.433033
 Mulliken charges:
               1
     1  O   -0.767970
     2  H    0.342229
     3  H    0.401533
     4  O   -0.636728
     5  H    0.309326
     6  H    0.351610
 Sum of Mulliken charges =   0.00000
 Mulliken charges with hydrogens summed into heavy atoms:
               1
     1  O   -0.024208
     4  O    0.024208
 Electronic spatial extent (au):  <R**2>=             89.8254
 Charge=              0.0000 electrons
 Dipole moment (field-independent basis, Debye):
    X=             -1.7202    Y=             -1.3046    Z=              0.0000  Tot=              2.1589
 Quadrupole moment (field-independent basis, Debye-Ang):
   XX=             -9.6193   YY=             -7.2823   ZZ=            -14.9474
   XY=             -1.3473   XZ=              0.0000   YZ=              0.0000
 Traceless Quadrupole moment (field-independent basis, Debye-Ang):
   XX=              0.9970   YY=              3.3341   ZZ=             -4.3311
   XY=             -1.3473   XZ=              0.0000   YZ=              0.0000
 Octapole moment (field-independent basis, Debye-Ang**2):
  XXX=             -1.1248  YYY=              0.1481  ZZZ=              0.0000  XYY=              0.4011
  XXY=             -3.1506  XXZ=              0.0000  XZZ=             -0.2745  YZZ=             -0.2260
  YYZ=              0.0000  XYZ=              0.0000
 Hexadecapole moment (field-independent basis, Debye-Ang**3):
 XXXX=            -12.4578 YYYY=            -63.5510 ZZZZ=            -12.1477 XXXY=             -0.7220
 XXXZ=              0.0000 YYYX=             -0.1247 YYYZ=              0.0000 ZZZX=              0.0000
 ZZZY=              0.0000 XXYY=            -11.9641 XXZZ=             -4.5976 YYZZ=            -17.6894
 XXYZ=              0.0000 YYXZ=              0.0000 ZZXY=              0.1640
 N-N= 3.125985054143D+01 E-N=-1.446142961144D+02  KE= 2.711901420944D+01
 Symmetry A'   KE= 1.819027241873D+01
 Symmetry A"   KE= 8.928741790712D+00
 Leave Link  601 at Sun Dec 10 06:26:53 2023, MaxMem=   536870912 cpu:               0.1 elap:               0.0
 (Enter /usr/site/hpc/x86_64/glibc-2.17/broadwell/gaussian/g16_a.03/pgi-16.5/g16/l9999.exe)
 1\1\GINC-N033\SP\RCCSD(T)-FC\CEP-31G\H4O2\ROOT\10-Dec-2023\0\\#p CCSD(
 T)/CEP-31G\\H2O_H2O_115\\0,1\O,0,0.,-0.009833,0.\H,0,-0.799571,-0.5809
 65,0.\H,0,0.799571,-0.580965,0.\O,0,-0.008176,1.699362,0.\H,0,-0.03883
 7,2.681485,0.\H,0,-0.927273,1.351847,0.\\Version=ES64L-G16RevA.03\Stat
 e=1-A'\HF=-33.5163772\MP2=-33.7523815\MP3=-33.7565952\MP4D=-33.7622681
 \MP4DQ=-33.7625516\MP4SDQ=-33.7652186\CCSD=-33.7658935\CCSD(T)=-33.769
 2802\RMSD=7.583e-09\PG=CS [SG(H4O2)]\\@


 CHARLIE BROWN.."I CAN'T GET THAT STUPID KITE IN THE
 AIR... I CAN'T... I C A N N O T..."
 LUCY.."OH COME NOW CHARLIE BROWN...THAT'S NO WAY TO TALK...
 THE TROUBLE WITH YOU IS YOU DON'T BELIEVE IN YOURSELF... YOU
 DON'T BELIEVE IN YOUR OWN ABILITIES...  YOU'VE GOT TO SAY TO
 YOURSELF...'I BELIEVE I CAN FLY THIS KITE.'... GO AHEAD SAY
 IT...."
 CHARLIE BROWN.."I BELIEVE THAT I CAN FLY THIS STUPID
 KITE.....I BELIEVE THAT I CAN FLY THIS KITE........
 I  A C T U A L L Y  B E L I E V E  T H A T  I  C A N ******"
 LUCY.."I'LL BET YOU TEN-TO-ONE YOU'RE WRONG......."    SCHULZ
 Job cpu time:       0 days  0 hours  0 minutes  3.3 seconds.
 Elapsed time:       0 days  0 hours  0 minutes  1.0 seconds.
 File lengths (MBytes):  RWF=     72 Int=      0 D2E=      0 Chk=      8 Scr=      8
 Normal termination of Gaussian 16 at Sun Dec 10 06:26:53 2023.
