 Entering Gaussian System, Link 0=g16
 Input=H2O_H2O_765.com
 Output=H2O_H2O_765.log
 Initial command:
 /usr/site/hpc/x86_64/glibc-2.17/broadwell/gaussian/g16_a.03/pgi-16.5/g16/l1.exe "/gpfs/gpfs1/scratch/c7441090/OO Coord/Gau-1227791.inp" -scrdir="/gpfs/gpfs1/scratch/c7441090/OO Coord/"
 Entering Link 1 = /usr/site/hpc/x86_64/glibc-2.17/broadwell/gaussian/g16_a.03/pgi-16.5/g16/l1.exe PID=   1227792.
  
 Copyright (c) 1988,1990,1992,1993,1995,1998,2003,2009,2016,
            Gaussian, Inc.  All Rights Reserved.
  
 This is part of the Gaussian(R) 16 program.  It is based on
 the Gaussian(R) 09 system (copyright 2009, Gaussian, Inc.),
 the Gaussian(R) 03 system (copyright 2003, Gaussian, Inc.),
 the Gaussian(R) 98 system (copyright 1998, Gaussian, Inc.),
 the Gaussian(R) 94 system (copyright 1995, Gaussian, Inc.),
 the Gaussian 92(TM) system (copyright 1992, Gaussian, Inc.),
 the Gaussian 90(TM) system (copyright 1990, Gaussian, Inc.),
 the Gaussian 88(TM) system (copyright 1988, Gaussian, Inc.),
 the Gaussian 86(TM) system (copyright 1986, Carnegie Mellon
 University), and the Gaussian 82(TM) system (copyright 1983,
 Carnegie Mellon University). Gaussian is a federally registered
 trademark of Gaussian, Inc.
  
 This software contains proprietary and confidential information,
 including trade secrets, belonging to Gaussian, Inc.
  
 This software is provided under written license and may be
 used, copied, transmitted, or stored only in accord with that
 written license.
  
 The following legend is applicable only to US Government
 contracts under FAR:
  
                    RESTRICTED RIGHTS LEGEND
  
 Use, reproduction and disclosure by the US Government is
 subject to restrictions as set forth in subparagraphs (a)
 and (c) of the Commercial Computer Software - Restricted
 Rights clause in FAR 52.227-19.
  
 Gaussian, Inc.
 340 Quinnipiac St., Bldg. 40, Wallingford CT 06492
  
  
 ---------------------------------------------------------------
 Warning -- This program may not be used in any manner that
 competes with the business of Gaussian, Inc. or will provide
 assistance to any competitor of Gaussian, Inc.  The licensee
 of this program is prohibited from giving any competitor of
 Gaussian, Inc. access to this program.  By using this program,
 the user acknowledges that Gaussian, Inc. is engaged in the
 business of creating and licensing software in the field of
 computational chemistry and represents and warrants to the
 licensee that it is not a competitor of Gaussian, Inc. and that
 it will not use this program in any manner prohibited above.
 ---------------------------------------------------------------
  

 Cite this work as:
 Gaussian 16, Revision A.03,
 M. J. Frisch, G. W. Trucks, H. B. Schlegel, G. E. Scuseria, 
 M. A. Robb, J. R. Cheeseman, G. Scalmani, V. Barone, 
 G. A. Petersson, H. Nakatsuji, X. Li, M. Caricato, A. V. Marenich, 
 J. Bloino, B. G. Janesko, R. Gomperts, B. Mennucci, H. P. Hratchian, 
 J. V. Ortiz, A. F. Izmaylov, J. L. Sonnenberg, D. Williams-Young, 
 F. Ding, F. Lipparini, F. Egidi, J. Goings, B. Peng, A. Petrone, 
 T. Henderson, D. Ranasinghe, V. G. Zakrzewski, J. Gao, N. Rega, 
 G. Zheng, W. Liang, M. Hada, M. Ehara, K. Toyota, R. Fukuda, 
 J. Hasegawa, M. Ishida, T. Nakajima, Y. Honda, O. Kitao, H. Nakai, 
 T. Vreven, K. Throssell, J. A. Montgomery, Jr., J. E. Peralta, 
 F. Ogliaro, M. J. Bearpark, J. J. Heyd, E. N. Brothers, K. N. Kudin, 
 V. N. Staroverov, T. A. Keith, R. Kobayashi, J. Normand, 
 K. Raghavachari, A. P. Rendell, J. C. Burant, S. S. Iyengar, 
 J. Tomasi, M. Cossi, J. M. Millam, M. Klene, C. Adamo, R. Cammi, 
 J. W. Ochterski, R. L. Martin, K. Morokuma, O. Farkas, 
 J. B. Foresman, and D. J. Fox, Gaussian, Inc., Wallingford CT, 2016.
 
 ******************************************
 Gaussian 16:  ES64L-G16RevA.03 25-Dec-2016
                10-Dec-2023 
 ******************************************
 %NProcShared=4
 Will use up to    4 processors via shared memory.
 %Mem=4GB
 %Chk=H2O_H2O_765.chk
 ------------------
 #p CCSD(T)/CEP-31G
 ------------------
 1/38=1,172=1/1;
 2/12=2,17=6,18=5,40=1/2;
 3/5=9,6=1,11=9,25=1,30=1/1,2,3;
 4//1;
 5/5=2,38=5/2;
 8/6=4,9=120000,10=1/1,4;
 9/5=7,14=2/13;
 6/7=2,8=2,9=2,10=2/1;
 99/5=1,9=1/99;
 Leave Link    1 at Sun Dec 10 06:39:01 2023, MaxMem=   536870912 cpu:               0.2 elap:               0.1
 (Enter /usr/site/hpc/x86_64/glibc-2.17/broadwell/gaussian/g16_a.03/pgi-16.5/g16/l101.exe)
 -----------
 H2O_H2O_765
 -----------
 Symbolic Z-matrix:
 Charge =  0 Multiplicity = 1
 O                     0.       -0.00983   0. 
 H                    -0.79957  -0.58097   0. 
 H                     0.79957  -0.58097   0. 
 O                    -0.00818   2.39075   0. 
 H                    -0.03884   3.37287   0. 
 H                    -0.92727   2.04323   0. 
 
 ITRead=  0  0  0  0  0  0
 MicOpt= -1 -1 -1 -1 -1 -1
 NAtoms=      6 NQM=        6 NQMF=       0 NMMI=      0 NMMIF=      0
                NMic=       0 NMicF=      0.
                    Isotopes and Nuclear Properties:
 (Nuclear quadrupole moments (NQMom) in fm**2, nuclear magnetic moments (NMagM)
  in nuclear magnetons)

  Atom         1           2           3           4           5           6
 IAtWgt=          16           1           1          16           1           1
 AtmWgt=  15.9949146   1.0078250   1.0078250  15.9949146   1.0078250   1.0078250
 NucSpn=           0           1           1           0           1           1
 AtZEff=  -0.0000000  -0.0000000  -0.0000000  -0.0000000  -0.0000000  -0.0000000
 NQMom=    0.0000000   0.0000000   0.0000000   0.0000000   0.0000000   0.0000000
 NMagM=    0.0000000   2.7928460   2.7928460   0.0000000   2.7928460   2.7928460
 AtZNuc=   8.0000000   1.0000000   1.0000000   8.0000000   1.0000000   1.0000000
 Leave Link  101 at Sun Dec 10 06:39:01 2023, MaxMem=   536870912 cpu:               0.3 elap:               0.1
 (Enter /usr/site/hpc/x86_64/glibc-2.17/broadwell/gaussian/g16_a.03/pgi-16.5/g16/l202.exe)
                          Input orientation:                          
 ---------------------------------------------------------------------
 Center     Atomic      Atomic             Coordinates (Angstroms)
 Number     Number       Type             X           Y           Z
 ---------------------------------------------------------------------
      1          8           0        0.000000   -0.009833    0.000000
      2          1           0       -0.799571   -0.580965    0.000000
      3          1           0        0.799571   -0.580965    0.000000
      4          8           0       -0.008176    2.390749    0.000000
      5          1           0       -0.038837    3.372873    0.000000
      6          1           0       -0.927273    2.043234    0.000000
 ---------------------------------------------------------------------
                    Distance matrix (angstroms):
                    1          2          3          4          5
     1  O    0.000000
     2  H    0.982601   0.000000
     3  H    0.982601   1.599142   0.000000
     4  O    2.400596   3.075287   3.079536   0.000000
     5  H    3.382929   4.026357   4.041752   0.982602   0.000000
     6  H    2.252758   2.627304   3.141403   0.982602   1.599143
                    6
     6  H    0.000000
 Stoichiometry    H4O2
 Framework group  CS[SG(H4O2)]
 Deg. of freedom     9
 Full point group                 CS      NOp   2
 Largest Abelian subgroup         CS      NOp   2
 Largest concise Abelian subgroup C1      NOp   1
                         Standard orientation:                         
 ---------------------------------------------------------------------
 Center     Atomic      Atomic             Coordinates (Angstroms)
 Number     Number       Type             X           Y           Z
 ---------------------------------------------------------------------
      1          8           0        0.047574   -1.175077    0.000000
      2          1           0       -0.753937   -1.743483    0.000000
      3          1           0        0.845195   -1.748929    0.000000
      4          8           0        0.047574    1.225519    0.000000
      5          1           0        0.020258    2.207742    0.000000
      6          1           0       -0.872701    0.881136    0.000000
 ---------------------------------------------------------------------
 Rotational constants (GHZ):         240.2006112           8.7196737           8.4142236
 Leave Link  202 at Sun Dec 10 06:39:02 2023, MaxMem=   536870912 cpu:               0.0 elap:               0.0
 (Enter /usr/site/hpc/x86_64/glibc-2.17/broadwell/gaussian/g16_a.03/pgi-16.5/g16/l301.exe)
 Standard basis: CEP-31G (6D, 10F)
 Ernie: Thresh=  0.10000D-02 Tol=  0.10000D-05 Strict=F.
 There are    20 symmetry adapted cartesian basis functions of A'  symmetry.
 There are     4 symmetry adapted cartesian basis functions of A"  symmetry.
 There are    20 symmetry adapted basis functions of A'  symmetry.
 There are     4 symmetry adapted basis functions of A"  symmetry.
    24 basis functions,    48 primitive gaussians,    24 cartesian basis functions
     8 alpha electrons        8 beta electrons
       nuclear repulsion energy        26.5662954546 Hartrees.
 IExCor=    0 DFT=F Ex=HF Corr=None ExCW=0 ScaHFX=  1.000000
 ScaDFX=  1.000000  1.000000  1.000000  1.000000 ScalE2=  1.000000  1.000000
 IRadAn=      5 IRanWt=     -1 IRanGd=            0 ICorTp=0 IEmpDi=  4
 NAtoms=    6 NActive=    6 NUniq=    6 SFac= 1.00D+00 NAtFMM=   60 NAOKFM=F Big=F
 Integral buffers will be    131072 words long.
 Raffenetti 1 integral format.
 Two-electron integral symmetry is turned on.
 Leave Link  301 at Sun Dec 10 06:39:02 2023, MaxMem=   536870912 cpu:               0.2 elap:               0.1
 (Enter /usr/site/hpc/x86_64/glibc-2.17/broadwell/gaussian/g16_a.03/pgi-16.5/g16/l302.exe)
 NPDir=0 NMtPBC=     1 NCelOv=     1 NCel=       1 NClECP=     1 NCelD=      1
         NCelK=      1 NCelE2=     1 NClLst=     1 CellRange=     0.0.
 One-electron integrals computed using PRISM.
 One-electron integral symmetry used in STVInt
   2 Symmetry operations used in ECPInt.
 ECPInt:  NShTT=      78 NPrTT=     318 LenC2=      79 LenP2D=     291.
 LDataN:  DoStor=T MaxTD1= 2 Len=   12
 NBasis=    24 RedAO= T EigKep=  3.52D-02  NBF=    20     4
 NBsUse=    24 1.00D-06 EigRej= -1.00D+00 NBFU=    20     4
 Leave Link  302 at Sun Dec 10 06:39:02 2023, MaxMem=   536870912 cpu:               0.3 elap:               0.1
 (Enter /usr/site/hpc/x86_64/glibc-2.17/broadwell/gaussian/g16_a.03/pgi-16.5/g16/l303.exe)
 DipDrv:  MaxL=1.
 Leave Link  303 at Sun Dec 10 06:39:02 2023, MaxMem=   536870912 cpu:               0.1 elap:               0.0
 (Enter /usr/site/hpc/x86_64/glibc-2.17/broadwell/gaussian/g16_a.03/pgi-16.5/g16/l401.exe)
 ExpMin= 1.78D-01 ExpMax= 1.92D+01 ExpMxC= 1.92D+01 IAcc=3 IRadAn=         5 AccDes= 0.00D+00
 Harris functional with IExCor=  205 and IRadAn=       5 diagonalized for initial guess.
 HarFok:  IExCor=  205 AccDes= 0.00D+00 IRadAn=         5 IDoV= 1 UseB2=F ITyADJ=14
 ICtDFT=  3500011 ScaDFX=  1.000000  1.000000  1.000000  1.000000
 FoFCou: FMM=F IPFlag=           0 FMFlag=      100000 FMFlg1=           0
         NFxFlg=           0 DoJE=T BraDBF=F KetDBF=T FulRan=T
         wScrn=  0.000000 ICntrl=       500 IOpCl=  0 I1Cent=   200000004 NGrid=           0
         NMat0=    1 NMatS0=      1 NMatT0=    0 NMatD0=    1 NMtDS0=    0 NMtDT0=    0
 Petite list used in FoFCou.
 Harris En= -34.4758992732925    
 JPrj=0 DoOrth=F DoCkMO=F.
 Initial guess orbital symmetries:
       Occupied  (A') (A') (A') (A') (A') (A') (A") (A")
       Virtual   (A') (A') (A') (A') (A") (A') (A") (A') (A') (A')
                 (A') (A') (A') (A') (A') (A')
 The electronic state of the initial guess is 1-A'.
 Leave Link  401 at Sun Dec 10 06:39:02 2023, MaxMem=   536870912 cpu:               0.4 elap:               0.1
 (Enter /usr/site/hpc/x86_64/glibc-2.17/broadwell/gaussian/g16_a.03/pgi-16.5/g16/l502.exe)
 Keep R1 ints in memory in symmetry-blocked form, NReq=852630.
 FoFCou: FMM=F IPFlag=           0 FMFlag=           0 FMFlg1=           0
         NFxFlg=           0 DoJE=F BraDBF=F KetDBF=F FulRan=T
         wScrn=  0.000000 ICntrl=       600 IOpCl=  0 I1Cent=           0 NGrid=           0
         NMat0=    1 NMatS0=    300 NMatT0=    0 NMatD0=    1 NMtDS0=    0 NMtDT0=    0
 Petite list used in FoFCou.
 Closed shell SCF:
 Using DIIS extrapolation, IDIIS=  1040.
 NGot=   536870912 LenX=   536840576 LenY=   536839559
 Requested convergence on RMS density matrix=1.00D-08 within 128 cycles.
 Requested convergence on MAX density matrix=1.00D-06.
 Requested convergence on             energy=1.00D-06.
 No special actions if energy rises.

 Cycle   1  Pass 1  IDiag  1:
 E= -33.5345438588835    
 DIIS: error= 6.06D-02 at cycle   1 NSaved=   1.
 NSaved= 1 IEnMin= 1 EnMin= -33.5345438588835     IErMin= 1 ErrMin= 6.06D-02
 ErrMax= 6.06D-02  0.00D+00 EMaxC= 1.00D-01 BMatC= 1.08D-01 BMatP= 1.08D-01
 IDIUse=3 WtCom= 3.94D-01 WtEn= 6.06D-01
 Coeff-Com:  0.100D+01
 Coeff-En:   0.100D+01
 Coeff:      0.100D+01
 Gap=     0.562 Goal=   None    Shift=    0.000
 GapD=    0.562 DampG=2.000 DampE=0.500 DampFc=1.0000 IDamp=-1.
 RMSDP=1.65D-02 MaxDP=1.23D-01              OVMax= 1.11D-01

 Cycle   2  Pass 1  IDiag  1:
 E= -33.6024613612882     Delta-E=       -0.067917502405 Rises=F Damp=F
 DIIS: error= 3.89D-02 at cycle   2 NSaved=   2.
 NSaved= 2 IEnMin= 2 EnMin= -33.6024613612882     IErMin= 2 ErrMin= 3.89D-02
 ErrMax= 3.89D-02  0.00D+00 EMaxC= 1.00D-01 BMatC= 4.14D-02 BMatP= 1.08D-01
 IDIUse=3 WtCom= 6.11D-01 WtEn= 3.89D-01
 Coeff-Com:  0.379D+00 0.621D+00
 Coeff-En:   0.981D-01 0.902D+00
 Coeff:      0.270D+00 0.730D+00
 Gap=     0.669 Goal=   None    Shift=    0.000
 RMSDP=7.03D-03 MaxDP=5.83D-02 DE=-6.79D-02 OVMax= 3.65D-02

 Cycle   3  Pass 1  IDiag  1:
 E= -33.6349808141575     Delta-E=       -0.032519452869 Rises=F Damp=F
 DIIS: error= 6.79D-03 at cycle   3 NSaved=   3.
 NSaved= 3 IEnMin= 3 EnMin= -33.6349808141575     IErMin= 3 ErrMin= 6.79D-03
 ErrMax= 6.79D-03  0.00D+00 EMaxC= 1.00D-01 BMatC= 1.19D-03 BMatP= 4.14D-02
 IDIUse=3 WtCom= 9.32D-01 WtEn= 6.79D-02
 Coeff-Com: -0.107D+00 0.104D-01 0.110D+01
 Coeff-En:   0.000D+00 0.000D+00 0.100D+01
 Coeff:     -0.998D-01 0.965D-02 0.109D+01
 Gap=     0.660 Goal=   None    Shift=    0.000
 RMSDP=1.29D-03 MaxDP=1.03D-02 DE=-3.25D-02 OVMax= 9.34D-03

 Cycle   4  Pass 1  IDiag  1:
 E= -33.6361424572593     Delta-E=       -0.001161643102 Rises=F Damp=F
 DIIS: error= 8.42D-04 at cycle   4 NSaved=   4.
 NSaved= 4 IEnMin= 4 EnMin= -33.6361424572593     IErMin= 4 ErrMin= 8.42D-04
 ErrMax= 8.42D-04  0.00D+00 EMaxC= 1.00D-01 BMatC= 7.50D-06 BMatP= 1.19D-03
 IDIUse=3 WtCom= 9.92D-01 WtEn= 8.42D-03
 Coeff-Com:  0.358D-01-0.264D-01-0.441D+00 0.143D+01
 Coeff-En:   0.000D+00 0.000D+00 0.000D+00 0.100D+01
 Coeff:      0.355D-01-0.262D-01-0.437D+00 0.143D+01
 Gap=     0.662 Goal=   None    Shift=    0.000
 RMSDP=2.53D-04 MaxDP=2.36D-03 DE=-1.16D-03 OVMax= 1.31D-03

 Cycle   5  Pass 1  IDiag  1:
 E= -33.6361582222757     Delta-E=       -0.000015765016 Rises=F Damp=F
 DIIS: error= 8.43D-05 at cycle   5 NSaved=   5.
 NSaved= 5 IEnMin= 5 EnMin= -33.6361582222757     IErMin= 5 ErrMin= 8.43D-05
 ErrMax= 8.43D-05  0.00D+00 EMaxC= 1.00D-01 BMatC= 2.28D-07 BMatP= 7.50D-06
 IDIUse=1 WtCom= 1.00D+00 WtEn= 0.00D+00
 Coeff-Com:  0.883D-02-0.520D-02-0.105D+00 0.237D+00 0.865D+00
 Coeff:      0.883D-02-0.520D-02-0.105D+00 0.237D+00 0.865D+00
 Gap=     0.662 Goal=   None    Shift=    0.000
 RMSDP=2.65D-05 MaxDP=2.99D-04 DE=-1.58D-05 OVMax= 1.72D-04

 Cycle   6  Pass 1  IDiag  1:
 E= -33.6361585326332     Delta-E=       -0.000000310358 Rises=F Damp=F
 DIIS: error= 2.77D-05 at cycle   6 NSaved=   6.
 NSaved= 6 IEnMin= 6 EnMin= -33.6361585326332     IErMin= 6 ErrMin= 2.77D-05
 ErrMax= 2.77D-05  0.00D+00 EMaxC= 1.00D-01 BMatC= 2.47D-08 BMatP= 2.28D-07
 IDIUse=1 WtCom= 1.00D+00 WtEn= 0.00D+00
 Coeff-Com: -0.362D-02 0.253D-02 0.437D-01-0.152D+00 0.113D+00 0.997D+00
 Coeff:     -0.362D-02 0.253D-02 0.437D-01-0.152D+00 0.113D+00 0.997D+00
 Gap=     0.662 Goal=   None    Shift=    0.000
 RMSDP=9.60D-06 MaxDP=1.00D-04 DE=-3.10D-07 OVMax= 6.67D-05

 Cycle   7  Pass 1  IDiag  1:
 E= -33.6361585720570     Delta-E=       -0.000000039424 Rises=F Damp=F
 DIIS: error= 6.13D-06 at cycle   7 NSaved=   7.
 NSaved= 7 IEnMin= 7 EnMin= -33.6361585720570     IErMin= 7 ErrMin= 6.13D-06
 ErrMax= 6.13D-06  0.00D+00 EMaxC= 1.00D-01 BMatC= 8.65D-10 BMatP= 2.47D-08
 IDIUse=1 WtCom= 1.00D+00 WtEn= 0.00D+00
 Coeff-Com:  0.905D-03-0.541D-03-0.104D-01 0.403D-01-0.698D-01-0.325D+00
 Coeff-Com:  0.136D+01
 Coeff:      0.905D-03-0.541D-03-0.104D-01 0.403D-01-0.698D-01-0.325D+00
 Coeff:      0.136D+01
 Gap=     0.662 Goal=   None    Shift=    0.000
 RMSDP=2.75D-06 MaxDP=2.43D-05 DE=-3.94D-08 OVMax= 2.49D-05

 Cycle   8  Pass 1  IDiag  1:
 E= -33.6361585745173     Delta-E=       -0.000000002460 Rises=F Damp=F
 DIIS: error= 1.19D-06 at cycle   8 NSaved=   8.
 NSaved= 8 IEnMin= 8 EnMin= -33.6361585745173     IErMin= 8 ErrMin= 1.19D-06
 ErrMax= 1.19D-06  0.00D+00 EMaxC= 1.00D-01 BMatC= 3.87D-11 BMatP= 8.65D-10
 IDIUse=1 WtCom= 1.00D+00 WtEn= 0.00D+00
 Coeff-Com:  0.215D-04-0.618D-04-0.470D-03 0.635D-03 0.101D-01 0.150D-01
 Coeff-Com: -0.308D+00 0.128D+01
 Coeff:      0.215D-04-0.618D-04-0.470D-03 0.635D-03 0.101D-01 0.150D-01
 Coeff:     -0.308D+00 0.128D+01
 Gap=     0.662 Goal=   None    Shift=    0.000
 RMSDP=7.27D-07 MaxDP=4.99D-06 DE=-2.46D-09 OVMax= 5.48D-06

 Cycle   9  Pass 1  IDiag  1:
 E= -33.6361585746353     Delta-E=       -0.000000000118 Rises=F Damp=F
 DIIS: error= 2.50D-07 at cycle   9 NSaved=   9.
 NSaved= 9 IEnMin= 9 EnMin= -33.6361585746353     IErMin= 9 ErrMin= 2.50D-07
 ErrMax= 2.50D-07  0.00D+00 EMaxC= 1.00D-01 BMatC= 1.31D-12 BMatP= 3.87D-11
 IDIUse=1 WtCom= 1.00D+00 WtEn= 0.00D+00
 Coeff-Com:  0.262D-05 0.131D-04 0.448D-04 0.356D-04-0.304D-02-0.484D-02
 Coeff-Com:  0.951D-01-0.494D+00 0.141D+01
 Coeff:      0.262D-05 0.131D-04 0.448D-04 0.356D-04-0.304D-02-0.484D-02
 Coeff:      0.951D-01-0.494D+00 0.141D+01
 Gap=     0.662 Goal=   None    Shift=    0.000
 RMSDP=1.90D-07 MaxDP=8.88D-07 DE=-1.18D-10 OVMax= 1.38D-06

 Cycle  10  Pass 1  IDiag  1:
 E= -33.6361585746395     Delta-E=       -0.000000000004 Rises=F Damp=F
 DIIS: error= 1.77D-08 at cycle  10 NSaved=  10.
 NSaved=10 IEnMin=10 EnMin= -33.6361585746395     IErMin=10 ErrMin= 1.77D-08
 ErrMax= 1.77D-08  0.00D+00 EMaxC= 1.00D-01 BMatC= 1.31D-14 BMatP= 1.31D-12
 IDIUse=1 WtCom= 1.00D+00 WtEn= 0.00D+00
 Coeff-Com:  0.427D-06-0.331D-05-0.203D-04 0.454D-04 0.520D-03 0.573D-03
 Coeff-Com: -0.181D-01 0.103D+00-0.374D+00 0.129D+01
 Coeff:      0.427D-06-0.331D-05-0.203D-04 0.454D-04 0.520D-03 0.573D-03
 Coeff:     -0.181D-01 0.103D+00-0.374D+00 0.129D+01
 Gap=     0.662 Goal=   None    Shift=    0.000
 RMSDP=2.03D-08 MaxDP=1.14D-07 DE=-4.19D-12 OVMax= 1.29D-07

 Cycle  11  Pass 1  IDiag  1:
 E= -33.6361585746396     Delta-E=       -0.000000000000 Rises=F Damp=F
 DIIS: error= 1.42D-09 at cycle  11 NSaved=  11.
 NSaved=11 IEnMin=11 EnMin= -33.6361585746396     IErMin=11 ErrMin= 1.42D-09
 ErrMax= 1.42D-09  0.00D+00 EMaxC= 1.00D-01 BMatC= 9.40D-17 BMatP= 1.31D-14
 IDIUse=1 WtCom= 1.00D+00 WtEn= 0.00D+00
 Coeff-Com: -0.169D-06 0.857D-06 0.580D-05-0.144D-04-0.133D-03-0.121D-03
 Coeff-Com:  0.459D-02-0.268D-01 0.100D+00-0.380D+00 0.130D+01
 Coeff:     -0.169D-06 0.857D-06 0.580D-05-0.144D-04-0.133D-03-0.121D-03
 Coeff:      0.459D-02-0.268D-01 0.100D+00-0.380D+00 0.130D+01
 Gap=     0.662 Goal=   None    Shift=    0.000
 RMSDP=1.16D-09 MaxDP=7.28D-09 DE=-4.26D-14 OVMax= 7.02D-09

 SCF Done:  E(RHF) =  -33.6361585746     A.U. after   11 cycles
            NFock= 11  Conv=0.12D-08     -V/T= 2.2559
 KE= 2.678278241435D+01 PE=-1.351167903680D+02 EE= 4.813155392442D+01
 Leave Link  502 at Sun Dec 10 06:39:02 2023, MaxMem=   536870912 cpu:               0.3 elap:               0.1
 (Enter /usr/site/hpc/x86_64/glibc-2.17/broadwell/gaussian/g16_a.03/pgi-16.5/g16/l801.exe)
 Windowed orbitals will be sorted by symmetry type.
 Range of M.O.s used for correlation:     1    24
 NBasis=    24 NAE=     8 NBE=     8 NFC=     0 NFV=     0
 NROrb=     24 NOA=     8 NOB=     8 NVA=    16 NVB=    16
 Leave Link  801 at Sun Dec 10 06:39:02 2023, MaxMem=   536870912 cpu:               0.1 elap:               0.0
 (Enter /usr/site/hpc/x86_64/glibc-2.17/broadwell/gaussian/g16_a.03/pgi-16.5/g16/l804.exe)
 Closed-shell transformation, MDV=   536870912 ITran=4 ISComp=2.
 Unit  1 TFree=       1025975 TCopy=        210600.
 Semi-Direct transformation.
 ModeAB=           2 MOrb=             8 LenV=     536741638
 LASXX=        22470 LTotXX=       22470 LenRXX=       22470
 LTotAB=       26208 MaxLAS=       57600 LenRXY=       57600
 NonZer=       62208 LenScr=      524288 LnRSAI=           0
 LnScr1=           0 LExtra=           0 Total=       604358
 MaxDsk=          -1 SrtSym=           F ITran=            4
 DoSDTr:  NPSUse=  4
 JobTyp=0 Pass  1:  I=   1 to   8.
 (rs|ai) integrals will be sorted in core.
 Complete sort for first half transformation.
 First half transformation complete.
 Complete sort for second half transformation.
 Second half transformation complete.
 Spin components of T(2) and E(2):
     alpha-alpha T2 =       0.9166346080D-02 E2=     -0.2628825498D-01
     alpha-beta  T2 =       0.6026387293D-01 E2=     -0.1778861679D+00
     beta-beta   T2 =       0.9166346080D-02 E2=     -0.2628825498D-01
 ANorm=    0.1038555037D+01
 E2 =    -0.2304626778D+00 EUMP2 =    -0.33866621252481D+02
 Leave Link  804 at Sun Dec 10 06:39:02 2023, MaxMem=   536870912 cpu:               0.2 elap:               0.1
 (Enter /usr/site/hpc/x86_64/glibc-2.17/broadwell/gaussian/g16_a.03/pgi-16.5/g16/l913.exe)
 CIDS:  MDV=   536870912.
 IFCWin=0 IBDFC=1 NFBD=     0     0 NFCmp=     0     0 NFFFC=     0     0
 Using DD3R+UMP44R for 1st iteration.
 Using DD4RQ for 2nd and later iterations.
 Keep R2 and R3 ints in memory in symmetry-blocked form, NReq=865238.
 FoFCou: FMM=F IPFlag=           0 FMFlag=           0 FMFlg1=           0
         NFxFlg=           0 DoJE=F BraDBF=F KetDBF=F FulRan=T
         wScrn=  0.000000 ICntrl=       600 IOpCl=  0 I1Cent=           0 NGrid=           0
         NMat0=    1 NMatS0=    300 NMatT0=    0 NMatD0=    1 NMtDS0=    0 NMtDT0=    0
 Petite list used in FoFCou.
 CIDS: In Core Option IDoMem=           1.
 CCSD(T)
 =======
 Iterations=  50 Convergence= 0.100D-06
 Produce multiple copies of IABC intergrals
 Iteration Nr.   1
 **********************
 DD1Dir will call FoFMem   1 times, MxPair=        72
 NAB=    36 NAA=     0 NBB=     0.
 MP4(R+Q)= -0.57600410D-03
 Maximum subspace dimension=  5
 A-vector RMS=  6.0909447D-03 Max=  1.4252791D-02 conv= 1.00D-05.
 RLE energy=       -0.2364360899
 E3=       -0.55187619D-02        EUMP3=      -0.33872140014D+02
 E4(DQ)=   -0.58304389D-02        UMP4(DQ)=   -0.33877970453D+02
 E4(SDQ)=  -0.80089412D-02        UMP4(SDQ)=  -0.33880148956D+02
 VARIATIONAL ENERGIES WITH THE FIRST-ORDER WAVEFUNCTION:
 DE(Corr)= -0.23628551     E(Corr)=     -33.872444080    
 NORM(A)=   0.10420959D+01
 Iteration Nr.   2
 **********************
 DD1Dir will call FoFMem   1 times, MxPair=        72
 NAB=    36 NAA=     0 NBB=     0.
 A-vector RMS=  1.0170517D-03 Max=  2.4885566D-03 conv= 1.00D-05.
 RLE energy=       -0.2444181136
 DE(Corr)= -0.24246078     E(CORR)=     -33.878619354     Delta=-6.18D-03
 NORM(A)=   0.10460794D+01
 Iteration Nr.   3
 **********************
 DD1Dir will call FoFMem   1 times, MxPair=        72
 NAB=    36 NAA=     0 NBB=     0.
 A-vector RMS=  4.9081460D-04 Max=  1.9921640D-03 conv= 1.00D-05.
 RLE energy=       -0.2449849565
 DE(Corr)= -0.24450370     E(CORR)=     -33.880662277     Delta=-2.04D-03
 NORM(A)=   0.10467151D+01
 Iteration Nr.   4
 **********************
 DD1Dir will call FoFMem   1 times, MxPair=        72
 NAB=    36 NAA=     0 NBB=     0.
 A-vector RMS=  1.1795354D-04 Max=  3.9461253D-04 conv= 1.00D-05.
 RLE energy=       -0.2450408475
 DE(Corr)= -0.24500013     E(CORR)=     -33.881158701     Delta=-4.96D-04
 NORM(A)=   0.10468128D+01
 Iteration Nr.   5
 **********************
 DD1Dir will call FoFMem   1 times, MxPair=        72
 NAB=    36 NAA=     0 NBB=     0.
 A-vector RMS=  5.4411373D-05 Max=  2.3488039D-04 conv= 1.00D-05.
 RLE energy=       -0.2450405285
 DE(Corr)= -0.24503636     E(CORR)=     -33.881194936     Delta=-3.62D-05
 NORM(A)=   0.10468303D+01
 Iteration Nr.   6
 **********************
 DD1Dir will call FoFMem   1 times, MxPair=        72
 NAB=    36 NAA=     0 NBB=     0.
 A-vector RMS=  1.9303902D-05 Max=  8.0099938D-05 conv= 1.00D-05.
 RLE energy=       -0.2450356217
 DE(Corr)= -0.24503969     E(CORR)=     -33.881198269     Delta=-3.33D-06
 NORM(A)=   0.10468343D+01
 Iteration Nr.   7
 **********************
 DD1Dir will call FoFMem   1 times, MxPair=        72
 NAB=    36 NAA=     0 NBB=     0.
 A-vector RMS=  6.1648417D-06 Max=  2.1629705D-05 conv= 1.00D-05.
 RLE energy=       -0.2450380481
 DE(Corr)= -0.24503911     E(CORR)=     -33.881197686     Delta= 5.83D-07
 NORM(A)=   0.10468371D+01
 Iteration Nr.   8
 **********************
 DD1Dir will call FoFMem   1 times, MxPair=        72
 NAB=    36 NAA=     0 NBB=     0.
 A-vector RMS=  2.0292895D-06 Max=  8.0424179D-06 conv= 1.00D-05.
 RLE energy=       -0.2450383327
 DE(Corr)= -0.24503851     E(CORR)=     -33.881197083     Delta= 6.03D-07
 NORM(A)=   0.10468380D+01
 Iteration Nr.   9
 **********************
 DD1Dir will call FoFMem   1 times, MxPair=        72
 NAB=    36 NAA=     0 NBB=     0.
 A-vector RMS=  5.0336108D-07 Max=  2.0495660D-06 conv= 1.00D-05.
 RLE energy=       -0.2450387172
 DE(Corr)= -0.24503873     E(CORR)=     -33.881197304     Delta=-2.20D-07
 NORM(A)=   0.10468383D+01
 Iteration Nr.  10
 **********************
 DD1Dir will call FoFMem   1 times, MxPair=        72
 NAB=    36 NAA=     0 NBB=     0.
 A-vector RMS=  1.5644580D-07 Max=  5.0344121D-07 conv= 1.00D-05.
 RLE energy=       -0.2450388765
 DE(Corr)= -0.24503884     E(CORR)=     -33.881197411     Delta=-1.07D-07
 NORM(A)=   0.10468385D+01
 Iteration Nr.  11
 **********************
 DD1Dir will call FoFMem   1 times, MxPair=        72
 NAB=    36 NAA=     0 NBB=     0.
 A-vector RMS=  5.4547331D-08 Max=  2.0111520D-07 conv= 1.00D-05.
 RLE energy=       -0.2450389254
 DE(Corr)= -0.24503891     E(CORR)=     -33.881197482     Delta=-7.13D-08
 NORM(A)=   0.10468385D+01
 CI/CC converged in   11 iterations to DelEn=-7.13D-08 Conv= 1.00D-07 ErrA1= 5.45D-08 Conv= 1.00D-05
 Wavefunction amplitudes converged. E(Corr)=     -33.881197482    
 Largest amplitude= 4.12D-02
 IPart=  2 IA=    2   12.50% done.
 IPart=  3 IA=    3   24.17% done.
 IPart=  4 IA=    4   35.00% done.
 IPart=  4 IA=    5   45.00% done.
 IPart=  3 IA=    6   54.17% done.
 IPart=  2 IA=    7   62.50% done.
 IPart=  1 IA=    8   70.00% done.
 IPart=  2 IA=   10   82.50% done.
 IPart=  1 IA=   12   91.67% done.
 Time for triples=        0.26 seconds.
 T4(CCSD)= -0.33172239D-02
 T5(CCSD)=  0.56426890D-03
 CCSD(T)= -0.33883950437D+02
 Discarding MO integrals.
 Leave Link  913 at Sun Dec 10 06:39:02 2023, MaxMem=   536870912 cpu:               1.0 elap:               0.3
 (Enter /usr/site/hpc/x86_64/glibc-2.17/broadwell/gaussian/g16_a.03/pgi-16.5/g16/l601.exe)
 Copying SCF densities to generalized density rwf, IOpCl= 0 IROHF=0.

 **********************************************************************

            Population analysis using the SCF density.

 **********************************************************************

 Orbital symmetries:
       Occupied  (A') (A') (A') (A') (A') (A') (A") (A")
       Virtual   (A') (A') (A') (A') (A") (A') (A") (A') (A') (A')
                 (A') (A') (A') (A') (A') (A')
 The electronic state is 1-A'.
 Alpha  occ. eigenvalues --   -1.34426  -1.31777  -0.70069  -0.67788  -0.54881
 Alpha  occ. eigenvalues --   -0.49451  -0.49066  -0.46087
 Alpha virt. eigenvalues --    0.20124   0.25593   0.31359   0.33348   0.78359
 Alpha virt. eigenvalues --    0.83819   0.88860   0.91513   0.95590   1.15510
 Alpha virt. eigenvalues --    1.18947   1.22009   1.23491   1.30670   2.59130
 Alpha virt. eigenvalues --    2.81460
          Condensed to atoms (all electrons):
               1          2          3          4          5          6
     1  O    6.285365   0.248853   0.271524  -0.067181   0.001123   0.002161
     2  H    0.248853   0.422055  -0.023874   0.002374  -0.000014  -0.000485
     3  H    0.271524  -0.023874   0.367881   0.003024  -0.000044  -0.000102
     4  O   -0.067181   0.002374   0.003024   6.250619   0.240786   0.262967
     5  H    0.001123  -0.000014  -0.000044   0.240786   0.442906  -0.023281
     6  H    0.002161  -0.000485  -0.000102   0.262967  -0.023281   0.395509
 Mulliken charges:
               1
     1  O   -0.741844
     2  H    0.351090
     3  H    0.381590
     4  O   -0.692591
     5  H    0.338523
     6  H    0.363231
 Sum of Mulliken charges =   0.00000
 Mulliken charges with hydrogens summed into heavy atoms:
               1
     1  O   -0.009164
     4  O    0.009164
 Electronic spatial extent (au):  <R**2>=            130.8144
 Charge=              0.0000 electrons
 Dipole moment (field-independent basis, Debye):
    X=             -2.0112    Y=             -1.2568    Z=              0.0000  Tot=              2.3716
 Quadrupole moment (field-independent basis, Debye-Ang):
   XX=             -9.5545   YY=             -1.9385   ZZ=            -14.9947
   XY=             -2.0752   XZ=              0.0000   YZ=              0.0000
 Traceless Quadrupole moment (field-independent basis, Debye-Ang):
   XX=             -0.7253   YY=              6.8907   ZZ=             -6.1654
   XY=             -2.0752   XZ=              0.0000   YZ=              0.0000
 Octapole moment (field-independent basis, Debye-Ang**2):
  XXX=             -1.5655  YYY=             -0.2852  ZZZ=              0.0000  XYY=             -0.7016
  XXY=             -3.6385  XXZ=              0.0000  XZZ=             -0.3560  YZZ=             -0.2438
  YYZ=              0.0000  XYZ=              0.0000
 Hexadecapole moment (field-independent basis, Debye-Ang**3):
 XXXX=            -12.2241 YYYY=            -79.7000 ZZZZ=            -12.2328 XXXY=             -0.9288
 XXXZ=              0.0000 YYYX=             -0.7734 YYYZ=              0.0000 ZZZX=              0.0000
 ZZZY=              0.0000 XXYY=            -17.5895 XXZZ=             -4.5833 YYZZ=            -27.8658
 XXYZ=              0.0000 YYXZ=              0.0000 ZZXY=              0.2711
 N-N= 2.656629545461D+01 E-N=-1.351167903778D+02  KE= 2.678278241435D+01
 Symmetry A'   KE= 1.790711431137D+01
 Symmetry A"   KE= 8.875668102978D+00
 Leave Link  601 at Sun Dec 10 06:39:02 2023, MaxMem=   536870912 cpu:               0.1 elap:               0.0
 (Enter /usr/site/hpc/x86_64/glibc-2.17/broadwell/gaussian/g16_a.03/pgi-16.5/g16/l9999.exe)
 1\1\GINC-N033\SP\RCCSD(T)-FC\CEP-31G\H4O2\ROOT\10-Dec-2023\0\\#p CCSD(
 T)/CEP-31G\\H2O_H2O_765\\0,1\O,0,0.,-0.009833,0.\H,0,-0.799571,-0.5809
 65,0.\H,0,0.799571,-0.580965,0.\O,0,-0.008176,2.390749,0.\H,0,-0.03883
 7,3.372873,0.\H,0,-0.927273,2.043234,0.\\Version=ES64L-G16RevA.03\Stat
 e=1-A'\HF=-33.6361586\MP2=-33.8666213\MP3=-33.87214\MP4D=-33.8773944\M
 P4DQ=-33.8779705\MP4SDQ=-33.880149\CCSD=-33.8811975\CCSD(T)=-33.883950
 4\RMSD=1.164e-09\PG=CS [SG(H4O2)]\\@


 Sometimes the fool who rushes in gets the job done.
                                    -- Al Bernstein
 Job cpu time:       0 days  0 hours  0 minutes  3.3 seconds.
 Elapsed time:       0 days  0 hours  0 minutes  1.0 seconds.
 File lengths (MBytes):  RWF=     72 Int=      0 D2E=      0 Chk=      8 Scr=      8
 Normal termination of Gaussian 16 at Sun Dec 10 06:39:02 2023.
