 Entering Gaussian System, Link 0=g16
 Input=H2O_H2O_2602.com
 Output=H2O_H2O_2602.log
 Initial command:
 /usr/site/hpc/x86_64/glibc-2.17/broadwell/gaussian/g16_a.03/pgi-16.5/g16/l1.exe "/gpfs/gpfs1/scratch/c7441090/OO Coord/Gau-1730072.inp" -scrdir="/gpfs/gpfs1/scratch/c7441090/OO Coord/"
 Entering Link 1 = /usr/site/hpc/x86_64/glibc-2.17/broadwell/gaussian/g16_a.03/pgi-16.5/g16/l1.exe PID=   1730073.
  
 Copyright (c) 1988,1990,1992,1993,1995,1998,2003,2009,2016,
            Gaussian, Inc.  All Rights Reserved.
  
 This is part of the Gaussian(R) 16 program.  It is based on
 the Gaussian(R) 09 system (copyright 2009, Gaussian, Inc.),
 the Gaussian(R) 03 system (copyright 2003, Gaussian, Inc.),
 the Gaussian(R) 98 system (copyright 1998, Gaussian, Inc.),
 the Gaussian(R) 94 system (copyright 1995, Gaussian, Inc.),
 the Gaussian 92(TM) system (copyright 1992, Gaussian, Inc.),
 the Gaussian 90(TM) system (copyright 1990, Gaussian, Inc.),
 the Gaussian 88(TM) system (copyright 1988, Gaussian, Inc.),
 the Gaussian 86(TM) system (copyright 1986, Carnegie Mellon
 University), and the Gaussian 82(TM) system (copyright 1983,
 Carnegie Mellon University). Gaussian is a federally registered
 trademark of Gaussian, Inc.
  
 This software contains proprietary and confidential information,
 including trade secrets, belonging to Gaussian, Inc.
  
 This software is provided under written license and may be
 used, copied, transmitted, or stored only in accord with that
 written license.
  
 The following legend is applicable only to US Government
 contracts under FAR:
  
                    RESTRICTED RIGHTS LEGEND
  
 Use, reproduction and disclosure by the US Government is
 subject to restrictions as set forth in subparagraphs (a)
 and (c) of the Commercial Computer Software - Restricted
 Rights clause in FAR 52.227-19.
  
 Gaussian, Inc.
 340 Quinnipiac St., Bldg. 40, Wallingford CT 06492
  
  
 ---------------------------------------------------------------
 Warning -- This program may not be used in any manner that
 competes with the business of Gaussian, Inc. or will provide
 assistance to any competitor of Gaussian, Inc.  The licensee
 of this program is prohibited from giving any competitor of
 Gaussian, Inc. access to this program.  By using this program,
 the user acknowledges that Gaussian, Inc. is engaged in the
 business of creating and licensing software in the field of
 computational chemistry and represents and warrants to the
 licensee that it is not a competitor of Gaussian, Inc. and that
 it will not use this program in any manner prohibited above.
 ---------------------------------------------------------------
  

 Cite this work as:
 Gaussian 16, Revision A.03,
 M. J. Frisch, G. W. Trucks, H. B. Schlegel, G. E. Scuseria, 
 M. A. Robb, J. R. Cheeseman, G. Scalmani, V. Barone, 
 G. A. Petersson, H. Nakatsuji, X. Li, M. Caricato, A. V. Marenich, 
 J. Bloino, B. G. Janesko, R. Gomperts, B. Mennucci, H. P. Hratchian, 
 J. V. Ortiz, A. F. Izmaylov, J. L. Sonnenberg, D. Williams-Young, 
 F. Ding, F. Lipparini, F. Egidi, J. Goings, B. Peng, A. Petrone, 
 T. Henderson, D. Ranasinghe, V. G. Zakrzewski, J. Gao, N. Rega, 
 G. Zheng, W. Liang, M. Hada, M. Ehara, K. Toyota, R. Fukuda, 
 J. Hasegawa, M. Ishida, T. Nakajima, Y. Honda, O. Kitao, H. Nakai, 
 T. Vreven, K. Throssell, J. A. Montgomery, Jr., J. E. Peralta, 
 F. Ogliaro, M. J. Bearpark, J. J. Heyd, E. N. Brothers, K. N. Kudin, 
 V. N. Staroverov, T. A. Keith, R. Kobayashi, J. Normand, 
 K. Raghavachari, A. P. Rendell, J. C. Burant, S. S. Iyengar, 
 J. Tomasi, M. Cossi, J. M. Millam, M. Klene, C. Adamo, R. Cammi, 
 J. W. Ochterski, R. L. Martin, K. Morokuma, O. Farkas, 
 J. B. Foresman, and D. J. Fox, Gaussian, Inc., Wallingford CT, 2016.
 
 ******************************************
 Gaussian 16:  ES64L-G16RevA.03 25-Dec-2016
                10-Dec-2023 
 ******************************************
 %NProcShared=4
 Will use up to    4 processors via shared memory.
 %Mem=4GB
 %Chk=H2O_H2O_2602.chk
 ------------------
 #p CCSD(T)/CEP-31G
 ------------------
 1/38=1,172=1/1;
 2/12=2,17=6,18=5,40=1/2;
 3/5=9,6=1,11=9,25=1,30=1/1,2,3;
 4//1;
 5/5=2,38=5/2;
 8/6=4,9=120000,10=1/1,4;
 9/5=7,14=2/13;
 6/7=2,8=2,9=2,10=2/1;
 99/5=1,9=1/99;
 Leave Link    1 at Sun Dec 10 06:26:36 2023, MaxMem=   536870912 cpu:               0.2 elap:               0.1
 (Enter /usr/site/hpc/x86_64/glibc-2.17/broadwell/gaussian/g16_a.03/pgi-16.5/g16/l101.exe)
 ------------
 H2O_H2O_2602
 ------------
 Symbolic Z-matrix:
 Charge =  0 Multiplicity = 1
 O                     0.       -0.00983   0. 
 H                    -0.79957  -0.58097   0. 
 H                     0.79957  -0.58097   0. 
 O                    -0.00128   4.36283   0. 
 H                     0.7169    5.03344   0. 
 H                    -0.86856   4.82471   0. 
 
 ITRead=  0  0  0  0  0  0
 MicOpt= -1 -1 -1 -1 -1 -1
 NAtoms=      6 NQM=        6 NQMF=       0 NMMI=      0 NMMIF=      0
                NMic=       0 NMicF=      0.
                    Isotopes and Nuclear Properties:
 (Nuclear quadrupole moments (NQMom) in fm**2, nuclear magnetic moments (NMagM)
  in nuclear magnetons)

  Atom         1           2           3           4           5           6
 IAtWgt=          16           1           1          16           1           1
 AtmWgt=  15.9949146   1.0078250   1.0078250  15.9949146   1.0078250   1.0078250
 NucSpn=           0           1           1           0           1           1
 AtZEff=  -0.0000000  -0.0000000  -0.0000000  -0.0000000  -0.0000000  -0.0000000
 NQMom=    0.0000000   0.0000000   0.0000000   0.0000000   0.0000000   0.0000000
 NMagM=    0.0000000   2.7928460   2.7928460   0.0000000   2.7928460   2.7928460
 AtZNuc=   8.0000000   1.0000000   1.0000000   8.0000000   1.0000000   1.0000000
 Leave Link  101 at Sun Dec 10 06:26:36 2023, MaxMem=   536870912 cpu:               0.3 elap:               0.1
 (Enter /usr/site/hpc/x86_64/glibc-2.17/broadwell/gaussian/g16_a.03/pgi-16.5/g16/l202.exe)
                          Input orientation:                          
 ---------------------------------------------------------------------
 Center     Atomic      Atomic             Coordinates (Angstroms)
 Number     Number       Type             X           Y           Z
 ---------------------------------------------------------------------
      1          8           0        0.000000   -0.009833    0.000000
      2          1           0       -0.799571   -0.580965    0.000000
      3          1           0        0.799571   -0.580965    0.000000
      4          8           0       -0.001283    4.362830    0.000000
      5          1           0        0.716900    5.033441    0.000000
      6          1           0       -0.868562    4.824711    0.000000
 ---------------------------------------------------------------------
                    Distance matrix (angstroms):
                    1          2          3          4          5
     1  O    0.000000
     2  H    0.982601   0.000000
     3  H    0.982601   1.599142   0.000000
     4  O    4.372663   5.007831   5.008241   0.000000
     5  H    5.093973   5.815603   5.615015   0.982602   0.000000
     6  H    4.911946   5.406116   5.657208   0.982602   1.599143
                    6
     6  H    0.000000
 Stoichiometry    H4O2
 Framework group  CS[SG(H4O2)]
 Deg. of freedom     9
 Full point group                 CS      NOp   2
 Largest Abelian subgroup         CS      NOp   2
 Largest concise Abelian subgroup C1      NOp   1
                         Standard orientation:                         
 ---------------------------------------------------------------------
 Center     Atomic      Atomic             Coordinates (Angstroms)
 Number     Number       Type             X           Y           Z
 ---------------------------------------------------------------------
      1          8           0        0.007455   -2.185845    0.000000
      2          1           0       -0.792284   -2.756743    0.000000
      3          1           0        0.806858   -2.757212    0.000000
      4          8           0        0.007455    2.186818    0.000000
      5          1           0        0.725835    2.857218    0.000000
      6          1           0       -0.859688    2.648953    0.000000
 ---------------------------------------------------------------------
 Rotational constants (GHZ):         196.9826561           2.7536074           2.7156455
 Leave Link  202 at Sun Dec 10 06:26:36 2023, MaxMem=   536870912 cpu:               0.1 elap:               0.0
 (Enter /usr/site/hpc/x86_64/glibc-2.17/broadwell/gaussian/g16_a.03/pgi-16.5/g16/l301.exe)
 Standard basis: CEP-31G (6D, 10F)
 Ernie: Thresh=  0.10000D-02 Tol=  0.10000D-05 Strict=F.
 There are    20 symmetry adapted cartesian basis functions of A'  symmetry.
 There are     4 symmetry adapted cartesian basis functions of A"  symmetry.
 There are    20 symmetry adapted basis functions of A'  symmetry.
 There are     4 symmetry adapted basis functions of A"  symmetry.
    24 basis functions,    48 primitive gaussians,    24 cartesian basis functions
     8 alpha electrons        8 beta electrons
       nuclear repulsion energy        20.8579976394 Hartrees.
 IExCor=    0 DFT=F Ex=HF Corr=None ExCW=0 ScaHFX=  1.000000
 ScaDFX=  1.000000  1.000000  1.000000  1.000000 ScalE2=  1.000000  1.000000
 IRadAn=      5 IRanWt=     -1 IRanGd=            0 ICorTp=0 IEmpDi=  4
 NAtoms=    6 NActive=    6 NUniq=    6 SFac= 1.00D+00 NAtFMM=   60 NAOKFM=F Big=F
 Integral buffers will be    131072 words long.
 Raffenetti 1 integral format.
 Two-electron integral symmetry is turned on.
 Leave Link  301 at Sun Dec 10 06:26:36 2023, MaxMem=   536870912 cpu:               0.2 elap:               0.1
 (Enter /usr/site/hpc/x86_64/glibc-2.17/broadwell/gaussian/g16_a.03/pgi-16.5/g16/l302.exe)
 NPDir=0 NMtPBC=     1 NCelOv=     1 NCel=       1 NClECP=     1 NCelD=      1
         NCelK=      1 NCelE2=     1 NClLst=     1 CellRange=     0.0.
 One-electron integrals computed using PRISM.
 One-electron integral symmetry used in STVInt
   2 Symmetry operations used in ECPInt.
 ECPInt:  NShTT=      78 NPrTT=     318 LenC2=      79 LenP2D=     259.
 LDataN:  DoStor=T MaxTD1= 2 Len=   12
 NBasis=    24 RedAO= T EigKep=  3.85D-02  NBF=    20     4
 NBsUse=    24 1.00D-06 EigRej= -1.00D+00 NBFU=    20     4
 Leave Link  302 at Sun Dec 10 06:26:37 2023, MaxMem=   536870912 cpu:               0.3 elap:               0.1
 (Enter /usr/site/hpc/x86_64/glibc-2.17/broadwell/gaussian/g16_a.03/pgi-16.5/g16/l303.exe)
 DipDrv:  MaxL=1.
 Leave Link  303 at Sun Dec 10 06:26:37 2023, MaxMem=   536870912 cpu:               0.1 elap:               0.0
 (Enter /usr/site/hpc/x86_64/glibc-2.17/broadwell/gaussian/g16_a.03/pgi-16.5/g16/l401.exe)
 ExpMin= 1.78D-01 ExpMax= 1.92D+01 ExpMxC= 1.92D+01 IAcc=3 IRadAn=         5 AccDes= 0.00D+00
 Harris functional with IExCor=  205 and IRadAn=       5 diagonalized for initial guess.
 HarFok:  IExCor=  205 AccDes= 0.00D+00 IRadAn=         5 IDoV= 1 UseB2=F ITyADJ=14
 ICtDFT=  3500011 ScaDFX=  1.000000  1.000000  1.000000  1.000000
 FoFCou: FMM=F IPFlag=           0 FMFlag=      100000 FMFlg1=           0
         NFxFlg=           0 DoJE=T BraDBF=F KetDBF=T FulRan=T
         wScrn=  0.000000 ICntrl=       500 IOpCl=  0 I1Cent=   200000004 NGrid=           0
         NMat0=    1 NMatS0=      1 NMatT0=    0 NMatD0=    1 NMtDS0=    0 NMtDT0=    0
 Petite list used in FoFCou.
 Harris En= -34.4764252566145    
 JPrj=0 DoOrth=F DoCkMO=F.
 Initial guess orbital symmetries:
       Occupied  (A') (A') (A') (A') (A') (A') (A") (A")
       Virtual   (A') (A') (A') (A') (A') (A") (A") (A') (A') (A')
                 (A') (A') (A') (A') (A') (A')
 The electronic state of the initial guess is 1-A'.
 Leave Link  401 at Sun Dec 10 06:26:37 2023, MaxMem=   536870912 cpu:               0.4 elap:               0.1
 (Enter /usr/site/hpc/x86_64/glibc-2.17/broadwell/gaussian/g16_a.03/pgi-16.5/g16/l502.exe)
 Keep R1 ints in memory in symmetry-blocked form, NReq=852080.
 FoFCou: FMM=F IPFlag=           0 FMFlag=           0 FMFlg1=           0
         NFxFlg=           0 DoJE=F BraDBF=F KetDBF=F FulRan=T
         wScrn=  0.000000 ICntrl=       600 IOpCl=  0 I1Cent=           0 NGrid=           0
         NMat0=    1 NMatS0=    300 NMatT0=    0 NMatD0=    1 NMtDS0=    0 NMtDT0=    0
 Petite list used in FoFCou.
 Closed shell SCF:
 Using DIIS extrapolation, IDIIS=  1040.
 NGot=   536870912 LenX=   536840576 LenY=   536839559
 Requested convergence on RMS density matrix=1.00D-08 within 128 cycles.
 Requested convergence on MAX density matrix=1.00D-06.
 Requested convergence on             energy=1.00D-06.
 No special actions if energy rises.

 Cycle   1  Pass 1  IDiag  1:
 E= -33.5520318426535    
 DIIS: error= 6.98D-02 at cycle   1 NSaved=   1.
 NSaved= 1 IEnMin= 1 EnMin= -33.5520318426535     IErMin= 1 ErrMin= 6.98D-02
 ErrMax= 6.98D-02  0.00D+00 EMaxC= 1.00D-01 BMatC= 1.03D-01 BMatP= 1.03D-01
 IDIUse=3 WtCom= 3.02D-01 WtEn= 6.98D-01
 Coeff-Com:  0.100D+01
 Coeff-En:   0.100D+01
 Coeff:      0.100D+01
 Gap=     0.600 Goal=   None    Shift=    0.000
 GapD=    0.600 DampG=2.000 DampE=0.500 DampFc=1.0000 IDamp=-1.
 RMSDP=1.51D-02 MaxDP=1.18D-01              OVMax= 1.01D-01

 Cycle   2  Pass 1  IDiag  1:
 E= -33.6161174736955     Delta-E=       -0.064085631042 Rises=F Damp=F
 DIIS: error= 3.78D-02 at cycle   2 NSaved=   2.
 NSaved= 2 IEnMin= 2 EnMin= -33.6161174736955     IErMin= 2 ErrMin= 3.78D-02
 ErrMax= 3.78D-02  0.00D+00 EMaxC= 1.00D-01 BMatC= 3.90D-02 BMatP= 1.03D-01
 IDIUse=3 WtCom= 6.22D-01 WtEn= 3.78D-01
 Coeff-Com:  0.378D+00 0.622D+00
 Coeff-En:   0.107D+00 0.893D+00
 Coeff:      0.276D+00 0.724D+00
 Gap=     0.705 Goal=   None    Shift=    0.000
 RMSDP=6.50D-03 MaxDP=5.49D-02 DE=-6.41D-02 OVMax= 3.66D-02

 Cycle   3  Pass 1  IDiag  1:
 E= -33.6472589472125     Delta-E=       -0.031141473517 Rises=F Damp=F
 DIIS: error= 7.42D-03 at cycle   3 NSaved=   3.
 NSaved= 3 IEnMin= 3 EnMin= -33.6472589472125     IErMin= 3 ErrMin= 7.42D-03
 ErrMax= 7.42D-03  0.00D+00 EMaxC= 1.00D-01 BMatC= 9.58D-04 BMatP= 3.90D-02
 IDIUse=3 WtCom= 9.26D-01 WtEn= 7.42D-02
 Coeff-Com: -0.115D+00-0.133D-01 0.113D+01
 Coeff-En:   0.000D+00 0.000D+00 0.100D+01
 Coeff:     -0.106D+00-0.123D-01 0.112D+01
 Gap=     0.697 Goal=   None    Shift=    0.000
 RMSDP=1.15D-03 MaxDP=9.58D-03 DE=-3.11D-02 OVMax= 8.41D-03

 Cycle   4  Pass 1  IDiag  1:
 E= -33.6482221313017     Delta-E=       -0.000963184089 Rises=F Damp=F
 DIIS: error= 7.92D-04 at cycle   4 NSaved=   4.
 NSaved= 4 IEnMin= 4 EnMin= -33.6482221313017     IErMin= 4 ErrMin= 7.92D-04
 ErrMax= 7.92D-04  0.00D+00 EMaxC= 1.00D-01 BMatC= 6.49D-06 BMatP= 9.58D-04
 IDIUse=3 WtCom= 9.92D-01 WtEn= 7.92D-03
 Coeff-Com:  0.433D-01-0.190D-01-0.512D+00 0.149D+01
 Coeff-En:   0.000D+00 0.000D+00 0.000D+00 0.100D+01
 Coeff:      0.429D-01-0.188D-01-0.508D+00 0.148D+01
 Gap=     0.699 Goal=   None    Shift=    0.000
 RMSDP=2.41D-04 MaxDP=2.09D-03 DE=-9.63D-04 OVMax= 9.82D-04

 Cycle   5  Pass 1  IDiag  1:
 E= -33.6482361615020     Delta-E=       -0.000014030200 Rises=F Damp=F
 DIIS: error= 5.56D-05 at cycle   5 NSaved=   5.
 NSaved= 5 IEnMin= 5 EnMin= -33.6482361615020     IErMin= 5 ErrMin= 5.56D-05
 ErrMax= 5.56D-05  0.00D+00 EMaxC= 1.00D-01 BMatC= 4.79D-08 BMatP= 6.49D-06
 IDIUse=1 WtCom= 1.00D+00 WtEn= 0.00D+00
 Coeff-Com: -0.730D-02 0.354D-02 0.867D-01-0.305D+00 0.122D+01
 Coeff:     -0.730D-02 0.354D-02 0.867D-01-0.305D+00 0.122D+01
 Gap=     0.699 Goal=   None    Shift=    0.000
 RMSDP=1.76D-05 MaxDP=1.69D-04 DE=-1.40D-05 OVMax= 1.17D-04

 Cycle   6  Pass 1  IDiag  1:
 E= -33.6482362820598     Delta-E=       -0.000000120558 Rises=F Damp=F
 DIIS: error= 1.19D-05 at cycle   6 NSaved=   6.
 NSaved= 6 IEnMin= 6 EnMin= -33.6482362820598     IErMin= 6 ErrMin= 1.19D-05
 ErrMax= 1.19D-05  0.00D+00 EMaxC= 1.00D-01 BMatC= 2.59D-09 BMatP= 4.79D-08
 IDIUse=1 WtCom= 1.00D+00 WtEn= 0.00D+00
 Coeff-Com:  0.132D-02-0.491D-03-0.149D-01 0.604D-01-0.420D+00 0.137D+01
 Coeff:      0.132D-02-0.491D-03-0.149D-01 0.604D-01-0.420D+00 0.137D+01
 Gap=     0.699 Goal=   None    Shift=    0.000
 RMSDP=4.28D-06 MaxDP=4.32D-05 DE=-1.21D-07 OVMax= 3.70D-05

 Cycle   7  Pass 1  IDiag  1:
 E= -33.6482362892093     Delta-E=       -0.000000007150 Rises=F Damp=F
 DIIS: error= 2.26D-06 at cycle   7 NSaved=   7.
 NSaved= 7 IEnMin= 7 EnMin= -33.6482362892093     IErMin= 7 ErrMin= 2.26D-06
 ErrMax= 2.26D-06  0.00D+00 EMaxC= 1.00D-01 BMatC= 1.07D-10 BMatP= 2.59D-09
 IDIUse=1 WtCom= 1.00D+00 WtEn= 0.00D+00
 Coeff-Com:  0.367D-04-0.878D-04-0.724D-03-0.661D-03 0.731D-01-0.441D+00
 Coeff-Com:  0.137D+01
 Coeff:      0.367D-04-0.878D-04-0.724D-03-0.661D-03 0.731D-01-0.441D+00
 Coeff:      0.137D+01
 Gap=     0.699 Goal=   None    Shift=    0.000
 RMSDP=1.17D-06 MaxDP=8.28D-06 DE=-7.15D-09 OVMax= 8.74D-06

 Cycle   8  Pass 1  IDiag  1:
 E= -33.6482362895214     Delta-E=       -0.000000000312 Rises=F Damp=F
 DIIS: error= 3.76D-07 at cycle   8 NSaved=   8.
 NSaved= 8 IEnMin= 8 EnMin= -33.6482362895214     IErMin= 8 ErrMin= 3.76D-07
 ErrMax= 3.76D-07  0.00D+00 EMaxC= 1.00D-01 BMatC= 3.48D-12 BMatP= 1.07D-10
 IDIUse=1 WtCom= 1.00D+00 WtEn= 0.00D+00
 Coeff-Com:  0.391D-05 0.105D-04 0.229D-04 0.480D-03-0.153D-01 0.912D-01
 Coeff-Com: -0.351D+00 0.127D+01
 Coeff:      0.391D-05 0.105D-04 0.229D-04 0.480D-03-0.153D-01 0.912D-01
 Coeff:     -0.351D+00 0.127D+01
 Gap=     0.699 Goal=   None    Shift=    0.000
 RMSDP=2.36D-07 MaxDP=1.10D-06 DE=-3.12D-10 OVMax= 1.59D-06

 Cycle   9  Pass 1  IDiag  1:
 E= -33.6482362895300     Delta-E=       -0.000000000009 Rises=F Damp=F
 DIIS: error= 1.14D-07 at cycle   9 NSaved=   9.
 NSaved= 9 IEnMin= 9 EnMin= -33.6482362895300     IErMin= 9 ErrMin= 1.14D-07
 ErrMax= 1.14D-07  0.00D+00 EMaxC= 1.00D-01 BMatC= 4.75D-13 BMatP= 3.48D-12
 IDIUse=1 WtCom= 1.00D+00 WtEn= 0.00D+00
 Coeff-Com:  0.280D-05 0.919D-05 0.176D-04 0.409D-03-0.125D-01 0.716D-01
 Coeff-Com: -0.241D+00 0.417D+00 0.765D+00
 Coeff:      0.280D-05 0.919D-05 0.176D-04 0.409D-03-0.125D-01 0.716D-01
 Coeff:     -0.241D+00 0.417D+00 0.765D+00
 Gap=     0.699 Goal=   None    Shift=    0.000
 RMSDP=5.11D-08 MaxDP=2.36D-07 DE=-8.54D-12 OVMax= 3.30D-07

 Cycle  10  Pass 1  IDiag  1:
 E= -33.6482362895307     Delta-E=       -0.000000000001 Rises=F Damp=F
 DIIS: error= 9.01D-09 at cycle  10 NSaved=  10.
 NSaved=10 IEnMin=10 EnMin= -33.6482362895307     IErMin=10 ErrMin= 9.01D-09
 ErrMax= 9.01D-09  0.00D+00 EMaxC= 1.00D-01 BMatC= 2.81D-15 BMatP= 4.75D-13
 IDIUse=1 WtCom= 1.00D+00 WtEn= 0.00D+00
 Coeff-Com:  0.141D-06-0.231D-05-0.133D-04-0.609D-04 0.273D-02-0.163D-01
 Coeff-Com:  0.556D-01-0.120D+00-0.161D+00 0.124D+01
 Coeff:      0.141D-06-0.231D-05-0.133D-04-0.609D-04 0.273D-02-0.163D-01
 Coeff:      0.556D-01-0.120D+00-0.161D+00 0.124D+01
 Gap=     0.699 Goal=   None    Shift=    0.000
 RMSDP=1.13D-08 MaxDP=5.19D-08 DE=-6.82D-13 OVMax= 6.45D-08

 Cycle  11  Pass 1  IDiag  1:
 E= -33.6482362895306     Delta-E=        0.000000000000 Rises=F Damp=F
 DIIS: error= 3.48D-10 at cycle  11 NSaved=  11.
 NSaved=11 IEnMin=10 EnMin= -33.6482362895307     IErMin=11 ErrMin= 3.48D-10
 ErrMax= 3.48D-10  0.00D+00 EMaxC= 1.00D-01 BMatC= 3.60D-18 BMatP= 2.81D-15
 IDIUse=1 WtCom= 1.00D+00 WtEn= 0.00D+00
 Coeff-Com: -0.829D-07 0.364D-06 0.270D-05 0.717D-05-0.415D-03 0.251D-02
 Coeff-Com: -0.868D-02 0.193D-01 0.250D-01-0.214D+00 0.118D+01
 Coeff:     -0.829D-07 0.364D-06 0.270D-05 0.717D-05-0.415D-03 0.251D-02
 Coeff:     -0.868D-02 0.193D-01 0.250D-01-0.214D+00 0.118D+01
 Gap=     0.699 Goal=   None    Shift=    0.000
 RMSDP=2.05D-10 MaxDP=9.58D-10 DE= 4.26D-14 OVMax= 7.33D-10

 SCF Done:  E(RHF) =  -33.6482362895     A.U. after   11 cycles
            NFock= 11  Conv=0.21D-09     -V/T= 2.2571
 KE= 2.676703161337D+01 PE=-1.234946567474D+02 EE= 4.222139120507D+01
 Leave Link  502 at Sun Dec 10 06:26:37 2023, MaxMem=   536870912 cpu:               0.3 elap:               0.1
 (Enter /usr/site/hpc/x86_64/glibc-2.17/broadwell/gaussian/g16_a.03/pgi-16.5/g16/l801.exe)
 Windowed orbitals will be sorted by symmetry type.
 Range of M.O.s used for correlation:     1    24
 NBasis=    24 NAE=     8 NBE=     8 NFC=     0 NFV=     0
 NROrb=     24 NOA=     8 NOB=     8 NVA=    16 NVB=    16
 Leave Link  801 at Sun Dec 10 06:26:37 2023, MaxMem=   536870912 cpu:               0.1 elap:               0.0
 (Enter /usr/site/hpc/x86_64/glibc-2.17/broadwell/gaussian/g16_a.03/pgi-16.5/g16/l804.exe)
 Closed-shell transformation, MDV=   536870912 ITran=4 ISComp=2.
 Unit  1 TFree=       1025975 TCopy=        210600.
 Semi-Direct transformation.
 ModeAB=           2 MOrb=             8 LenV=     536742242
 LASXX=        22470 LTotXX=       22470 LenRXX=       22470
 LTotAB=       26208 MaxLAS=       57600 LenRXY=       57600
 NonZer=       60672 LenScr=      524288 LnRSAI=           0
 LnScr1=           0 LExtra=           0 Total=       604358
 MaxDsk=          -1 SrtSym=           F ITran=            4
 DoSDTr:  NPSUse=  4
 JobTyp=0 Pass  1:  I=   1 to   8.
 (rs|ai) integrals will be sorted in core.
 Complete sort for first half transformation.
 First half transformation complete.
 Complete sort for second half transformation.
 Second half transformation complete.
 Spin components of T(2) and E(2):
     alpha-alpha T2 =       0.9080924803D-02 E2=     -0.2589695191D-01
     alpha-beta  T2 =       0.6010835771D-01 E2=     -0.1768037492D+00
     beta-beta   T2 =       0.9080924803D-02 E2=     -0.2589695191D-01
 ANorm=    0.1038397904D+01
 E2 =    -0.2285976530D+00 EUMP2 =    -0.33876833942518D+02
 Leave Link  804 at Sun Dec 10 06:26:37 2023, MaxMem=   536870912 cpu:               0.2 elap:               0.1
 (Enter /usr/site/hpc/x86_64/glibc-2.17/broadwell/gaussian/g16_a.03/pgi-16.5/g16/l913.exe)
 CIDS:  MDV=   536870912.
 IFCWin=0 IBDFC=1 NFBD=     0     0 NFCmp=     0     0 NFFFC=     0     0
 Using DD3R+UMP44R for 1st iteration.
 Using DD4RQ for 2nd and later iterations.
 Keep R2 and R3 ints in memory in symmetry-blocked form, NReq=864688.
 FoFCou: FMM=F IPFlag=           0 FMFlag=           0 FMFlg1=           0
         NFxFlg=           0 DoJE=F BraDBF=F KetDBF=F FulRan=T
         wScrn=  0.000000 ICntrl=       600 IOpCl=  0 I1Cent=           0 NGrid=           0
         NMat0=    1 NMatS0=    300 NMatT0=    0 NMatD0=    1 NMtDS0=    0 NMtDT0=    0
 Petite list used in FoFCou.
 CIDS: In Core Option IDoMem=           1.
 CCSD(T)
 =======
 Iterations=  50 Convergence= 0.100D-06
 Produce multiple copies of IABC intergrals
 Iteration Nr.   1
 **********************
 DD1Dir will call FoFMem   1 times, MxPair=        72
 NAB=    36 NAA=     0 NBB=     0.
 MP4(R+Q)= -0.72255882D-03
 Maximum subspace dimension=  5
 A-vector RMS=  5.7872258D-03 Max=  1.2845163D-02 conv= 1.00D-05.
 RLE energy=       -0.2347079631
 E3=       -0.55038497D-02        EUMP3=      -0.33882337792D+02
 E4(DQ)=   -0.59243308D-02        UMP4(DQ)=   -0.33888262123D+02
 E4(SDQ)=  -0.79635641D-02        UMP4(SDQ)=  -0.33890301356D+02
 VARIATIONAL ENERGIES WITH THE FIRST-ORDER WAVEFUNCTION:
 DE(Corr)= -0.23454923     E(Corr)=     -33.882785519    
 NORM(A)=   0.10418725D+01
 Iteration Nr.   2
 **********************
 DD1Dir will call FoFMem   1 times, MxPair=        72
 NAB=    36 NAA=     0 NBB=     0.
 A-vector RMS=  9.8884686D-04 Max=  1.6115279D-03 conv= 1.00D-05.
 RLE energy=       -0.2425256761
 DE(Corr)= -0.24057269     E(CORR)=     -33.888808977     Delta=-6.02D-03
 NORM(A)=   0.10457037D+01
 Iteration Nr.   3
 **********************
 DD1Dir will call FoFMem   1 times, MxPair=        72
 NAB=    36 NAA=     0 NBB=     0.
 A-vector RMS=  3.9483668D-04 Max=  1.2498075D-03 conv= 1.00D-05.
 RLE energy=       -0.2430793034
 DE(Corr)= -0.24262719     E(CORR)=     -33.890863483     Delta=-2.05D-03
 NORM(A)=   0.10462755D+01
 Iteration Nr.   4
 **********************
 DD1Dir will call FoFMem   1 times, MxPair=        72
 NAB=    36 NAA=     0 NBB=     0.
 A-vector RMS=  9.6245024D-05 Max=  2.8086785D-04 conv= 1.00D-05.
 RLE energy=       -0.2431273692
 DE(Corr)= -0.24309060     E(CORR)=     -33.891326892     Delta=-4.63D-04
 NORM(A)=   0.10463535D+01
 Iteration Nr.   5
 **********************
 DD1Dir will call FoFMem   1 times, MxPair=        72
 NAB=    36 NAA=     0 NBB=     0.
 A-vector RMS=  4.3613213D-05 Max=  1.6735423D-04 conv= 1.00D-05.
 RLE energy=       -0.2431255560
 DE(Corr)= -0.24312339     E(CORR)=     -33.891359679     Delta=-3.28D-05
 NORM(A)=   0.10463652D+01
 Iteration Nr.   6
 **********************
 DD1Dir will call FoFMem   1 times, MxPair=        72
 NAB=    36 NAA=     0 NBB=     0.
 A-vector RMS=  1.1969923D-05 Max=  4.7533141D-05 conv= 1.00D-05.
 RLE energy=       -0.2431245501
 DE(Corr)= -0.24312567     E(CORR)=     -33.891361959     Delta=-2.28D-06
 NORM(A)=   0.10463690D+01
 Iteration Nr.   7
 **********************
 DD1Dir will call FoFMem   1 times, MxPair=        72
 NAB=    36 NAA=     0 NBB=     0.
 A-vector RMS=  3.5258186D-06 Max=  1.5050220D-05 conv= 1.00D-05.
 RLE energy=       -0.2431255142
 DE(Corr)= -0.24312500     E(CORR)=     -33.891361289     Delta= 6.70D-07
 NORM(A)=   0.10463705D+01
 Iteration Nr.   8
 **********************
 DD1Dir will call FoFMem   1 times, MxPair=        72
 NAB=    36 NAA=     0 NBB=     0.
 A-vector RMS=  7.4130539D-07 Max=  3.4161325D-06 conv= 1.00D-05.
 RLE energy=       -0.2431249935
 DE(Corr)= -0.24312503     E(CORR)=     -33.891361323     Delta=-3.40D-08
 NORM(A)=   0.10463706D+01
 CI/CC converged in    8 iterations to DelEn=-3.40D-08 Conv= 1.00D-07 ErrA1= 7.41D-07 Conv= 1.00D-05
 Wavefunction amplitudes converged. E(Corr)=     -33.891361323    
 Largest amplitude= 2.99D-02
 IPart=  4 IA=    2   12.50% done.
 IPart=  2 IA=    3   24.17% done.
 IPart=  3 IA=    4   35.00% done.
 IPart=  3 IA=    5   45.00% done.
 IPart=  2 IA=    6   54.17% done.
 IPart=  4 IA=    7   62.50% done.
 IPart=  1 IA=    8   70.00% done.
 IPart=  3 IA=   10   82.50% done.
 IPart=  1 IA=   12   91.67% done.
 Time for triples=        0.25 seconds.
 T4(CCSD)= -0.31052080D-02
 T5(CCSD)=  0.52932657D-03
 CCSD(T)= -0.33893937204D+02
 Discarding MO integrals.
 Leave Link  913 at Sun Dec 10 06:26:37 2023, MaxMem=   536870912 cpu:               0.8 elap:               0.2
 (Enter /usr/site/hpc/x86_64/glibc-2.17/broadwell/gaussian/g16_a.03/pgi-16.5/g16/l601.exe)
 Copying SCF densities to generalized density rwf, IOpCl= 0 IROHF=0.

 **********************************************************************

            Population analysis using the SCF density.

 **********************************************************************

 Orbital symmetries:
       Occupied  (A') (A') (A') (A') (A') (A') (A") (A")
       Virtual   (A') (A') (A') (A') (A") (A") (A') (A') (A') (A')
                 (A') (A') (A') (A') (A') (A')
 The electronic state is 1-A'.
 Alpha  occ. eigenvalues --   -1.34372  -1.34356  -0.69994  -0.69977  -0.53995
 Alpha  occ. eigenvalues --   -0.53781  -0.48898  -0.48869
 Alpha virt. eigenvalues --    0.21046   0.21381   0.31400   0.31483   0.81465
 Alpha virt. eigenvalues --    0.81864   0.82201   0.87395   0.88109   0.88624
 Alpha virt. eigenvalues --    1.18382   1.18397   1.22825   1.22940   2.58368
 Alpha virt. eigenvalues --    2.58618
          Condensed to atoms (all electrons):
               1          2          3          4          5          6
     1  O    6.206975   0.260581   0.261190   0.000046   0.000001   0.000001
     2  H    0.260581   0.399377  -0.023820   0.000001  -0.000000  -0.000000
     3  H    0.261190  -0.023820   0.397695   0.000001  -0.000000  -0.000000
     4  O    0.000046   0.000001   0.000001   6.206938   0.260367   0.261379
     5  H    0.000001  -0.000000  -0.000000   0.260367   0.399760  -0.023829
     6  H    0.000001  -0.000000  -0.000000   0.261379  -0.023829   0.397420
 Mulliken charges:
               1
     1  O   -0.728794
     2  H    0.363861
     3  H    0.364934
     4  O   -0.728731
     5  H    0.363701
     6  H    0.365029
 Sum of Mulliken charges =   0.00000
 Mulliken charges with hydrogens summed into heavy atoms:
               1
     1  O    0.000001
     4  O   -0.000001
 Electronic spatial extent (au):  <R**2>=            331.4370
 Charge=              0.0000 electrons
 Dipole moment (field-independent basis, Debye):
    X=             -0.3418    Y=             -0.0233    Z=              0.0000  Tot=              0.3425
 Quadrupole moment (field-independent basis, Debye-Ang):
   XX=             -8.1115   YY=             10.9755   ZZ=            -14.9847
   XY=             -0.5322   XZ=              0.0000   YZ=              0.0000
 Traceless Quadrupole moment (field-independent basis, Debye-Ang):
   XX=             -4.0712   YY=             15.0157   ZZ=            -10.9445
   XY=             -0.5322   XZ=              0.0000   YZ=              0.0000
 Octapole moment (field-independent basis, Debye-Ang**2):
  XXX=             -0.5367  YYY=             -0.0612  ZZZ=              0.0000  XYY=             -0.2226
  XXY=             -0.1414  XXZ=              0.0000  XZZ=             -0.0638  YZZ=             -0.0045
  YYZ=              0.0000  XYZ=              0.0000
 Hexadecapole moment (field-independent basis, Debye-Ang**3):
 XXXX=            -12.0652 YYYY=           -140.3939 ZZZZ=            -12.2143 XXXY=             -0.9477
 XXXZ=              0.0000 YYYX=              1.7846 YYYZ=              0.0000 ZZZX=              0.0000
 ZZZY=              0.0000 XXYY=            -34.3371 XXZZ=             -4.6266 YYZZ=            -79.3085
 XXYZ=              0.0000 YYXZ=              0.0000 ZZXY=              0.0864
 N-N= 2.085799763942D+01 E-N=-1.234946567539D+02  KE= 2.676703161337D+01
 Symmetry A'   KE= 1.787965238599D+01
 Symmetry A"   KE= 8.887379227378D+00
 Leave Link  601 at Sun Dec 10 06:26:37 2023, MaxMem=   536870912 cpu:               0.1 elap:               0.0
 (Enter /usr/site/hpc/x86_64/glibc-2.17/broadwell/gaussian/g16_a.03/pgi-16.5/g16/l9999.exe)
 1\1\GINC-N045\SP\RCCSD(T)-FC\CEP-31G\H4O2\ROOT\10-Dec-2023\0\\#p CCSD(
 T)/CEP-31G\\H2O_H2O_2602\\0,1\O,0,0.,-0.009833,0.\H,0,-0.799571,-0.580
 965,0.\H,0,0.799571,-0.580965,0.\O,0,-0.001283,4.36283,0.\H,0,0.7169,5
 .033441,0.\H,0,-0.868562,4.824711,0.\\Version=ES64L-G16RevA.03\State=1
 -A'\HF=-33.6482363\MP2=-33.8768339\MP3=-33.8823378\MP4D=-33.8875396\MP
 4DQ=-33.8882621\MP4SDQ=-33.8903014\CCSD=-33.8913613\CCSD(T)=-33.893937
 2\RMSD=2.052e-10\PG=CS [SG(H4O2)]\\@


 "WOULD YOU TELL ME PLEASE, WHICH WAY I OUGHT TO WALK FROM HERE?"
 "THAT DEPENDS A GREAT DEAL ON WHERE YOU WANT TO GO," SAID THE CAT.
 "I DON'T MUCH CARE WHERE -- ", SAID ALICE.
 "THEN IT DOESN'T MATTER WHICH WAY YOU WALK," SAID THE CAT.

                                      -- LEWIS CARROLL
 Job cpu time:       0 days  0 hours  0 minutes  3.3 seconds.
 Elapsed time:       0 days  0 hours  0 minutes  1.0 seconds.
 File lengths (MBytes):  RWF=     72 Int=      0 D2E=      0 Chk=      8 Scr=      8
 Normal termination of Gaussian 16 at Sun Dec 10 06:26:37 2023.
