 Entering Gaussian System, Link 0=g16
 Input=H2O_H2O_721.com
 Output=H2O_H2O_721.log
 Initial command:
 /usr/site/hpc/x86_64/glibc-2.17/broadwell/gaussian/g16_a.03/pgi-16.5/g16/l1.exe "/gpfs/gpfs1/scratch/c7441090/OO Coord/Gau-1223426.inp" -scrdir="/gpfs/gpfs1/scratch/c7441090/OO Coord/"
 Entering Link 1 = /usr/site/hpc/x86_64/glibc-2.17/broadwell/gaussian/g16_a.03/pgi-16.5/g16/l1.exe PID=   1223430.
  
 Copyright (c) 1988,1990,1992,1993,1995,1998,2003,2009,2016,
            Gaussian, Inc.  All Rights Reserved.
  
 This is part of the Gaussian(R) 16 program.  It is based on
 the Gaussian(R) 09 system (copyright 2009, Gaussian, Inc.),
 the Gaussian(R) 03 system (copyright 2003, Gaussian, Inc.),
 the Gaussian(R) 98 system (copyright 1998, Gaussian, Inc.),
 the Gaussian(R) 94 system (copyright 1995, Gaussian, Inc.),
 the Gaussian 92(TM) system (copyright 1992, Gaussian, Inc.),
 the Gaussian 90(TM) system (copyright 1990, Gaussian, Inc.),
 the Gaussian 88(TM) system (copyright 1988, Gaussian, Inc.),
 the Gaussian 86(TM) system (copyright 1986, Carnegie Mellon
 University), and the Gaussian 82(TM) system (copyright 1983,
 Carnegie Mellon University). Gaussian is a federally registered
 trademark of Gaussian, Inc.
  
 This software contains proprietary and confidential information,
 including trade secrets, belonging to Gaussian, Inc.
  
 This software is provided under written license and may be
 used, copied, transmitted, or stored only in accord with that
 written license.
  
 The following legend is applicable only to US Government
 contracts under FAR:
  
                    RESTRICTED RIGHTS LEGEND
  
 Use, reproduction and disclosure by the US Government is
 subject to restrictions as set forth in subparagraphs (a)
 and (c) of the Commercial Computer Software - Restricted
 Rights clause in FAR 52.227-19.
  
 Gaussian, Inc.
 340 Quinnipiac St., Bldg. 40, Wallingford CT 06492
  
  
 ---------------------------------------------------------------
 Warning -- This program may not be used in any manner that
 competes with the business of Gaussian, Inc. or will provide
 assistance to any competitor of Gaussian, Inc.  The licensee
 of this program is prohibited from giving any competitor of
 Gaussian, Inc. access to this program.  By using this program,
 the user acknowledges that Gaussian, Inc. is engaged in the
 business of creating and licensing software in the field of
 computational chemistry and represents and warrants to the
 licensee that it is not a competitor of Gaussian, Inc. and that
 it will not use this program in any manner prohibited above.
 ---------------------------------------------------------------
  

 Cite this work as:
 Gaussian 16, Revision A.03,
 M. J. Frisch, G. W. Trucks, H. B. Schlegel, G. E. Scuseria, 
 M. A. Robb, J. R. Cheeseman, G. Scalmani, V. Barone, 
 G. A. Petersson, H. Nakatsuji, X. Li, M. Caricato, A. V. Marenich, 
 J. Bloino, B. G. Janesko, R. Gomperts, B. Mennucci, H. P. Hratchian, 
 J. V. Ortiz, A. F. Izmaylov, J. L. Sonnenberg, D. Williams-Young, 
 F. Ding, F. Lipparini, F. Egidi, J. Goings, B. Peng, A. Petrone, 
 T. Henderson, D. Ranasinghe, V. G. Zakrzewski, J. Gao, N. Rega, 
 G. Zheng, W. Liang, M. Hada, M. Ehara, K. Toyota, R. Fukuda, 
 J. Hasegawa, M. Ishida, T. Nakajima, Y. Honda, O. Kitao, H. Nakai, 
 T. Vreven, K. Throssell, J. A. Montgomery, Jr., J. E. Peralta, 
 F. Ogliaro, M. J. Bearpark, J. J. Heyd, E. N. Brothers, K. N. Kudin, 
 V. N. Staroverov, T. A. Keith, R. Kobayashi, J. Normand, 
 K. Raghavachari, A. P. Rendell, J. C. Burant, S. S. Iyengar, 
 J. Tomasi, M. Cossi, J. M. Millam, M. Klene, C. Adamo, R. Cammi, 
 J. W. Ochterski, R. L. Martin, K. Morokuma, O. Farkas, 
 J. B. Foresman, and D. J. Fox, Gaussian, Inc., Wallingford CT, 2016.
 
 ******************************************
 Gaussian 16:  ES64L-G16RevA.03 25-Dec-2016
                10-Dec-2023 
 ******************************************
 %NProcShared=4
 Will use up to    4 processors via shared memory.
 %Mem=4GB
 %Chk=H2O_H2O_721.chk
 ------------------
 #p CCSD(T)/CEP-31G
 ------------------
 1/38=1,172=1/1;
 2/12=2,17=6,18=5,40=1/2;
 3/5=9,6=1,11=9,25=1,30=1/1,2,3;
 4//1;
 5/5=2,38=5/2;
 8/6=4,9=120000,10=1/1,4;
 9/5=7,14=2/13;
 6/7=2,8=2,9=2,10=2/1;
 99/5=1,9=1/99;
 Leave Link    1 at Sun Dec 10 06:38:12 2023, MaxMem=   536870912 cpu:               0.2 elap:               0.1
 (Enter /usr/site/hpc/x86_64/glibc-2.17/broadwell/gaussian/g16_a.03/pgi-16.5/g16/l101.exe)
 -----------
 H2O_H2O_721
 -----------
 Symbolic Z-matrix:
 Charge =  0 Multiplicity = 1
 O                     0.       -0.00983   0. 
 H                    -0.79957  -0.58097   0. 
 H                     0.79957  -0.58097   0. 
 O                    -0.00964   2.33402   0. 
 H                    -0.41381   3.22965   0. 
 H                    -0.72579   1.66124   0. 
 
 ITRead=  0  0  0  0  0  0
 MicOpt= -1 -1 -1 -1 -1 -1
 NAtoms=      6 NQM=        6 NQMF=       0 NMMI=      0 NMMIF=      0
                NMic=       0 NMicF=      0.
                    Isotopes and Nuclear Properties:
 (Nuclear quadrupole moments (NQMom) in fm**2, nuclear magnetic moments (NMagM)
  in nuclear magnetons)

  Atom         1           2           3           4           5           6
 IAtWgt=          16           1           1          16           1           1
 AtmWgt=  15.9949146   1.0078250   1.0078250  15.9949146   1.0078250   1.0078250
 NucSpn=           0           1           1           0           1           1
 AtZEff=  -0.0000000  -0.0000000  -0.0000000  -0.0000000  -0.0000000  -0.0000000
 NQMom=    0.0000000   0.0000000   0.0000000   0.0000000   0.0000000   0.0000000
 NMagM=    0.0000000   2.7928460   2.7928460   0.0000000   2.7928460   2.7928460
 AtZNuc=   8.0000000   1.0000000   1.0000000   8.0000000   1.0000000   1.0000000
 Leave Link  101 at Sun Dec 10 06:38:12 2023, MaxMem=   536870912 cpu:               0.3 elap:               0.1
 (Enter /usr/site/hpc/x86_64/glibc-2.17/broadwell/gaussian/g16_a.03/pgi-16.5/g16/l202.exe)
                          Input orientation:                          
 ---------------------------------------------------------------------
 Center     Atomic      Atomic             Coordinates (Angstroms)
 Number     Number       Type             X           Y           Z
 ---------------------------------------------------------------------
      1          8           0        0.000000   -0.009833    0.000000
      2          1           0       -0.799571   -0.580965    0.000000
      3          1           0        0.799571   -0.580965    0.000000
      4          8           0       -0.009644    2.334021    0.000000
      5          1           0       -0.413813    3.229651    0.000000
      6          1           0       -0.725791    1.661236    0.000000
 ---------------------------------------------------------------------
                    Distance matrix (angstroms):
                    1          2          3          4          5
     1  O    0.000000
     2  H    0.982601   0.000000
     3  H    0.982601   1.599142   0.000000
     4  O    2.343874   3.020121   3.025223   0.000000
     5  H    3.265807   3.830092   3.999137   0.982601   0.000000
     6  H    1.821879   2.243415   2.711862   0.982602   1.599142
                    6
     6  H    0.000000
 Stoichiometry    H4O2
 Framework group  CS[SG(H4O2)]
 Deg. of freedom     9
 Full point group                 CS      NOp   2
 Largest Abelian subgroup         CS      NOp   2
 Largest concise Abelian subgroup C1      NOp   1
                         Standard orientation:                         
 ---------------------------------------------------------------------
 Center     Atomic      Atomic             Coordinates (Angstroms)
 Number     Number       Type             X           Y           Z
 ---------------------------------------------------------------------
      1          8           0        0.056204   -1.126197    0.000000
      2          1           0       -0.745710   -1.694034    0.000000
      3          1           0        0.853419   -1.700614    0.000000
      4          8           0        0.056204    1.217677    0.000000
      5          1           0       -0.344276    2.114962    0.000000
      6          1           0       -0.662705    0.547844    0.000000
 ---------------------------------------------------------------------
 Rotational constants (GHZ):         265.0083002           9.2502235           8.9382309
 Leave Link  202 at Sun Dec 10 06:38:12 2023, MaxMem=   536870912 cpu:               0.1 elap:               0.0
 (Enter /usr/site/hpc/x86_64/glibc-2.17/broadwell/gaussian/g16_a.03/pgi-16.5/g16/l301.exe)
 Standard basis: CEP-31G (6D, 10F)
 Ernie: Thresh=  0.10000D-02 Tol=  0.10000D-05 Strict=F.
 There are    20 symmetry adapted cartesian basis functions of A'  symmetry.
 There are     4 symmetry adapted cartesian basis functions of A"  symmetry.
 There are    20 symmetry adapted basis functions of A'  symmetry.
 There are     4 symmetry adapted basis functions of A"  symmetry.
    24 basis functions,    48 primitive gaussians,    24 cartesian basis functions
     8 alpha electrons        8 beta electrons
       nuclear repulsion energy        27.2319786277 Hartrees.
 IExCor=    0 DFT=F Ex=HF Corr=None ExCW=0 ScaHFX=  1.000000
 ScaDFX=  1.000000  1.000000  1.000000  1.000000 ScalE2=  1.000000  1.000000
 IRadAn=      5 IRanWt=     -1 IRanGd=            0 ICorTp=0 IEmpDi=  4
 NAtoms=    6 NActive=    6 NUniq=    6 SFac= 1.00D+00 NAtFMM=   60 NAOKFM=F Big=F
 Integral buffers will be    131072 words long.
 Raffenetti 1 integral format.
 Two-electron integral symmetry is turned on.
 Leave Link  301 at Sun Dec 10 06:38:12 2023, MaxMem=   536870912 cpu:               0.2 elap:               0.1
 (Enter /usr/site/hpc/x86_64/glibc-2.17/broadwell/gaussian/g16_a.03/pgi-16.5/g16/l302.exe)
 NPDir=0 NMtPBC=     1 NCelOv=     1 NCel=       1 NClECP=     1 NCelD=      1
         NCelK=      1 NCelE2=     1 NClLst=     1 CellRange=     0.0.
 One-electron integrals computed using PRISM.
 One-electron integral symmetry used in STVInt
   2 Symmetry operations used in ECPInt.
 ECPInt:  NShTT=      78 NPrTT=     318 LenC2=      79 LenP2D=     293.
 LDataN:  DoStor=T MaxTD1= 2 Len=   12
 NBasis=    24 RedAO= T EigKep=  2.78D-02  NBF=    20     4
 NBsUse=    24 1.00D-06 EigRej= -1.00D+00 NBFU=    20     4
 Leave Link  302 at Sun Dec 10 06:38:12 2023, MaxMem=   536870912 cpu:               0.3 elap:               0.1
 (Enter /usr/site/hpc/x86_64/glibc-2.17/broadwell/gaussian/g16_a.03/pgi-16.5/g16/l303.exe)
 DipDrv:  MaxL=1.
 Leave Link  303 at Sun Dec 10 06:38:12 2023, MaxMem=   536870912 cpu:               0.1 elap:               0.0
 (Enter /usr/site/hpc/x86_64/glibc-2.17/broadwell/gaussian/g16_a.03/pgi-16.5/g16/l401.exe)
 ExpMin= 1.78D-01 ExpMax= 1.92D+01 ExpMxC= 1.92D+01 IAcc=3 IRadAn=         5 AccDes= 0.00D+00
 Harris functional with IExCor=  205 and IRadAn=       5 diagonalized for initial guess.
 HarFok:  IExCor=  205 AccDes= 0.00D+00 IRadAn=         5 IDoV= 1 UseB2=F ITyADJ=14
 ICtDFT=  3500011 ScaDFX=  1.000000  1.000000  1.000000  1.000000
 FoFCou: FMM=F IPFlag=           0 FMFlag=      100000 FMFlg1=           0
         NFxFlg=           0 DoJE=T BraDBF=F KetDBF=T FulRan=T
         wScrn=  0.000000 ICntrl=       500 IOpCl=  0 I1Cent=   200000004 NGrid=           0
         NMat0=    1 NMatS0=      1 NMatT0=    0 NMatD0=    1 NMtDS0=    0 NMtDT0=    0
 Petite list used in FoFCou.
 Harris En= -34.4756506979985    
 JPrj=0 DoOrth=F DoCkMO=F.
 Initial guess orbital symmetries:
       Occupied  (A') (A') (A') (A') (A') (A') (A") (A")
       Virtual   (A') (A') (A') (A') (A") (A') (A") (A') (A') (A')
                 (A') (A') (A') (A') (A') (A')
 The electronic state of the initial guess is 1-A'.
 Leave Link  401 at Sun Dec 10 06:38:12 2023, MaxMem=   536870912 cpu:               0.4 elap:               0.1
 (Enter /usr/site/hpc/x86_64/glibc-2.17/broadwell/gaussian/g16_a.03/pgi-16.5/g16/l502.exe)
 Keep R1 ints in memory in symmetry-blocked form, NReq=852687.
 FoFCou: FMM=F IPFlag=           0 FMFlag=           0 FMFlg1=           0
         NFxFlg=           0 DoJE=F BraDBF=F KetDBF=F FulRan=T
         wScrn=  0.000000 ICntrl=       600 IOpCl=  0 I1Cent=           0 NGrid=           0
         NMat0=    1 NMatS0=    300 NMatT0=    0 NMatD0=    1 NMtDS0=    0 NMtDT0=    0
 Petite list used in FoFCou.
 Closed shell SCF:
 Using DIIS extrapolation, IDIIS=  1040.
 NGot=   536870912 LenX=   536840576 LenY=   536839559
 Requested convergence on RMS density matrix=1.00D-08 within 128 cycles.
 Requested convergence on MAX density matrix=1.00D-06.
 Requested convergence on             energy=1.00D-06.
 No special actions if energy rises.

 Cycle   1  Pass 1  IDiag  1:
 E= -33.5420840046107    
 DIIS: error= 5.33D-02 at cycle   1 NSaved=   1.
 NSaved= 1 IEnMin= 1 EnMin= -33.5420840046107     IErMin= 1 ErrMin= 5.33D-02
 ErrMax= 5.33D-02  0.00D+00 EMaxC= 1.00D-01 BMatC= 1.03D-01 BMatP= 1.03D-01
 IDIUse=3 WtCom= 4.67D-01 WtEn= 5.33D-01
 Coeff-Com:  0.100D+01
 Coeff-En:   0.100D+01
 Coeff:      0.100D+01
 Gap=     0.558 Goal=   None    Shift=    0.000
 GapD=    0.558 DampG=2.000 DampE=0.500 DampFc=1.0000 IDamp=-1.
 RMSDP=1.62D-02 MaxDP=1.22D-01              OVMax= 1.04D-01

 Cycle   2  Pass 1  IDiag  1:
 E= -33.6073000421825     Delta-E=       -0.065216037572 Rises=F Damp=F
 DIIS: error= 3.72D-02 at cycle   2 NSaved=   2.
 NSaved= 2 IEnMin= 2 EnMin= -33.6073000421825     IErMin= 2 ErrMin= 3.72D-02
 ErrMax= 3.72D-02  0.00D+00 EMaxC= 1.00D-01 BMatC= 3.85D-02 BMatP= 1.03D-01
 IDIUse=3 WtCom= 6.28D-01 WtEn= 3.72D-01
 Coeff-Com:  0.376D+00 0.624D+00
 Coeff-En:   0.891D-01 0.911D+00
 Coeff:      0.269D+00 0.731D+00
 Gap=     0.653 Goal=   None    Shift=    0.000
 RMSDP=6.82D-03 MaxDP=5.85D-02 DE=-6.52D-02 OVMax= 3.83D-02

 Cycle   3  Pass 1  IDiag  1:
 E= -33.6376899230179     Delta-E=       -0.030389880835 Rises=F Damp=F
 DIIS: error= 5.21D-03 at cycle   3 NSaved=   3.
 NSaved= 3 IEnMin= 3 EnMin= -33.6376899230179     IErMin= 3 ErrMin= 5.21D-03
 ErrMax= 5.21D-03  0.00D+00 EMaxC= 1.00D-01 BMatC= 1.07D-03 BMatP= 3.85D-02
 IDIUse=3 WtCom= 9.48D-01 WtEn= 5.21D-02
 Coeff-Com: -0.107D+00 0.577D-02 0.110D+01
 Coeff-En:   0.000D+00 0.000D+00 0.100D+01
 Coeff:     -0.101D+00 0.547D-02 0.110D+01
 Gap=     0.644 Goal=   None    Shift=    0.000
 RMSDP=1.25D-03 MaxDP=1.03D-02 DE=-3.04D-02 OVMax= 8.39D-03

 Cycle   4  Pass 1  IDiag  1:
 E= -33.6387397070161     Delta-E=       -0.001049783998 Rises=F Damp=F
 DIIS: error= 7.00D-04 at cycle   4 NSaved=   4.
 NSaved= 4 IEnMin= 4 EnMin= -33.6387397070161     IErMin= 4 ErrMin= 7.00D-04
 ErrMax= 7.00D-04  0.00D+00 EMaxC= 1.00D-01 BMatC= 6.44D-06 BMatP= 1.07D-03
 IDIUse=3 WtCom= 9.93D-01 WtEn= 7.00D-03
 Coeff-Com:  0.216D-01-0.218D-01-0.306D+00 0.131D+01
 Coeff-En:   0.000D+00 0.000D+00 0.000D+00 0.100D+01
 Coeff:      0.215D-01-0.216D-01-0.304D+00 0.130D+01
 Gap=     0.646 Goal=   None    Shift=    0.000
 RMSDP=2.41D-04 MaxDP=2.18D-03 DE=-1.05D-03 OVMax= 1.43D-03

 Cycle   5  Pass 1  IDiag  1:
 E= -33.6387537243797     Delta-E=       -0.000014017364 Rises=F Damp=F
 DIIS: error= 1.22D-04 at cycle   5 NSaved=   5.
 NSaved= 5 IEnMin= 5 EnMin= -33.6387537243797     IErMin= 5 ErrMin= 1.22D-04
 ErrMax= 1.22D-04  0.00D+00 EMaxC= 1.00D-01 BMatC= 7.31D-07 BMatP= 6.44D-06
 IDIUse=3 WtCom= 9.99D-01 WtEn= 1.22D-03
 Coeff-Com:  0.144D-01-0.701D-02-0.173D+00 0.388D+00 0.778D+00
 Coeff-En:   0.000D+00 0.000D+00 0.000D+00 0.000D+00 0.100D+01
 Coeff:      0.144D-01-0.700D-02-0.173D+00 0.388D+00 0.778D+00
 Gap=     0.646 Goal=   None    Shift=    0.000
 RMSDP=4.56D-05 MaxDP=4.40D-04 DE=-1.40D-05 OVMax= 2.92D-04

 Cycle   6  Pass 1  IDiag  1:
 E= -33.6387546008238     Delta-E=       -0.000000876444 Rises=F Damp=F
 DIIS: error= 3.09D-05 at cycle   6 NSaved=   6.
 NSaved= 6 IEnMin= 6 EnMin= -33.6387546008238     IErMin= 6 ErrMin= 3.09D-05
 ErrMax= 3.09D-05  0.00D+00 EMaxC= 1.00D-01 BMatC= 1.86D-08 BMatP= 7.31D-07
 IDIUse=1 WtCom= 1.00D+00 WtEn= 0.00D+00
 Coeff-Com: -0.353D-02 0.199D-02 0.434D-01-0.137D+00-0.959D-01 0.119D+01
 Coeff:     -0.353D-02 0.199D-02 0.434D-01-0.137D+00-0.959D-01 0.119D+01
 Gap=     0.646 Goal=   None    Shift=    0.000
 RMSDP=1.16D-05 MaxDP=1.12D-04 DE=-8.76D-07 OVMax= 7.84D-05

 Cycle   7  Pass 1  IDiag  1:
 E= -33.6387546413135     Delta-E=       -0.000000040490 Rises=F Damp=F
 DIIS: error= 4.14D-06 at cycle   7 NSaved=   7.
 NSaved= 7 IEnMin= 7 EnMin= -33.6387546413135     IErMin= 7 ErrMin= 4.14D-06
 ErrMax= 4.14D-06  0.00D+00 EMaxC= 1.00D-01 BMatC= 6.69D-10 BMatP= 1.86D-08
 IDIUse=1 WtCom= 1.00D+00 WtEn= 0.00D+00
 Coeff-Com:  0.883D-03-0.425D-03-0.105D-01 0.364D-01 0.133D-01-0.401D+00
 Coeff-Com:  0.136D+01
 Coeff:      0.883D-03-0.425D-03-0.105D-01 0.364D-01 0.133D-01-0.401D+00
 Coeff:      0.136D+01
 Gap=     0.646 Goal=   None    Shift=    0.000
 RMSDP=2.40D-06 MaxDP=2.19D-05 DE=-4.05D-08 OVMax= 1.84D-05

 Cycle   8  Pass 1  IDiag  1:
 E= -33.6387546431893     Delta-E=       -0.000000001876 Rises=F Damp=F
 DIIS: error= 9.03D-07 at cycle   8 NSaved=   8.
 NSaved= 8 IEnMin= 8 EnMin= -33.6387546431893     IErMin= 8 ErrMin= 9.03D-07
 ErrMax= 9.03D-07  0.00D+00 EMaxC= 1.00D-01 BMatC= 3.04D-11 BMatP= 6.69D-10
 IDIUse=1 WtCom= 1.00D+00 WtEn= 0.00D+00
 Coeff-Com:  0.240D-04-0.507D-04-0.463D-03 0.813D-03 0.375D-02 0.128D-01
 Coeff-Com: -0.281D+00 0.126D+01
 Coeff:      0.240D-04-0.507D-04-0.463D-03 0.813D-03 0.375D-02 0.128D-01
 Coeff:     -0.281D+00 0.126D+01
 Gap=     0.646 Goal=   None    Shift=    0.000
 RMSDP=5.82D-07 MaxDP=4.95D-06 DE=-1.88D-09 OVMax= 4.66D-06

 Cycle   9  Pass 1  IDiag  1:
 E= -33.6387546432784     Delta-E=       -0.000000000089 Rises=F Damp=F
 DIIS: error= 1.49D-07 at cycle   9 NSaved=   9.
 NSaved= 9 IEnMin= 9 EnMin= -33.6387546432784     IErMin= 9 ErrMin= 1.49D-07
 ErrMax= 1.49D-07  0.00D+00 EMaxC= 1.00D-01 BMatC= 1.02D-12 BMatP= 3.04D-11
 IDIUse=1 WtCom= 1.00D+00 WtEn= 0.00D+00
 Coeff-Com:  0.315D-05 0.102D-04 0.247D-04 0.143D-04-0.952D-03-0.471D-02
 Coeff-Com:  0.888D-01-0.485D+00 0.140D+01
 Coeff:      0.315D-05 0.102D-04 0.247D-04 0.143D-04-0.952D-03-0.471D-02
 Coeff:      0.888D-01-0.485D+00 0.140D+01
 Gap=     0.646 Goal=   None    Shift=    0.000
 RMSDP=1.57D-07 MaxDP=7.84D-07 DE=-8.90D-11 OVMax= 1.08D-06

 Cycle  10  Pass 1  IDiag  1:
 E= -33.6387546432816     Delta-E=       -0.000000000003 Rises=F Damp=F
 DIIS: error= 1.70D-08 at cycle  10 NSaved=  10.
 NSaved=10 IEnMin=10 EnMin= -33.6387546432816     IErMin=10 ErrMin= 1.70D-08
 ErrMax= 1.70D-08  0.00D+00 EMaxC= 1.00D-01 BMatC= 1.62D-14 BMatP= 1.02D-12
 IDIUse=1 WtCom= 1.00D+00 WtEn= 0.00D+00
 Coeff-Com:  0.208D-06-0.296D-05-0.171D-04 0.479D-04 0.233D-03 0.514D-03
 Coeff-Com: -0.193D-01 0.116D+00-0.433D+00 0.133D+01
 Coeff:      0.208D-06-0.296D-05-0.171D-04 0.479D-04 0.233D-03 0.514D-03
 Coeff:     -0.193D-01 0.116D+00-0.433D+00 0.133D+01
 Gap=     0.646 Goal=   None    Shift=    0.000
 RMSDP=2.19D-08 MaxDP=1.21D-07 DE=-3.27D-12 OVMax= 1.45D-07

 Cycle  11  Pass 1  IDiag  1:
 E= -33.6387546432817     Delta-E=       -0.000000000000 Rises=F Damp=F
 DIIS: error= 2.72D-09 at cycle  11 NSaved=  11.
 NSaved=11 IEnMin=11 EnMin= -33.6387546432817     IErMin=11 ErrMin= 2.72D-09
 ErrMax= 2.72D-09  0.00D+00 EMaxC= 1.00D-01 BMatC= 1.27D-16 BMatP= 1.62D-14
 IDIUse=1 WtCom= 1.00D+00 WtEn= 0.00D+00
 Coeff-Com: -0.144D-06 0.810D-06 0.553D-05-0.166D-04-0.653D-04-0.915D-04
 Coeff-Com:  0.500D-02-0.312D-01 0.120D+00-0.412D+00 0.132D+01
 Coeff:     -0.144D-06 0.810D-06 0.553D-05-0.166D-04-0.653D-04-0.915D-04
 Coeff:      0.500D-02-0.312D-01 0.120D+00-0.412D+00 0.132D+01
 Gap=     0.646 Goal=   None    Shift=    0.000
 RMSDP=1.34D-09 MaxDP=7.15D-09 DE=-4.26D-14 OVMax= 8.87D-09

 SCF Done:  E(RHF) =  -33.6387546433     A.U. after   11 cycles
            NFock= 11  Conv=0.13D-08     -V/T= 2.2532
 KE= 2.684208433428D+01 PE=-1.363866962345D+02 EE= 4.867387862925D+01
 Leave Link  502 at Sun Dec 10 06:38:12 2023, MaxMem=   536870912 cpu:               0.3 elap:               0.1
 (Enter /usr/site/hpc/x86_64/glibc-2.17/broadwell/gaussian/g16_a.03/pgi-16.5/g16/l801.exe)
 Windowed orbitals will be sorted by symmetry type.
 Range of M.O.s used for correlation:     1    24
 NBasis=    24 NAE=     8 NBE=     8 NFC=     0 NFV=     0
 NROrb=     24 NOA=     8 NOB=     8 NVA=    16 NVB=    16
 Leave Link  801 at Sun Dec 10 06:38:12 2023, MaxMem=   536870912 cpu:               0.1 elap:               0.0
 (Enter /usr/site/hpc/x86_64/glibc-2.17/broadwell/gaussian/g16_a.03/pgi-16.5/g16/l804.exe)
 Closed-shell transformation, MDV=   536870912 ITran=4 ISComp=2.
 Unit  1 TFree=       1025975 TCopy=        210600.
 Semi-Direct transformation.
 ModeAB=           2 MOrb=             8 LenV=     536741566
 LASXX=        22470 LTotXX=       22470 LenRXX=       22470
 LTotAB=       26208 MaxLAS=       57600 LenRXY=       57600
 NonZer=       62208 LenScr=      524288 LnRSAI=           0
 LnScr1=           0 LExtra=           0 Total=       604358
 MaxDsk=          -1 SrtSym=           F ITran=            4
 DoSDTr:  NPSUse=  4
 JobTyp=0 Pass  1:  I=   1 to   8.
 (rs|ai) integrals will be sorted in core.
 Complete sort for first half transformation.
 First half transformation complete.
 Complete sort for second half transformation.
 Second half transformation complete.
 Spin components of T(2) and E(2):
     alpha-alpha T2 =       0.9230672468D-02 E2=     -0.2648181709D-01
     alpha-beta  T2 =       0.6002774381D-01 E2=     -0.1776877170D+00
     beta-beta   T2 =       0.9230672468D-02 E2=     -0.2648181709D-01
 ANorm=    0.1038503293D+01
 E2 =    -0.2306513512D+00 EUMP2 =    -0.33869405994514D+02
 Leave Link  804 at Sun Dec 10 06:38:12 2023, MaxMem=   536870912 cpu:               0.2 elap:               0.1
 (Enter /usr/site/hpc/x86_64/glibc-2.17/broadwell/gaussian/g16_a.03/pgi-16.5/g16/l913.exe)
 CIDS:  MDV=   536870912.
 IFCWin=0 IBDFC=1 NFBD=     0     0 NFCmp=     0     0 NFFFC=     0     0
 Using DD3R+UMP44R for 1st iteration.
 Using DD4RQ for 2nd and later iterations.
 Keep R2 and R3 ints in memory in symmetry-blocked form, NReq=865295.
 FoFCou: FMM=F IPFlag=           0 FMFlag=           0 FMFlg1=           0
         NFxFlg=           0 DoJE=F BraDBF=F KetDBF=F FulRan=T
         wScrn=  0.000000 ICntrl=       600 IOpCl=  0 I1Cent=           0 NGrid=           0
         NMat0=    1 NMatS0=    300 NMatT0=    0 NMatD0=    1 NMtDS0=    0 NMtDT0=    0
 Petite list used in FoFCou.
 CIDS: In Core Option IDoMem=           1.
 CCSD(T)
 =======
 Iterations=  50 Convergence= 0.100D-06
 Produce multiple copies of IABC intergrals
 Iteration Nr.   1
 **********************
 DD1Dir will call FoFMem   1 times, MxPair=        72
 NAB=    36 NAA=     0 NBB=     0.
 MP4(R+Q)= -0.57036151D-03
 Maximum subspace dimension=  5
 A-vector RMS=  6.1205629D-03 Max=  1.3327195D-02 conv= 1.00D-05.
 RLE energy=       -0.2361778702
 E3=       -0.51067875D-02        EUMP3=      -0.33874512782D+02
 E4(DQ)=   -0.57542697D-02        UMP4(DQ)=   -0.33880267052D+02
 E4(SDQ)=  -0.79762442D-02        UMP4(SDQ)=  -0.33882489026D+02
 VARIATIONAL ENERGIES WITH THE FIRST-ORDER WAVEFUNCTION:
 DE(Corr)= -0.23604890     E(Corr)=     -33.874803542    
 NORM(A)=   0.10418539D+01
 Iteration Nr.   2
 **********************
 DD1Dir will call FoFMem   1 times, MxPair=        72
 NAB=    36 NAA=     0 NBB=     0.
 A-vector RMS=  9.9735808D-04 Max=  2.4621671D-03 conv= 1.00D-05.
 RLE energy=       -0.2440847043
 DE(Corr)= -0.24218656     E(CORR)=     -33.880941203     Delta=-6.14D-03
 NORM(A)=   0.10457472D+01
 Iteration Nr.   3
 **********************
 DD1Dir will call FoFMem   1 times, MxPair=        72
 NAB=    36 NAA=     0 NBB=     0.
 A-vector RMS=  4.5988630D-04 Max=  1.3876352D-03 conv= 1.00D-05.
 RLE energy=       -0.2446469068
 DE(Corr)= -0.24416944     E(CORR)=     -33.882924083     Delta=-1.98D-03
 NORM(A)=   0.10463591D+01
 Iteration Nr.   4
 **********************
 DD1Dir will call FoFMem   1 times, MxPair=        72
 NAB=    36 NAA=     0 NBB=     0.
 A-vector RMS=  1.0664279D-04 Max=  3.0476224D-04 conv= 1.00D-05.
 RLE energy=       -0.2447020449
 DE(Corr)= -0.24466330     E(CORR)=     -33.883417947     Delta=-4.94D-04
 NORM(A)=   0.10464466D+01
 Iteration Nr.   5
 **********************
 DD1Dir will call FoFMem   1 times, MxPair=        72
 NAB=    36 NAA=     0 NBB=     0.
 A-vector RMS=  4.5990080D-05 Max=  1.5532906D-04 conv= 1.00D-05.
 RLE energy=       -0.2447018757
 DE(Corr)= -0.24469810     E(CORR)=     -33.883452745     Delta=-3.48D-05
 NORM(A)=   0.10464596D+01
 Iteration Nr.   6
 **********************
 DD1Dir will call FoFMem   1 times, MxPair=        72
 NAB=    36 NAA=     0 NBB=     0.
 A-vector RMS=  1.7179172D-05 Max=  6.8454344D-05 conv= 1.00D-05.
 RLE energy=       -0.2446977117
 DE(Corr)= -0.24470123     E(CORR)=     -33.883455872     Delta=-3.13D-06
 NORM(A)=   0.10464625D+01
 Iteration Nr.   7
 **********************
 DD1Dir will call FoFMem   1 times, MxPair=        72
 NAB=    36 NAA=     0 NBB=     0.
 A-vector RMS=  5.6932871D-06 Max=  2.1331090D-05 conv= 1.00D-05.
 RLE energy=       -0.2446998832
 DE(Corr)= -0.24470078     E(CORR)=     -33.883455427     Delta= 4.45D-07
 NORM(A)=   0.10464647D+01
 Iteration Nr.   8
 **********************
 DD1Dir will call FoFMem   1 times, MxPair=        72
 NAB=    36 NAA=     0 NBB=     0.
 A-vector RMS=  1.9013493D-06 Max=  7.6696195D-06 conv= 1.00D-05.
 RLE energy=       -0.2447001008
 DE(Corr)= -0.24470027     E(CORR)=     -33.883454909     Delta= 5.18D-07
 NORM(A)=   0.10464654D+01
 Iteration Nr.   9
 **********************
 DD1Dir will call FoFMem   1 times, MxPair=        72
 NAB=    36 NAA=     0 NBB=     0.
 A-vector RMS=  5.0274459D-07 Max=  1.9669144D-06 conv= 1.00D-05.
 RLE energy=       -0.2447004465
 DE(Corr)= -0.24470046     E(CORR)=     -33.883455104     Delta=-1.95D-07
 NORM(A)=   0.10464657D+01
 Iteration Nr.  10
 **********************
 DD1Dir will call FoFMem   1 times, MxPair=        72
 NAB=    36 NAA=     0 NBB=     0.
 A-vector RMS=  1.4930067D-07 Max=  5.0501246D-07 conv= 1.00D-05.
 RLE energy=       -0.2447005892
 DE(Corr)= -0.24470055     E(CORR)=     -33.883455197     Delta=-9.30D-08
 NORM(A)=   0.10464659D+01
 CI/CC converged in   10 iterations to DelEn=-9.30D-08 Conv= 1.00D-07 ErrA1= 1.49D-07 Conv= 1.00D-05
 Wavefunction amplitudes converged. E(Corr)=     -33.883455197    
 Largest amplitude= 4.10D-02
 IPart=  4 IA=    2   12.50% done.
 IPart=  2 IA=    3   24.17% done.
 IPart=  3 IA=    4   35.00% done.
 IPart=  3 IA=    5   45.00% done.
 IPart=  2 IA=    6   54.17% done.
 IPart=  4 IA=    7   62.50% done.
 IPart=  1 IA=    8   70.00% done.
 IPart=  2 IA=   10   82.50% done.
 IPart=  3 IA=   12   91.67% done.
 Time for triples=        0.27 seconds.
 T4(CCSD)= -0.34170467D-02
 T5(CCSD)=  0.57003853D-03
 CCSD(T)= -0.33886302205D+02
 Discarding MO integrals.
 Leave Link  913 at Sun Dec 10 06:38:12 2023, MaxMem=   536870912 cpu:               1.0 elap:               0.3
 (Enter /usr/site/hpc/x86_64/glibc-2.17/broadwell/gaussian/g16_a.03/pgi-16.5/g16/l601.exe)
 Copying SCF densities to generalized density rwf, IOpCl= 0 IROHF=0.

 **********************************************************************

            Population analysis using the SCF density.

 **********************************************************************

 Orbital symmetries:
       Occupied  (A') (A') (A') (A') (A') (A") (A') (A")
       Virtual   (A') (A') (A') (A') (A") (A') (A") (A') (A') (A')
                 (A') (A') (A') (A') (A') (A')
 The electronic state is 1-A'.
 Alpha  occ. eigenvalues --   -1.36533  -1.30982  -0.72261  -0.68428  -0.54357
 Alpha  occ. eigenvalues --   -0.51086  -0.50720  -0.45476
 Alpha virt. eigenvalues --    0.19153   0.27024   0.29768   0.35714   0.77110
 Alpha virt. eigenvalues --    0.83841   0.89058   0.91492   0.97610   1.13468
 Alpha virt. eigenvalues --    1.19313   1.20080   1.25448   1.30999   2.74109
 Alpha virt. eigenvalues --    2.75812
          Condensed to atoms (all electrons):
               1          2          3          4          5          6
     1  O    6.340670   0.248743   0.279614  -0.077776   0.001933  -0.019328
     2  H    0.248743   0.406950  -0.021868   0.002975  -0.000066  -0.000141
     3  H    0.279614  -0.021868   0.331656   0.002669  -0.000063   0.000555
     4  O   -0.077776   0.002975   0.002669   6.273672   0.238507   0.268271
     5  H    0.001933  -0.000066  -0.000063   0.238507   0.452426  -0.020461
     6  H   -0.019328  -0.000141   0.000555   0.268271  -0.020461   0.387500
 Mulliken charges:
               1
     1  O   -0.773855
     2  H    0.363407
     3  H    0.407436
     4  O   -0.708317
     5  H    0.327725
     6  H    0.383604
 Sum of Mulliken charges =  -0.00000
 Mulliken charges with hydrogens summed into heavy atoms:
               1
     1  O   -0.003012
     4  O    0.003012
 Electronic spatial extent (au):  <R**2>=            124.8629
 Charge=             -0.0000 electrons
 Dipole moment (field-independent basis, Debye):
    X=             -2.3517    Y=             -2.4053    Z=              0.0000  Tot=              3.3639
 Quadrupole moment (field-independent basis, Debye-Ang):
   XX=            -10.0511   YY=             -3.9754   ZZ=            -15.0030
   XY=             -3.0275   XZ=              0.0000   YZ=              0.0000
 Traceless Quadrupole moment (field-independent basis, Debye-Ang):
   XX=             -0.3746   YY=              5.7011   ZZ=             -5.3265
   XY=             -3.0275   XZ=              0.0000   YZ=              0.0000
 Octapole moment (field-independent basis, Debye-Ang**2):
  XXX=             -1.0193  YYY=             -4.0362  ZZZ=              0.0000  XYY=             -3.0463
  XXY=             -4.5578  XXZ=              0.0000  XZZ=             -0.4159  YZZ=             -0.5041
  YYZ=              0.0000  XYZ=              0.0000
 Hexadecapole moment (field-independent basis, Debye-Ang**3):
 XXXX=            -12.6645 YYYY=            -81.3746 ZZZZ=            -12.2539 XXXY=             -0.2453
 XXXZ=              0.0000 YYYX=             -6.6433 YYYZ=              0.0000 ZZZX=              0.0000
 ZZZY=              0.0000 XXYY=            -16.7146 XXZZ=             -4.5484 YYZZ=            -26.5396
 XXYZ=              0.0000 YYXZ=              0.0000 ZZXY=              0.3626
 N-N= 2.723197862765D+01 E-N=-1.363866962390D+02  KE= 2.684208433428D+01
 Symmetry A'   KE= 1.798041347737D+01
 Symmetry A"   KE= 8.861670856910D+00
 Leave Link  601 at Sun Dec 10 06:38:13 2023, MaxMem=   536870912 cpu:               0.1 elap:               0.0
 (Enter /usr/site/hpc/x86_64/glibc-2.17/broadwell/gaussian/g16_a.03/pgi-16.5/g16/l9999.exe)
 1\1\GINC-N033\SP\RCCSD(T)-FC\CEP-31G\H4O2\ROOT\10-Dec-2023\0\\#p CCSD(
 T)/CEP-31G\\H2O_H2O_721\\0,1\O,0,0.,-0.009833,0.\H,0,-0.799571,-0.5809
 65,0.\H,0,0.799571,-0.580965,0.\O,0,-0.009644,2.334021,0.\H,0,-0.41381
 3,3.229651,0.\H,0,-0.725791,1.661236,0.\\Version=ES64L-G16RevA.03\Stat
 e=1-A'\HF=-33.6387546\MP2=-33.869406\MP3=-33.8745128\MP4D=-33.8796967\
 MP4DQ=-33.8802671\MP4SDQ=-33.882489\CCSD=-33.8834552\CCSD(T)=-33.88630
 22\RMSD=1.342e-09\PG=CS [SG(H4O2)]\\@


 AS FAR AS THE LAWS OF MATHEMATICS REFER TO REALITY,
 THEY ARE NOT CERTAIN; AND AS FAR AS THEY ARE CERTAIN,
 THEY DO NOT REFER TO REALITY.

                                         -- ALBERT EINSTEIN
 Job cpu time:       0 days  0 hours  0 minutes  3.4 seconds.
 Elapsed time:       0 days  0 hours  0 minutes  1.1 seconds.
 File lengths (MBytes):  RWF=     72 Int=      0 D2E=      0 Chk=      8 Scr=      8
 Normal termination of Gaussian 16 at Sun Dec 10 06:38:13 2023.
