 Entering Gaussian System, Link 0=g16
 Input=H2O_H2O_165.com
 Output=H2O_H2O_165.log
 Initial command:
 /usr/site/hpc/x86_64/glibc-2.17/broadwell/gaussian/g16_a.03/pgi-16.5/g16/l1.exe "/gpfs/gpfs1/scratch/c7441090/OO Coord/Gau-1173585.inp" -scrdir="/gpfs/gpfs1/scratch/c7441090/OO Coord/"
 Entering Link 1 = /usr/site/hpc/x86_64/glibc-2.17/broadwell/gaussian/g16_a.03/pgi-16.5/g16/l1.exe PID=   1173586.
  
 Copyright (c) 1988,1990,1992,1993,1995,1998,2003,2009,2016,
            Gaussian, Inc.  All Rights Reserved.
  
 This is part of the Gaussian(R) 16 program.  It is based on
 the Gaussian(R) 09 system (copyright 2009, Gaussian, Inc.),
 the Gaussian(R) 03 system (copyright 2003, Gaussian, Inc.),
 the Gaussian(R) 98 system (copyright 1998, Gaussian, Inc.),
 the Gaussian(R) 94 system (copyright 1995, Gaussian, Inc.),
 the Gaussian 92(TM) system (copyright 1992, Gaussian, Inc.),
 the Gaussian 90(TM) system (copyright 1990, Gaussian, Inc.),
 the Gaussian 88(TM) system (copyright 1988, Gaussian, Inc.),
 the Gaussian 86(TM) system (copyright 1986, Carnegie Mellon
 University), and the Gaussian 82(TM) system (copyright 1983,
 Carnegie Mellon University). Gaussian is a federally registered
 trademark of Gaussian, Inc.
  
 This software contains proprietary and confidential information,
 including trade secrets, belonging to Gaussian, Inc.
  
 This software is provided under written license and may be
 used, copied, transmitted, or stored only in accord with that
 written license.
  
 The following legend is applicable only to US Government
 contracts under FAR:
  
                    RESTRICTED RIGHTS LEGEND
  
 Use, reproduction and disclosure by the US Government is
 subject to restrictions as set forth in subparagraphs (a)
 and (c) of the Commercial Computer Software - Restricted
 Rights clause in FAR 52.227-19.
  
 Gaussian, Inc.
 340 Quinnipiac St., Bldg. 40, Wallingford CT 06492
  
  
 ---------------------------------------------------------------
 Warning -- This program may not be used in any manner that
 competes with the business of Gaussian, Inc. or will provide
 assistance to any competitor of Gaussian, Inc.  The licensee
 of this program is prohibited from giving any competitor of
 Gaussian, Inc. access to this program.  By using this program,
 the user acknowledges that Gaussian, Inc. is engaged in the
 business of creating and licensing software in the field of
 computational chemistry and represents and warrants to the
 licensee that it is not a competitor of Gaussian, Inc. and that
 it will not use this program in any manner prohibited above.
 ---------------------------------------------------------------
  

 Cite this work as:
 Gaussian 16, Revision A.03,
 M. J. Frisch, G. W. Trucks, H. B. Schlegel, G. E. Scuseria, 
 M. A. Robb, J. R. Cheeseman, G. Scalmani, V. Barone, 
 G. A. Petersson, H. Nakatsuji, X. Li, M. Caricato, A. V. Marenich, 
 J. Bloino, B. G. Janesko, R. Gomperts, B. Mennucci, H. P. Hratchian, 
 J. V. Ortiz, A. F. Izmaylov, J. L. Sonnenberg, D. Williams-Young, 
 F. Ding, F. Lipparini, F. Egidi, J. Goings, B. Peng, A. Petrone, 
 T. Henderson, D. Ranasinghe, V. G. Zakrzewski, J. Gao, N. Rega, 
 G. Zheng, W. Liang, M. Hada, M. Ehara, K. Toyota, R. Fukuda, 
 J. Hasegawa, M. Ishida, T. Nakajima, Y. Honda, O. Kitao, H. Nakai, 
 T. Vreven, K. Throssell, J. A. Montgomery, Jr., J. E. Peralta, 
 F. Ogliaro, M. J. Bearpark, J. J. Heyd, E. N. Brothers, K. N. Kudin, 
 V. N. Staroverov, T. A. Keith, R. Kobayashi, J. Normand, 
 K. Raghavachari, A. P. Rendell, J. C. Burant, S. S. Iyengar, 
 J. Tomasi, M. Cossi, J. M. Millam, M. Klene, C. Adamo, R. Cammi, 
 J. W. Ochterski, R. L. Martin, K. Morokuma, O. Farkas, 
 J. B. Foresman, and D. J. Fox, Gaussian, Inc., Wallingford CT, 2016.
 
 ******************************************
 Gaussian 16:  ES64L-G16RevA.03 25-Dec-2016
                10-Dec-2023 
 ******************************************
 %NProcShared=4
 Will use up to    4 processors via shared memory.
 %Mem=4GB
 %Chk=H2O_H2O_165.chk
 ------------------
 #p CCSD(T)/CEP-31G
 ------------------
 1/38=1,172=1/1;
 2/12=2,17=6,18=5,40=1/2;
 3/5=9,6=1,11=9,25=1,30=1/1,2,3;
 4//1;
 5/5=2,38=5/2;
 8/6=4,9=120000,10=1/1,4;
 9/5=7,14=2/13;
 6/7=2,8=2,9=2,10=2/1;
 99/5=1,9=1/99;
 Leave Link    1 at Sun Dec 10 06:27:48 2023, MaxMem=   536870912 cpu:               0.2 elap:               0.1
 (Enter /usr/site/hpc/x86_64/glibc-2.17/broadwell/gaussian/g16_a.03/pgi-16.5/g16/l101.exe)
 -----------
 H2O_H2O_165
 -----------
 Symbolic Z-matrix:
 Charge =  0 Multiplicity = 1
 O                     0.       -0.00983   0. 
 H                    -0.79957  -0.58097   0. 
 H                     0.79957  -0.58097   0. 
 O                    -0.00818   1.75255   0. 
 H                    -0.03884   2.73467   0. 
 H                    -0.92727   1.40503   0. 
 
 ITRead=  0  0  0  0  0  0
 MicOpt= -1 -1 -1 -1 -1 -1
 NAtoms=      6 NQM=        6 NQMF=       0 NMMI=      0 NMMIF=      0
                NMic=       0 NMicF=      0.
                    Isotopes and Nuclear Properties:
 (Nuclear quadrupole moments (NQMom) in fm**2, nuclear magnetic moments (NMagM)
  in nuclear magnetons)

  Atom         1           2           3           4           5           6
 IAtWgt=          16           1           1          16           1           1
 AtmWgt=  15.9949146   1.0078250   1.0078250  15.9949146   1.0078250   1.0078250
 NucSpn=           0           1           1           0           1           1
 AtZEff=  -0.0000000  -0.0000000  -0.0000000  -0.0000000  -0.0000000  -0.0000000
 NQMom=    0.0000000   0.0000000   0.0000000   0.0000000   0.0000000   0.0000000
 NMagM=    0.0000000   2.7928460   2.7928460   0.0000000   2.7928460   2.7928460
 AtZNuc=   8.0000000   1.0000000   1.0000000   8.0000000   1.0000000   1.0000000
 Leave Link  101 at Sun Dec 10 06:27:49 2023, MaxMem=   536870912 cpu:               0.3 elap:               0.1
 (Enter /usr/site/hpc/x86_64/glibc-2.17/broadwell/gaussian/g16_a.03/pgi-16.5/g16/l202.exe)
                          Input orientation:                          
 ---------------------------------------------------------------------
 Center     Atomic      Atomic             Coordinates (Angstroms)
 Number     Number       Type             X           Y           Z
 ---------------------------------------------------------------------
      1          8           0        0.000000   -0.009833    0.000000
      2          1           0       -0.799571   -0.580965    0.000000
      3          1           0        0.799571   -0.580965    0.000000
      4          8           0       -0.008176    1.752546    0.000000
      5          1           0       -0.038837    2.734669    0.000000
      6          1           0       -0.927273    1.405030    0.000000
 ---------------------------------------------------------------------
                    Distance matrix (angstroms):
                    1          2          3          4          5
     1  O    0.000000
     2  H    0.982601   0.000000
     3  H    0.982601   1.599142   0.000000
     4  O    1.762398   2.464058   2.469358   0.000000
     5  H    2.744777   3.401786   3.419994   0.982601   0.000000
     6  H    1.691648   1.990096   2.631761   0.982602   1.599143
                    6
     6  H    0.000000
 Stoichiometry    H4O2
 Framework group  CS[SG(H4O2)]
 Deg. of freedom     9
 Full point group                 CS      NOp   2
 Largest Abelian subgroup         CS      NOp   2
 Largest concise Abelian subgroup C1      NOp   1
                         Standard orientation:                         
 ---------------------------------------------------------------------
 Center     Atomic      Atomic             Coordinates (Angstroms)
 Number     Number       Type             X           Y           Z
 ---------------------------------------------------------------------
      1          8           0        0.047605   -0.856037    0.000000
      2          1           0       -0.754607   -1.423453    0.000000
      3          1           0        0.844518   -1.430872    0.000000
      4          8           0        0.047605    0.906361    0.000000
      5          1           0        0.021501    1.888616    0.000000
      6          1           0       -0.873094    0.563113    0.000000
 ---------------------------------------------------------------------
 Rotational constants (GHZ):         239.7574999          15.3674434          14.4417859
 Leave Link  202 at Sun Dec 10 06:27:49 2023, MaxMem=   536870912 cpu:               0.1 elap:               0.0
 (Enter /usr/site/hpc/x86_64/glibc-2.17/broadwell/gaussian/g16_a.03/pgi-16.5/g16/l301.exe)
 Standard basis: CEP-31G (6D, 10F)
 Ernie: Thresh=  0.10000D-02 Tol=  0.10000D-05 Strict=F.
 There are    20 symmetry adapted cartesian basis functions of A'  symmetry.
 There are     4 symmetry adapted cartesian basis functions of A"  symmetry.
 There are    20 symmetry adapted basis functions of A'  symmetry.
 There are     4 symmetry adapted basis functions of A"  symmetry.
    24 basis functions,    48 primitive gaussians,    24 cartesian basis functions
     8 alpha electrons        8 beta electrons
       nuclear repulsion energy        30.7815825959 Hartrees.
 IExCor=    0 DFT=F Ex=HF Corr=None ExCW=0 ScaHFX=  1.000000
 ScaDFX=  1.000000  1.000000  1.000000  1.000000 ScalE2=  1.000000  1.000000
 IRadAn=      5 IRanWt=     -1 IRanGd=            0 ICorTp=0 IEmpDi=  4
 NAtoms=    6 NActive=    6 NUniq=    6 SFac= 1.00D+00 NAtFMM=   60 NAOKFM=F Big=F
 Integral buffers will be    131072 words long.
 Raffenetti 1 integral format.
 Two-electron integral symmetry is turned on.
 Leave Link  301 at Sun Dec 10 06:27:49 2023, MaxMem=   536870912 cpu:               0.2 elap:               0.1
 (Enter /usr/site/hpc/x86_64/glibc-2.17/broadwell/gaussian/g16_a.03/pgi-16.5/g16/l302.exe)
 NPDir=0 NMtPBC=     1 NCelOv=     1 NCel=       1 NClECP=     1 NCelD=      1
         NCelK=      1 NCelE2=     1 NClLst=     1 CellRange=     0.0.
 One-electron integrals computed using PRISM.
 One-electron integral symmetry used in STVInt
   2 Symmetry operations used in ECPInt.
 ECPInt:  NShTT=      78 NPrTT=     318 LenC2=      79 LenP2D=     299.
 LDataN:  DoStor=T MaxTD1= 2 Len=   12
 NBasis=    24 RedAO= T EigKep=  2.86D-02  NBF=    20     4
 NBsUse=    24 1.00D-06 EigRej= -1.00D+00 NBFU=    20     4
 Leave Link  302 at Sun Dec 10 06:27:49 2023, MaxMem=   536870912 cpu:               0.3 elap:               0.1
 (Enter /usr/site/hpc/x86_64/glibc-2.17/broadwell/gaussian/g16_a.03/pgi-16.5/g16/l303.exe)
 DipDrv:  MaxL=1.
 Leave Link  303 at Sun Dec 10 06:27:49 2023, MaxMem=   536870912 cpu:               0.1 elap:               0.0
 (Enter /usr/site/hpc/x86_64/glibc-2.17/broadwell/gaussian/g16_a.03/pgi-16.5/g16/l401.exe)
 ExpMin= 1.78D-01 ExpMax= 1.92D+01 ExpMxC= 1.92D+01 IAcc=3 IRadAn=         5 AccDes= 0.00D+00
 Harris functional with IExCor=  205 and IRadAn=       5 diagonalized for initial guess.
 HarFok:  IExCor=  205 AccDes= 0.00D+00 IRadAn=         5 IDoV= 1 UseB2=F ITyADJ=14
 ICtDFT=  3500011 ScaDFX=  1.000000  1.000000  1.000000  1.000000
 FoFCou: FMM=F IPFlag=           0 FMFlag=      100000 FMFlg1=           0
         NFxFlg=           0 DoJE=T BraDBF=F KetDBF=T FulRan=T
         wScrn=  0.000000 ICntrl=       500 IOpCl=  0 I1Cent=   200000004 NGrid=           0
         NMat0=    1 NMatS0=      1 NMatT0=    0 NMatD0=    1 NMtDS0=    0 NMtDT0=    0
 Petite list used in FoFCou.
 Harris En= -34.3965123562292    
 JPrj=0 DoOrth=F DoCkMO=F.
 Initial guess orbital symmetries:
       Occupied  (A') (A') (A') (A') (A') (A") (A") (A')
       Virtual   (A') (A') (A') (A') (A") (A') (A") (A') (A') (A')
                 (A') (A') (A') (A') (A') (A')
 The electronic state of the initial guess is 1-A'.
 Leave Link  401 at Sun Dec 10 06:27:49 2023, MaxMem=   536870912 cpu:               0.4 elap:               0.1
 (Enter /usr/site/hpc/x86_64/glibc-2.17/broadwell/gaussian/g16_a.03/pgi-16.5/g16/l502.exe)
 Keep R1 ints in memory in symmetry-blocked form, NReq=852760.
 FoFCou: FMM=F IPFlag=           0 FMFlag=           0 FMFlg1=           0
         NFxFlg=           0 DoJE=F BraDBF=F KetDBF=F FulRan=T
         wScrn=  0.000000 ICntrl=       600 IOpCl=  0 I1Cent=           0 NGrid=           0
         NMat0=    1 NMatS0=    300 NMatT0=    0 NMatD0=    1 NMtDS0=    0 NMtDT0=    0
 Petite list used in FoFCou.
 Closed shell SCF:
 Using DIIS extrapolation, IDIIS=  1040.
 NGot=   536870912 LenX=   536840576 LenY=   536839559
 Requested convergence on RMS density matrix=1.00D-08 within 128 cycles.
 Requested convergence on MAX density matrix=1.00D-06.
 Requested convergence on             energy=1.00D-06.
 No special actions if energy rises.

 Cycle   1  Pass 1  IDiag  1:
 E= -33.4212277699892    
 DIIS: error= 6.17D-02 at cycle   1 NSaved=   1.
 NSaved= 1 IEnMin= 1 EnMin= -33.4212277699892     IErMin= 1 ErrMin= 6.17D-02
 ErrMax= 6.17D-02  0.00D+00 EMaxC= 1.00D-01 BMatC= 1.27D-01 BMatP= 1.27D-01
 IDIUse=3 WtCom= 3.83D-01 WtEn= 6.17D-01
 Coeff-Com:  0.100D+01
 Coeff-En:   0.100D+01
 Coeff:      0.100D+01
 Gap=     0.487 Goal=   None    Shift=    0.000
 GapD=    0.487 DampG=2.000 DampE=0.500 DampFc=1.0000 IDamp=-1.
 RMSDP=2.31D-02 MaxDP=1.41D-01              OVMax= 1.37D-01

 Cycle   2  Pass 1  IDiag  1:
 E= -33.4910521229487     Delta-E=       -0.069824352959 Rises=F Damp=F
 DIIS: error= 4.72D-02 at cycle   2 NSaved=   2.
 NSaved= 2 IEnMin= 2 EnMin= -33.4910521229487     IErMin= 2 ErrMin= 4.72D-02
 ErrMax= 4.72D-02  0.00D+00 EMaxC= 1.00D-01 BMatC= 5.91D-02 BMatP= 1.27D-01
 IDIUse=3 WtCom= 5.28D-01 WtEn= 4.72D-01
 Coeff-Com:  0.403D+00 0.597D+00
 Coeff-En:   0.195D+00 0.805D+00
 Coeff:      0.305D+00 0.695D+00
 Gap=     0.614 Goal=   None    Shift=    0.000
 RMSDP=1.11D-02 MaxDP=6.68D-02 DE=-6.98D-02 OVMax= 6.16D-02

 Cycle   3  Pass 1  IDiag  1:
 E= -33.5375671989601     Delta-E=       -0.046515076011 Rises=F Damp=F
 DIIS: error= 7.05D-03 at cycle   3 NSaved=   3.
 NSaved= 3 IEnMin= 3 EnMin= -33.5375671989601     IErMin= 3 ErrMin= 7.05D-03
 ErrMax= 7.05D-03  0.00D+00 EMaxC= 1.00D-01 BMatC= 1.44D-03 BMatP= 5.91D-02
 IDIUse=3 WtCom= 9.30D-01 WtEn= 7.05D-02
 Coeff-Com: -0.115D+00 0.335D-02 0.111D+01
 Coeff-En:   0.000D+00 0.000D+00 0.100D+01
 Coeff:     -0.107D+00 0.311D-02 0.110D+01
 Gap=     0.603 Goal=   None    Shift=    0.000
 RMSDP=1.58D-03 MaxDP=1.12D-02 DE=-4.65D-02 OVMax= 9.87D-03

 Cycle   4  Pass 1  IDiag  1:
 E= -33.5389435378439     Delta-E=       -0.001376338884 Rises=F Damp=F
 DIIS: error= 9.21D-04 at cycle   4 NSaved=   4.
 NSaved= 4 IEnMin= 4 EnMin= -33.5389435378439     IErMin= 4 ErrMin= 9.21D-04
 ErrMax= 9.21D-04  0.00D+00 EMaxC= 1.00D-01 BMatC= 8.41D-06 BMatP= 1.44D-03
 IDIUse=3 WtCom= 9.91D-01 WtEn= 9.21D-03
 Coeff-Com:  0.364D-01-0.227D-01-0.434D+00 0.142D+01
 Coeff-En:   0.000D+00 0.000D+00 0.000D+00 0.100D+01
 Coeff:      0.360D-01-0.225D-01-0.430D+00 0.142D+01
 Gap=     0.603 Goal=   None    Shift=    0.000
 RMSDP=2.94D-04 MaxDP=2.25D-03 DE=-1.38D-03 OVMax= 1.34D-03

 Cycle   5  Pass 1  IDiag  1:
 E= -33.5389612933284     Delta-E=       -0.000017755485 Rises=F Damp=F
 DIIS: error= 9.09D-05 at cycle   5 NSaved=   5.
 NSaved= 5 IEnMin= 5 EnMin= -33.5389612933284     IErMin= 5 ErrMin= 9.09D-05
 ErrMax= 9.09D-05  0.00D+00 EMaxC= 1.00D-01 BMatC= 2.63D-07 BMatP= 8.41D-06
 IDIUse=1 WtCom= 1.00D+00 WtEn= 0.00D+00
 Coeff-Com:  0.886D-02-0.453D-02-0.102D+00 0.227D+00 0.870D+00
 Coeff:      0.886D-02-0.453D-02-0.102D+00 0.227D+00 0.870D+00
 Gap=     0.603 Goal=   None    Shift=    0.000
 RMSDP=4.29D-05 MaxDP=3.27D-04 DE=-1.78D-05 OVMax= 2.66D-04

 Cycle   6  Pass 1  IDiag  1:
 E= -33.5389617105568     Delta-E=       -0.000000417228 Rises=F Damp=F
 DIIS: error= 2.96D-05 at cycle   6 NSaved=   6.
 NSaved= 6 IEnMin= 6 EnMin= -33.5389617105568     IErMin= 6 ErrMin= 2.96D-05
 ErrMax= 2.96D-05  0.00D+00 EMaxC= 1.00D-01 BMatC= 3.18D-08 BMatP= 2.63D-07
 IDIUse=1 WtCom= 1.00D+00 WtEn= 0.00D+00
 Coeff-Com: -0.326D-02 0.200D-02 0.395D-01-0.146D+00 0.103D+00 0.101D+01
 Coeff:     -0.326D-02 0.200D-02 0.395D-01-0.146D+00 0.103D+00 0.101D+01
 Gap=     0.603 Goal=   None    Shift=    0.000
 RMSDP=2.03D-05 MaxDP=1.11D-04 DE=-4.17D-07 OVMax= 1.36D-04

 Cycle   7  Pass 1  IDiag  1:
 E= -33.5389617713821     Delta-E=       -0.000000060825 Rises=F Damp=F
 DIIS: error= 9.78D-06 at cycle   7 NSaved=   7.
 NSaved= 7 IEnMin= 7 EnMin= -33.5389617713821     IErMin= 7 ErrMin= 9.78D-06
 ErrMax= 9.78D-06  0.00D+00 EMaxC= 1.00D-01 BMatC= 1.34D-09 BMatP= 3.18D-08
 IDIUse=1 WtCom= 1.00D+00 WtEn= 0.00D+00
 Coeff-Com:  0.855D-03-0.484D-03-0.995D-02 0.409D-01-0.627D-01-0.348D+00
 Coeff-Com:  0.138D+01
 Coeff:      0.855D-03-0.484D-03-0.995D-02 0.409D-01-0.627D-01-0.348D+00
 Coeff:      0.138D+01
 Gap=     0.603 Goal=   None    Shift=    0.000
 RMSDP=7.37D-06 MaxDP=4.30D-05 DE=-6.08D-08 OVMax= 5.58D-05

 Cycle   8  Pass 1  IDiag  1:
 E= -33.5389617766162     Delta-E=       -0.000000005234 Rises=F Damp=F
 DIIS: error= 1.87D-06 at cycle   8 NSaved=   8.
 NSaved= 8 IEnMin= 8 EnMin= -33.5389617766162     IErMin= 8 ErrMin= 1.87D-06
 ErrMax= 1.87D-06  0.00D+00 EMaxC= 1.00D-01 BMatC= 1.05D-10 BMatP= 1.34D-09
 IDIUse=1 WtCom= 1.00D+00 WtEn= 0.00D+00
 Coeff-Com: -0.450D-04 0.225D-05 0.384D-03-0.335D-02 0.199D-01 0.443D-01
 Coeff-Com: -0.512D+00 0.145D+01
 Coeff:     -0.450D-04 0.225D-05 0.384D-03-0.335D-02 0.199D-01 0.443D-01
 Coeff:     -0.512D+00 0.145D+01
 Gap=     0.603 Goal=   None    Shift=    0.000
 RMSDP=2.27D-06 MaxDP=1.41D-05 DE=-5.23D-09 OVMax= 1.67D-05

 Cycle   9  Pass 1  IDiag  1:
 E= -33.5389617770308     Delta-E=       -0.000000000415 Rises=F Damp=F
 DIIS: error= 2.60D-07 at cycle   9 NSaved=   9.
 NSaved= 9 IEnMin= 9 EnMin= -33.5389617770308     IErMin= 9 ErrMin= 2.60D-07
 ErrMax= 2.60D-07  0.00D+00 EMaxC= 1.00D-01 BMatC= 2.10D-12 BMatP= 1.05D-10
 IDIUse=1 WtCom= 1.00D+00 WtEn= 0.00D+00
 Coeff-Com:  0.794D-05 0.415D-05-0.501D-04 0.328D-03-0.269D-02-0.532D-02
 Coeff-Com:  0.933D-01-0.381D+00 0.130D+01
 Coeff:      0.794D-05 0.415D-05-0.501D-04 0.328D-03-0.269D-02-0.532D-02
 Coeff:      0.933D-01-0.381D+00 0.130D+01
 Gap=     0.603 Goal=   None    Shift=    0.000
 RMSDP=2.81D-07 MaxDP=1.61D-06 DE=-4.15D-10 OVMax= 1.75D-06

 Cycle  10  Pass 1  IDiag  1:
 E= -33.5389617770376     Delta-E=       -0.000000000007 Rises=F Damp=F
 DIIS: error= 3.66D-08 at cycle  10 NSaved=  10.
 NSaved=10 IEnMin=10 EnMin= -33.5389617770376     IErMin=10 ErrMin= 3.66D-08
 ErrMax= 3.66D-08  0.00D+00 EMaxC= 1.00D-01 BMatC= 3.91D-14 BMatP= 2.10D-12
 IDIUse=1 WtCom= 1.00D+00 WtEn= 0.00D+00
 Coeff-Com: -0.176D-05-0.148D-05 0.899D-05-0.366D-04 0.509D-03 0.629D-03
 Coeff-Com: -0.197D-01 0.927D-01-0.400D+00 0.133D+01
 Coeff:     -0.176D-05-0.148D-05 0.899D-05-0.366D-04 0.509D-03 0.629D-03
 Coeff:     -0.197D-01 0.927D-01-0.400D+00 0.133D+01
 Gap=     0.603 Goal=   None    Shift=    0.000
 RMSDP=2.65D-08 MaxDP=1.25D-07 DE=-6.81D-12 OVMax= 1.61D-07

 Cycle  11  Pass 1  IDiag  1:
 E= -33.5389617770376     Delta-E=       -0.000000000000 Rises=F Damp=F
 DIIS: error= 1.00D-08 at cycle  11 NSaved=  11.
 NSaved=11 IEnMin=11 EnMin= -33.5389617770376     IErMin=11 ErrMin= 1.00D-08
 ErrMax= 1.00D-08  0.00D+00 EMaxC= 1.00D-01 BMatC= 2.20D-15 BMatP= 3.91D-14
 IDIUse=1 WtCom= 1.00D+00 WtEn= 0.00D+00
 Coeff-Com: -0.311D-06 0.899D-06 0.666D-05-0.298D-04-0.675D-04 0.150D-03
 Coeff-Com:  0.404D-02-0.240D-01 0.126D+00-0.599D+00 0.149D+01
 Coeff:     -0.311D-06 0.899D-06 0.666D-05-0.298D-04-0.675D-04 0.150D-03
 Coeff:      0.404D-02-0.240D-01 0.126D+00-0.599D+00 0.149D+01
 Gap=     0.603 Goal=   None    Shift=    0.000
 RMSDP=6.27D-09 MaxDP=3.72D-08 DE=-8.53D-14 OVMax= 4.41D-08

 SCF Done:  E(RHF) =  -33.5389617770     A.U. after   11 cycles
            NFock= 11  Conv=0.63D-08     -V/T= 2.2396
 KE= 2.705678639117D+01 PE=-1.436630380425D+02 EE= 5.228570727840D+01
 Leave Link  502 at Sun Dec 10 06:27:49 2023, MaxMem=   536870912 cpu:               0.3 elap:               0.1
 (Enter /usr/site/hpc/x86_64/glibc-2.17/broadwell/gaussian/g16_a.03/pgi-16.5/g16/l801.exe)
 Windowed orbitals will be sorted by symmetry type.
 Range of M.O.s used for correlation:     1    24
 NBasis=    24 NAE=     8 NBE=     8 NFC=     0 NFV=     0
 NROrb=     24 NOA=     8 NOB=     8 NVA=    16 NVB=    16
 Leave Link  801 at Sun Dec 10 06:27:49 2023, MaxMem=   536870912 cpu:               0.1 elap:               0.0
 (Enter /usr/site/hpc/x86_64/glibc-2.17/broadwell/gaussian/g16_a.03/pgi-16.5/g16/l804.exe)
 Closed-shell transformation, MDV=   536870912 ITran=4 ISComp=2.
 Unit  1 TFree=       1025975 TCopy=        210600.
 Semi-Direct transformation.
 ModeAB=           2 MOrb=             8 LenV=     536741418
 LASXX=        22470 LTotXX=       22470 LenRXX=       22470
 LTotAB=       26208 MaxLAS=       57600 LenRXY=       57600
 NonZer=       62208 LenScr=      524288 LnRSAI=           0
 LnScr1=           0 LExtra=           0 Total=       604358
 MaxDsk=          -1 SrtSym=           F ITran=            4
 DoSDTr:  NPSUse=  4
 JobTyp=0 Pass  1:  I=   1 to   8.
 (rs|ai) integrals will be sorted in core.
 Complete sort for first half transformation.
 First half transformation complete.
 Complete sort for second half transformation.
 Second half transformation complete.
 Spin components of T(2) and E(2):
     alpha-alpha T2 =       0.9673717601D-02 E2=     -0.2741088343D-01
     alpha-beta  T2 =       0.6191564084D-01 E2=     -0.1802473308D+00
     beta-beta   T2 =       0.9673717601D-02 E2=     -0.2741088343D-01
 ANorm=    0.1039838005D+01
 E2 =    -0.2350690977D+00 EUMP2 =    -0.33774030874740D+02
 Leave Link  804 at Sun Dec 10 06:27:49 2023, MaxMem=   536870912 cpu:               0.2 elap:               0.1
 (Enter /usr/site/hpc/x86_64/glibc-2.17/broadwell/gaussian/g16_a.03/pgi-16.5/g16/l913.exe)
 CIDS:  MDV=   536870912.
 IFCWin=0 IBDFC=1 NFBD=     0     0 NFCmp=     0     0 NFFFC=     0     0
 Using DD3R+UMP44R for 1st iteration.
 Using DD4RQ for 2nd and later iterations.
 Keep R2 and R3 ints in memory in symmetry-blocked form, NReq=865368.
 FoFCou: FMM=F IPFlag=           0 FMFlag=           0 FMFlg1=           0
         NFxFlg=           0 DoJE=F BraDBF=F KetDBF=F FulRan=T
         wScrn=  0.000000 ICntrl=       600 IOpCl=  0 I1Cent=           0 NGrid=           0
         NMat0=    1 NMatS0=    300 NMatT0=    0 NMatD0=    1 NMtDS0=    0 NMtDT0=    0
 Petite list used in FoFCou.
 CIDS: In Core Option IDoMem=           1.
 CCSD(T)
 =======
 Iterations=  50 Convergence= 0.100D-06
 Produce multiple copies of IABC intergrals
 Iteration Nr.   1
 **********************
 DD1Dir will call FoFMem   1 times, MxPair=        72
 NAB=    36 NAA=     0 NBB=     0.
 MP4(R+Q)= -0.31189073D-03
 Maximum subspace dimension=  5
 A-vector RMS=  6.9082182D-03 Max=  2.0815370D-02 conv= 1.00D-05.
 RLE energy=       -0.2396370865
 E3=       -0.44976715D-02        EUMP3=      -0.33778528546D+02
 E4(DQ)=   -0.58790837D-02        UMP4(DQ)=   -0.33784407630D+02
 E4(SDQ)=  -0.84576589D-02        UMP4(SDQ)=  -0.33786986205D+02
 VARIATIONAL ENERGIES WITH THE FIRST-ORDER WAVEFUNCTION:
 DE(Corr)= -0.23955048     E(Corr)=     -33.778512256    
 NORM(A)=   0.10432423D+01
 Iteration Nr.   2
 **********************
 DD1Dir will call FoFMem   1 times, MxPair=        72
 NAB=    36 NAA=     0 NBB=     0.
 A-vector RMS=  1.1624260D-03 Max=  2.9956368D-03 conv= 1.00D-05.
 RLE energy=       -0.2480172210
 DE(Corr)= -0.24619704     E(CORR)=     -33.785158815     Delta=-6.65D-03
 NORM(A)=   0.10475101D+01
 Iteration Nr.   3
 **********************
 DD1Dir will call FoFMem   1 times, MxPair=        72
 NAB=    36 NAA=     0 NBB=     0.
 A-vector RMS=  7.9695307D-04 Max=  3.4940866D-03 conv= 1.00D-05.
 RLE energy=       -0.2486978140
 DE(Corr)= -0.24808027     E(CORR)=     -33.787042046     Delta=-1.88D-03
 NORM(A)=   0.10484164D+01
 Iteration Nr.   4
 **********************
 DD1Dir will call FoFMem   1 times, MxPair=        72
 NAB=    36 NAA=     0 NBB=     0.
 A-vector RMS=  1.7719619D-04 Max=  5.1320688D-04 conv= 1.00D-05.
 RLE energy=       -0.2487789837
 DE(Corr)= -0.24872025     E(CORR)=     -33.787682027     Delta=-6.40D-04
 NORM(A)=   0.10486018D+01
 Iteration Nr.   5
 **********************
 DD1Dir will call FoFMem   1 times, MxPair=        72
 NAB=    36 NAA=     0 NBB=     0.
 A-vector RMS=  8.7485499D-05 Max=  3.7380821D-04 conv= 1.00D-05.
 RLE energy=       -0.2487800754
 DE(Corr)= -0.24877164     E(CORR)=     -33.787733419     Delta=-5.14D-05
 NORM(A)=   0.10486459D+01
 Iteration Nr.   6
 **********************
 DD1Dir will call FoFMem   1 times, MxPair=        72
 NAB=    36 NAA=     0 NBB=     0.
 A-vector RMS=  3.2208324D-05 Max=  1.0432651D-04 conv= 1.00D-05.
 RLE energy=       -0.2487702987
 DE(Corr)= -0.24877743     E(CORR)=     -33.787739207     Delta=-5.79D-06
 NORM(A)=   0.10486582D+01
 Iteration Nr.   7
 **********************
 DD1Dir will call FoFMem   1 times, MxPair=        72
 NAB=    36 NAA=     0 NBB=     0.
 A-vector RMS=  9.2272583D-06 Max=  2.7928027D-05 conv= 1.00D-05.
 RLE energy=       -0.2487745569
 DE(Corr)= -0.24877672     E(CORR)=     -33.787738497     Delta= 7.10D-07
 NORM(A)=   0.10486636D+01
 Iteration Nr.   8
 **********************
 DD1Dir will call FoFMem   1 times, MxPair=        72
 NAB=    36 NAA=     0 NBB=     0.
 A-vector RMS=  3.4040594D-06 Max=  1.3933891D-05 conv= 1.00D-05.
 RLE energy=       -0.2487750036
 DE(Corr)= -0.24877534     E(CORR)=     -33.787737120     Delta= 1.38D-06
 NORM(A)=   0.10486652D+01
 Iteration Nr.   9
 **********************
 DD1Dir will call FoFMem   1 times, MxPair=        72
 NAB=    36 NAA=     0 NBB=     0.
 A-vector RMS=  1.2074521D-06 Max=  5.4333825D-06 conv= 1.00D-05.
 RLE energy=       -0.2487758918
 DE(Corr)= -0.24877581     E(CORR)=     -33.787737585     Delta=-4.65D-07
 NORM(A)=   0.10486658D+01
 Iteration Nr.  10
 **********************
 DD1Dir will call FoFMem   1 times, MxPair=        72
 NAB=    36 NAA=     0 NBB=     0.
 A-vector RMS=  5.7408360D-07 Max=  2.7591067D-06 conv= 1.00D-05.
 RLE energy=       -0.2487760281
 DE(Corr)= -0.24877594     E(CORR)=     -33.787737712     Delta=-1.27D-07
 NORM(A)=   0.10486660D+01
 Iteration Nr.  11
 **********************
 DD1Dir will call FoFMem   1 times, MxPair=        72
 NAB=    36 NAA=     0 NBB=     0.
 A-vector RMS=  2.2216993D-07 Max=  1.0313265D-06 conv= 1.00D-05.
 RLE energy=       -0.2487761117
 DE(Corr)= -0.24877607     E(CORR)=     -33.787737852     Delta=-1.40D-07
 NORM(A)=   0.10486660D+01
 Iteration Nr.  12
 **********************
 DD1Dir will call FoFMem   1 times, MxPair=        72
 NAB=    36 NAA=     0 NBB=     0.
 A-vector RMS=  7.7351156D-08 Max=  3.3221795D-07 conv= 1.00D-05.
 RLE energy=       -0.2487761210
 DE(Corr)= -0.24877611     E(CORR)=     -33.787737884     Delta=-3.22D-08
 NORM(A)=   0.10486661D+01
 CI/CC converged in   12 iterations to DelEn=-3.22D-08 Conv= 1.00D-07 ErrA1= 7.74D-08 Conv= 1.00D-05
 Wavefunction amplitudes converged. E(Corr)=     -33.787737884    
 Largest amplitude= 3.36D-02
 IPart=  2 IA=    2   12.50% done.
 IPart=  4 IA=    3   24.17% done.
 IPart=  3 IA=    4   35.00% done.
 IPart=  3 IA=    5   45.00% done.
 IPart=  4 IA=    6   54.17% done.
 IPart=  2 IA=    7   62.50% done.
 IPart=  1 IA=    8   70.00% done.
 IPart=  4 IA=   10   82.50% done.
 IPart=  1 IA=   12   91.67% done.
 Time for triples=        0.24 seconds.
 T4(CCSD)= -0.39896674D-02
 T5(CCSD)=  0.71210605D-03
 CCSD(T)= -0.33791015445D+02
 Discarding MO integrals.
 Leave Link  913 at Sun Dec 10 06:27:49 2023, MaxMem=   536870912 cpu:               1.0 elap:               0.3
 (Enter /usr/site/hpc/x86_64/glibc-2.17/broadwell/gaussian/g16_a.03/pgi-16.5/g16/l601.exe)
 Copying SCF densities to generalized density rwf, IOpCl= 0 IROHF=0.

 **********************************************************************

            Population analysis using the SCF density.

 **********************************************************************

 Orbital symmetries:
       Occupied  (A') (A') (A') (A') (A') (A") (A") (A')
       Virtual   (A') (A') (A') (A') (A") (A') (A") (A') (A') (A')
                 (A') (A') (A') (A') (A') (A')
 The electronic state is 1-A'.
 Alpha  occ. eigenvalues --   -1.37632  -1.29365  -0.73398  -0.69272  -0.56469
 Alpha  occ. eigenvalues --   -0.51789  -0.43471  -0.40345
 Alpha virt. eigenvalues --    0.19970   0.28645   0.30777   0.33623   0.80555
 Alpha virt. eigenvalues --    0.84530   0.89515   0.95602   0.97450   1.18887
 Alpha virt. eigenvalues --    1.20978   1.25952   1.27885   1.36111   2.58900
 Alpha virt. eigenvalues --    3.29075
          Condensed to atoms (all electrons):
               1          2          3          4          5          6
     1  O    6.978345   0.206709   0.249846  -0.662317   0.028724  -0.030723
     2  H    0.206709   0.434192  -0.012551   0.029795  -0.000726  -0.002150
     3  H    0.249846  -0.012551   0.332980   0.029550  -0.000796   0.000724
     4  O   -0.662317   0.029795   0.029550   6.771939   0.205643   0.267392
     5  H    0.028724  -0.000726  -0.000796   0.205643   0.467209  -0.015744
     6  H   -0.030723  -0.002150   0.000724   0.267392  -0.015744   0.428586
 Mulliken charges:
               1
     1  O   -0.770584
     2  H    0.344731
     3  H    0.400248
     4  O   -0.642002
     5  H    0.315691
     6  H    0.351915
 Sum of Mulliken charges =   0.00000
 Mulliken charges with hydrogens summed into heavy atoms:
               1
     1  O   -0.025604
     4  O    0.025604
 Electronic spatial extent (au):  <R**2>=             92.3712
 Charge=              0.0000 electrons
 Dipole moment (field-independent basis, Debye):
    X=             -1.7509    Y=             -1.2846    Z=              0.0000  Tot=              2.1716
 Quadrupole moment (field-independent basis, Debye-Ang):
   XX=             -9.6112   YY=             -6.6985   ZZ=            -14.9623
   XY=             -1.3982   XZ=              0.0000   YZ=              0.0000
 Traceless Quadrupole moment (field-independent basis, Debye-Ang):
   XX=              0.8128   YY=              3.7255   ZZ=             -4.5383
   XY=             -1.3982   XZ=              0.0000   YZ=              0.0000
 Octapole moment (field-independent basis, Debye-Ang**2):
  XXX=             -1.1671  YYY=              0.2498  ZZZ=              0.0000  XYY=              0.3299
  XXY=             -3.2048  XXZ=              0.0000  XZZ=             -0.2826  YZZ=             -0.2252
  YYZ=              0.0000  XYZ=              0.0000
 Hexadecapole moment (field-independent basis, Debye-Ang**3):
 XXXX=            -12.4257 YYYY=            -63.9031 ZZZZ=            -12.1745 XXXY=             -0.7279
 XXXZ=              0.0000 YYYX=             -0.1235 YYYZ=              0.0000 ZZZX=              0.0000
 ZZZY=              0.0000 XXYY=            -12.2303 XXZZ=             -4.5990 YYZZ=            -18.2903
 XXYZ=              0.0000 YYXZ=              0.0000 ZZXY=              0.1744
 N-N= 3.078158259595D+01 E-N=-1.436630380566D+02  KE= 2.705678639117D+01
 Symmetry A'   KE= 1.814615553561D+01
 Symmetry A"   KE= 8.910630855562D+00
 Leave Link  601 at Sun Dec 10 06:27:49 2023, MaxMem=   536870912 cpu:               0.1 elap:               0.0
 (Enter /usr/site/hpc/x86_64/glibc-2.17/broadwell/gaussian/g16_a.03/pgi-16.5/g16/l9999.exe)
 1\1\GINC-N033\SP\RCCSD(T)-FC\CEP-31G\H4O2\ROOT\10-Dec-2023\0\\#p CCSD(
 T)/CEP-31G\\H2O_H2O_165\\0,1\O,0,0.,-0.009833,0.\H,0,-0.799571,-0.5809
 65,0.\H,0,0.799571,-0.580965,0.\O,0,-0.008176,1.752546,0.\H,0,-0.03883
 7,2.734669,0.\H,0,-0.927273,1.40503,0.\\Version=ES64L-G16RevA.03\State
 =1-A'\HF=-33.5389618\MP2=-33.7740309\MP3=-33.7785285\MP4D=-33.7840957\
 MP4DQ=-33.7844076\MP4SDQ=-33.7869862\CCSD=-33.7877379\CCSD(T)=-33.7910
 154\RMSD=6.274e-09\PG=CS [SG(H4O2)]\\@


 THERE ARE PEOPLE SO ADDICTED TO EXAGERATING THEY
 CAN'T TELL THE TRUTH WITHOUT LYING. -- FORTUNE COOKIE
 Job cpu time:       0 days  0 hours  0 minutes  3.5 seconds.
 Elapsed time:       0 days  0 hours  0 minutes  1.1 seconds.
 File lengths (MBytes):  RWF=     72 Int=      0 D2E=      0 Chk=      8 Scr=      8
 Normal termination of Gaussian 16 at Sun Dec 10 06:27:50 2023.
