 Entering Gaussian System, Link 0=g16
 Input=H2O_H2O_2618.com
 Output=H2O_H2O_2618.log
 Initial command:
 /usr/site/hpc/x86_64/glibc-2.17/broadwell/gaussian/g16_a.03/pgi-16.5/g16/l1.exe "/gpfs/gpfs1/scratch/c7441090/OO Coord/Gau-1730755.inp" -scrdir="/gpfs/gpfs1/scratch/c7441090/OO Coord/"
 Entering Link 1 = /usr/site/hpc/x86_64/glibc-2.17/broadwell/gaussian/g16_a.03/pgi-16.5/g16/l1.exe PID=   1730756.
  
 Copyright (c) 1988,1990,1992,1993,1995,1998,2003,2009,2016,
            Gaussian, Inc.  All Rights Reserved.
  
 This is part of the Gaussian(R) 16 program.  It is based on
 the Gaussian(R) 09 system (copyright 2009, Gaussian, Inc.),
 the Gaussian(R) 03 system (copyright 2003, Gaussian, Inc.),
 the Gaussian(R) 98 system (copyright 1998, Gaussian, Inc.),
 the Gaussian(R) 94 system (copyright 1995, Gaussian, Inc.),
 the Gaussian 92(TM) system (copyright 1992, Gaussian, Inc.),
 the Gaussian 90(TM) system (copyright 1990, Gaussian, Inc.),
 the Gaussian 88(TM) system (copyright 1988, Gaussian, Inc.),
 the Gaussian 86(TM) system (copyright 1986, Carnegie Mellon
 University), and the Gaussian 82(TM) system (copyright 1983,
 Carnegie Mellon University). Gaussian is a federally registered
 trademark of Gaussian, Inc.
  
 This software contains proprietary and confidential information,
 including trade secrets, belonging to Gaussian, Inc.
  
 This software is provided under written license and may be
 used, copied, transmitted, or stored only in accord with that
 written license.
  
 The following legend is applicable only to US Government
 contracts under FAR:
  
                    RESTRICTED RIGHTS LEGEND
  
 Use, reproduction and disclosure by the US Government is
 subject to restrictions as set forth in subparagraphs (a)
 and (c) of the Commercial Computer Software - Restricted
 Rights clause in FAR 52.227-19.
  
 Gaussian, Inc.
 340 Quinnipiac St., Bldg. 40, Wallingford CT 06492
  
  
 ---------------------------------------------------------------
 Warning -- This program may not be used in any manner that
 competes with the business of Gaussian, Inc. or will provide
 assistance to any competitor of Gaussian, Inc.  The licensee
 of this program is prohibited from giving any competitor of
 Gaussian, Inc. access to this program.  By using this program,
 the user acknowledges that Gaussian, Inc. is engaged in the
 business of creating and licensing software in the field of
 computational chemistry and represents and warrants to the
 licensee that it is not a competitor of Gaussian, Inc. and that
 it will not use this program in any manner prohibited above.
 ---------------------------------------------------------------
  

 Cite this work as:
 Gaussian 16, Revision A.03,
 M. J. Frisch, G. W. Trucks, H. B. Schlegel, G. E. Scuseria, 
 M. A. Robb, J. R. Cheeseman, G. Scalmani, V. Barone, 
 G. A. Petersson, H. Nakatsuji, X. Li, M. Caricato, A. V. Marenich, 
 J. Bloino, B. G. Janesko, R. Gomperts, B. Mennucci, H. P. Hratchian, 
 J. V. Ortiz, A. F. Izmaylov, J. L. Sonnenberg, D. Williams-Young, 
 F. Ding, F. Lipparini, F. Egidi, J. Goings, B. Peng, A. Petrone, 
 T. Henderson, D. Ranasinghe, V. G. Zakrzewski, J. Gao, N. Rega, 
 G. Zheng, W. Liang, M. Hada, M. Ehara, K. Toyota, R. Fukuda, 
 J. Hasegawa, M. Ishida, T. Nakajima, Y. Honda, O. Kitao, H. Nakai, 
 T. Vreven, K. Throssell, J. A. Montgomery, Jr., J. E. Peralta, 
 F. Ogliaro, M. J. Bearpark, J. J. Heyd, E. N. Brothers, K. N. Kudin, 
 V. N. Staroverov, T. A. Keith, R. Kobayashi, J. Normand, 
 K. Raghavachari, A. P. Rendell, J. C. Burant, S. S. Iyengar, 
 J. Tomasi, M. Cossi, J. M. Millam, M. Klene, C. Adamo, R. Cammi, 
 J. W. Ochterski, R. L. Martin, K. Morokuma, O. Farkas, 
 J. B. Foresman, and D. J. Fox, Gaussian, Inc., Wallingford CT, 2016.
 
 ******************************************
 Gaussian 16:  ES64L-G16RevA.03 25-Dec-2016
                10-Dec-2023 
 ******************************************
 %NProcShared=4
 Will use up to    4 processors via shared memory.
 %Mem=4GB
 %Chk=H2O_H2O_2618.chk
 ------------------
 #p CCSD(T)/CEP-31G
 ------------------
 1/38=1,172=1/1;
 2/12=2,17=6,18=5,40=1/2;
 3/5=9,6=1,11=9,25=1,30=1/1,2,3;
 4//1;
 5/5=2,38=5/2;
 8/6=4,9=120000,10=1/1,4;
 9/5=7,14=2/13;
 6/7=2,8=2,9=2,10=2/1;
 99/5=1,9=1/99;
 Leave Link    1 at Sun Dec 10 06:26:54 2023, MaxMem=   536870912 cpu:               0.2 elap:               0.1
 (Enter /usr/site/hpc/x86_64/glibc-2.17/broadwell/gaussian/g16_a.03/pgi-16.5/g16/l101.exe)
 ------------
 H2O_H2O_2618
 ------------
 Symbolic Z-matrix:
 Charge =  0 Multiplicity = 1
 O                     0.       -0.00983   0. 
 H                    -0.79957  -0.58097   0. 
 H                     0.79957  -0.58097   0. 
 O                    -0.00909   4.35684   0. 
 H                    -0.23076   5.31411   0. 
 H                    -0.84273   3.8367    0. 
 
 ITRead=  0  0  0  0  0  0
 MicOpt= -1 -1 -1 -1 -1 -1
 NAtoms=      6 NQM=        6 NQMF=       0 NMMI=      0 NMMIF=      0
                NMic=       0 NMicF=      0.
                    Isotopes and Nuclear Properties:
 (Nuclear quadrupole moments (NQMom) in fm**2, nuclear magnetic moments (NMagM)
  in nuclear magnetons)

  Atom         1           2           3           4           5           6
 IAtWgt=          16           1           1          16           1           1
 AtmWgt=  15.9949146   1.0078250   1.0078250  15.9949146   1.0078250   1.0078250
 NucSpn=           0           1           1           0           1           1
 AtZEff=  -0.0000000  -0.0000000  -0.0000000  -0.0000000  -0.0000000  -0.0000000
 NQMom=    0.0000000   0.0000000   0.0000000   0.0000000   0.0000000   0.0000000
 NMagM=    0.0000000   2.7928460   2.7928460   0.0000000   2.7928460   2.7928460
 AtZNuc=   8.0000000   1.0000000   1.0000000   8.0000000   1.0000000   1.0000000
 Leave Link  101 at Sun Dec 10 06:26:54 2023, MaxMem=   536870912 cpu:               0.3 elap:               0.1
 (Enter /usr/site/hpc/x86_64/glibc-2.17/broadwell/gaussian/g16_a.03/pgi-16.5/g16/l202.exe)
                          Input orientation:                          
 ---------------------------------------------------------------------
 Center     Atomic      Atomic             Coordinates (Angstroms)
 Number     Number       Type             X           Y           Z
 ---------------------------------------------------------------------
      1          8           0        0.000000   -0.009833    0.000000
      2          1           0       -0.799571   -0.580965    0.000000
      3          1           0        0.799571   -0.580965    0.000000
      4          8           0       -0.009085    4.356844    0.000000
      5          1           0       -0.230759    5.314114    0.000000
      6          1           0       -0.842725    3.836699    0.000000
 ---------------------------------------------------------------------
                    Distance matrix (angstroms):
                    1          2          3          4          5
     1  O    0.000000
     2  H    0.982601   0.000000
     3  H    0.982601   1.599142   0.000000
     4  O    4.366686   5.000683   5.003587   0.000000
     5  H    5.328946   5.922458   5.984441   0.982601   0.000000
     6  H    3.937765   4.417875   4.713055   0.982602   1.599143
                    6
     6  H    0.000000
 Stoichiometry    H4O2
 Framework group  CS[SG(H4O2)]
 Deg. of freedom     9
 Full point group                 CS      NOp   2
 Largest Abelian subgroup         CS      NOp   2
 Largest concise Abelian subgroup C1      NOp   1
                         Standard orientation:                         
 ---------------------------------------------------------------------
 Center     Atomic      Atomic             Coordinates (Angstroms)
 Number     Number       Type             X           Y           Z
 ---------------------------------------------------------------------
      1          8           0        0.052839   -2.148196    0.000000
      2          1           0       -0.747919   -2.717663    0.000000
      3          1           0        0.851220   -2.720990    0.000000
      4          8           0        0.052839    2.218490    0.000000
      5          1           0       -0.166843    3.176219    0.000000
      6          1           0       -0.781881    1.700081    0.000000
 ---------------------------------------------------------------------
 Rotational constants (GHZ):         254.8587908           2.7993187           2.7689056
 Leave Link  202 at Sun Dec 10 06:26:54 2023, MaxMem=   536870912 cpu:               0.1 elap:               0.0
 (Enter /usr/site/hpc/x86_64/glibc-2.17/broadwell/gaussian/g16_a.03/pgi-16.5/g16/l301.exe)
 Standard basis: CEP-31G (6D, 10F)
 Ernie: Thresh=  0.10000D-02 Tol=  0.10000D-05 Strict=F.
 There are    20 symmetry adapted cartesian basis functions of A'  symmetry.
 There are     4 symmetry adapted cartesian basis functions of A"  symmetry.
 There are    20 symmetry adapted basis functions of A'  symmetry.
 There are     4 symmetry adapted basis functions of A"  symmetry.
    24 basis functions,    48 primitive gaussians,    24 cartesian basis functions
     8 alpha electrons        8 beta electrons
       nuclear repulsion energy        21.0310652419 Hartrees.
 IExCor=    0 DFT=F Ex=HF Corr=None ExCW=0 ScaHFX=  1.000000
 ScaDFX=  1.000000  1.000000  1.000000  1.000000 ScalE2=  1.000000  1.000000
 IRadAn=      5 IRanWt=     -1 IRanGd=            0 ICorTp=0 IEmpDi=  4
 NAtoms=    6 NActive=    6 NUniq=    6 SFac= 1.00D+00 NAtFMM=   60 NAOKFM=F Big=F
 Integral buffers will be    131072 words long.
 Raffenetti 1 integral format.
 Two-electron integral symmetry is turned on.
 Leave Link  301 at Sun Dec 10 06:26:54 2023, MaxMem=   536870912 cpu:               0.2 elap:               0.1
 (Enter /usr/site/hpc/x86_64/glibc-2.17/broadwell/gaussian/g16_a.03/pgi-16.5/g16/l302.exe)
 NPDir=0 NMtPBC=     1 NCelOv=     1 NCel=       1 NClECP=     1 NCelD=      1
         NCelK=      1 NCelE2=     1 NClLst=     1 CellRange=     0.0.
 One-electron integrals computed using PRISM.
 One-electron integral symmetry used in STVInt
   2 Symmetry operations used in ECPInt.
 ECPInt:  NShTT=      78 NPrTT=     318 LenC2=      79 LenP2D=     268.
 LDataN:  DoStor=T MaxTD1= 2 Len=   12
 NBasis=    24 RedAO= T EigKep=  3.82D-02  NBF=    20     4
 NBsUse=    24 1.00D-06 EigRej= -1.00D+00 NBFU=    20     4
 Leave Link  302 at Sun Dec 10 06:26:54 2023, MaxMem=   536870912 cpu:               0.3 elap:               0.1
 (Enter /usr/site/hpc/x86_64/glibc-2.17/broadwell/gaussian/g16_a.03/pgi-16.5/g16/l303.exe)
 DipDrv:  MaxL=1.
 Leave Link  303 at Sun Dec 10 06:26:54 2023, MaxMem=   536870912 cpu:               0.1 elap:               0.0
 (Enter /usr/site/hpc/x86_64/glibc-2.17/broadwell/gaussian/g16_a.03/pgi-16.5/g16/l401.exe)
 ExpMin= 1.78D-01 ExpMax= 1.92D+01 ExpMxC= 1.92D+01 IAcc=3 IRadAn=         5 AccDes= 0.00D+00
 Harris functional with IExCor=  205 and IRadAn=       5 diagonalized for initial guess.
 HarFok:  IExCor=  205 AccDes= 0.00D+00 IRadAn=         5 IDoV= 1 UseB2=F ITyADJ=14
 ICtDFT=  3500011 ScaDFX=  1.000000  1.000000  1.000000  1.000000
 FoFCou: FMM=F IPFlag=           0 FMFlag=      100000 FMFlg1=           0
         NFxFlg=           0 DoJE=T BraDBF=F KetDBF=T FulRan=T
         wScrn=  0.000000 ICntrl=       500 IOpCl=  0 I1Cent=   200000004 NGrid=           0
         NMat0=    1 NMatS0=      1 NMatT0=    0 NMatD0=    1 NMtDS0=    0 NMtDT0=    0
 Petite list used in FoFCou.
 Harris En= -34.4764284177648    
 JPrj=0 DoOrth=F DoCkMO=F.
 Initial guess orbital symmetries:
       Occupied  (A') (A') (A') (A') (A') (A') (A") (A")
       Virtual   (A') (A') (A') (A') (A') (A") (A") (A') (A') (A')
                 (A') (A') (A') (A') (A') (A')
 The electronic state of the initial guess is 1-A'.
 Leave Link  401 at Sun Dec 10 06:26:54 2023, MaxMem=   536870912 cpu:               0.4 elap:               0.1
 (Enter /usr/site/hpc/x86_64/glibc-2.17/broadwell/gaussian/g16_a.03/pgi-16.5/g16/l502.exe)
 Keep R1 ints in memory in symmetry-blocked form, NReq=852098.
 FoFCou: FMM=F IPFlag=           0 FMFlag=           0 FMFlg1=           0
         NFxFlg=           0 DoJE=F BraDBF=F KetDBF=F FulRan=T
         wScrn=  0.000000 ICntrl=       600 IOpCl=  0 I1Cent=           0 NGrid=           0
         NMat0=    1 NMatS0=    300 NMatT0=    0 NMatD0=    1 NMtDS0=    0 NMtDT0=    0
 Petite list used in FoFCou.
 Closed shell SCF:
 Using DIIS extrapolation, IDIIS=  1040.
 NGot=   536870912 LenX=   536840576 LenY=   536839559
 Requested convergence on RMS density matrix=1.00D-08 within 128 cycles.
 Requested convergence on MAX density matrix=1.00D-06.
 Requested convergence on             energy=1.00D-06.
 No special actions if energy rises.

 Cycle   1  Pass 1  IDiag  1:
 E= -33.5563987388842    
 DIIS: error= 6.89D-02 at cycle   1 NSaved=   1.
 NSaved= 1 IEnMin= 1 EnMin= -33.5563987388842     IErMin= 1 ErrMin= 6.89D-02
 ErrMax= 6.89D-02  0.00D+00 EMaxC= 1.00D-01 BMatC= 1.02D-01 BMatP= 1.02D-01
 IDIUse=3 WtCom= 3.11D-01 WtEn= 6.89D-01
 Coeff-Com:  0.100D+01
 Coeff-En:   0.100D+01
 Coeff:      0.100D+01
 Gap=     0.600 Goal=   None    Shift=    0.000
 GapD=    0.600 DampG=2.000 DampE=0.500 DampFc=1.0000 IDamp=-1.
 RMSDP=1.49D-02 MaxDP=1.17D-01              OVMax= 9.99D-02

 Cycle   2  Pass 1  IDiag  1:
 E= -33.6195327887256     Delta-E=       -0.063134049841 Rises=F Damp=F
 DIIS: error= 3.75D-02 at cycle   2 NSaved=   2.
 NSaved= 2 IEnMin= 2 EnMin= -33.6195327887256     IErMin= 2 ErrMin= 3.75D-02
 ErrMax= 3.75D-02  0.00D+00 EMaxC= 1.00D-01 BMatC= 3.85D-02 BMatP= 1.02D-01
 IDIUse=3 WtCom= 6.25D-01 WtEn= 3.75D-01
 Coeff-Com:  0.377D+00 0.623D+00
 Coeff-En:   0.109D+00 0.891D+00
 Coeff:      0.277D+00 0.723D+00
 Gap=     0.695 Goal=   None    Shift=    0.000
 RMSDP=6.43D-03 MaxDP=5.45D-02 DE=-6.31D-02 OVMax= 3.59D-02

 Cycle   3  Pass 1  IDiag  1:
 E= -33.6502640968276     Delta-E=       -0.030731308102 Rises=F Damp=F
 DIIS: error= 7.22D-03 at cycle   3 NSaved=   3.
 NSaved= 3 IEnMin= 3 EnMin= -33.6502640968276     IErMin= 3 ErrMin= 7.22D-03
 ErrMax= 7.22D-03  0.00D+00 EMaxC= 1.00D-01 BMatC= 9.17D-04 BMatP= 3.85D-02
 IDIUse=3 WtCom= 9.28D-01 WtEn= 7.22D-02
 Coeff-Com: -0.114D+00-0.145D-01 0.113D+01
 Coeff-En:   0.000D+00 0.000D+00 0.100D+01
 Coeff:     -0.105D+00-0.135D-01 0.112D+01
 Gap=     0.688 Goal=   None    Shift=    0.000
 RMSDP=1.10D-03 MaxDP=9.33D-03 DE=-3.07D-02 OVMax= 8.14D-03

 Cycle   4  Pass 1  IDiag  1:
 E= -33.6511801034467     Delta-E=       -0.000916006619 Rises=F Damp=F
 DIIS: error= 7.65D-04 at cycle   4 NSaved=   4.
 NSaved= 4 IEnMin= 4 EnMin= -33.6511801034467     IErMin= 4 ErrMin= 7.65D-04
 ErrMax= 7.65D-04  0.00D+00 EMaxC= 1.00D-01 BMatC= 6.06D-06 BMatP= 9.17D-04
 IDIUse=3 WtCom= 9.92D-01 WtEn= 7.65D-03
 Coeff-Com:  0.436D-01-0.182D-01-0.523D+00 0.150D+01
 Coeff-En:   0.000D+00 0.000D+00 0.000D+00 0.100D+01
 Coeff:      0.433D-01-0.181D-01-0.519D+00 0.149D+01
 Gap=     0.689 Goal=   None    Shift=    0.000
 RMSDP=2.37D-04 MaxDP=2.05D-03 DE=-9.16D-04 OVMax= 9.80D-04

 Cycle   5  Pass 1  IDiag  1:
 E= -33.6511934655947     Delta-E=       -0.000013362148 Rises=F Damp=F
 DIIS: error= 5.17D-05 at cycle   5 NSaved=   5.
 NSaved= 5 IEnMin= 5 EnMin= -33.6511934655947     IErMin= 5 ErrMin= 5.17D-05
 ErrMax= 5.17D-05  0.00D+00 EMaxC= 1.00D-01 BMatC= 4.12D-08 BMatP= 6.06D-06
 IDIUse=1 WtCom= 1.00D+00 WtEn= 0.00D+00
 Coeff-Com: -0.702D-02 0.325D-02 0.848D-01-0.293D+00 0.121D+01
 Coeff:     -0.702D-02 0.325D-02 0.848D-01-0.293D+00 0.121D+01
 Gap=     0.689 Goal=   None    Shift=    0.000
 RMSDP=1.64D-05 MaxDP=1.59D-04 DE=-1.34D-05 OVMax= 1.11D-04

 Cycle   6  Pass 1  IDiag  1:
 E= -33.6511935677868     Delta-E=       -0.000000102192 Rises=F Damp=F
 DIIS: error= 1.11D-05 at cycle   6 NSaved=   6.
 NSaved= 6 IEnMin= 6 EnMin= -33.6511935677868     IErMin= 6 ErrMin= 1.11D-05
 ErrMax= 1.11D-05  0.00D+00 EMaxC= 1.00D-01 BMatC= 2.43D-09 BMatP= 4.12D-08
 IDIUse=1 WtCom= 1.00D+00 WtEn= 0.00D+00
 Coeff-Com:  0.671D-03-0.192D-03-0.755D-02 0.328D-01-0.307D+00 0.128D+01
 Coeff:      0.671D-03-0.192D-03-0.755D-02 0.328D-01-0.307D+00 0.128D+01
 Gap=     0.690 Goal=   None    Shift=    0.000
 RMSDP=3.86D-06 MaxDP=4.23D-05 DE=-1.02D-07 OVMax= 3.62D-05

 Cycle   7  Pass 1  IDiag  1:
 E= -33.6511935739374     Delta-E=       -0.000000006151 Rises=F Damp=F
 DIIS: error= 2.77D-06 at cycle   7 NSaved=   7.
 NSaved= 7 IEnMin= 7 EnMin= -33.6511935739374     IErMin= 7 ErrMin= 2.77D-06
 ErrMax= 2.77D-06  0.00D+00 EMaxC= 1.00D-01 BMatC= 3.05D-10 BMatP= 2.43D-09
 IDIUse=1 WtCom= 1.00D+00 WtEn= 0.00D+00
 Coeff-Com:  0.708D-03-0.308D-03-0.843D-02 0.300D-01-0.150D+00 0.251D+00
 Coeff-Com:  0.877D+00
 Coeff:      0.708D-03-0.308D-03-0.843D-02 0.300D-01-0.150D+00 0.251D+00
 Coeff:      0.877D+00
 Gap=     0.690 Goal=   None    Shift=    0.000
 RMSDP=1.02D-06 MaxDP=9.75D-06 DE=-6.15D-09 OVMax= 1.01D-05

 Cycle   8  Pass 1  IDiag  1:
 E= -33.6511935744355     Delta-E=       -0.000000000498 Rises=F Damp=F
 DIIS: error= 1.03D-06 at cycle   8 NSaved=   8.
 NSaved= 8 IEnMin= 8 EnMin= -33.6511935744355     IErMin= 8 ErrMin= 1.03D-06
 ErrMax= 1.03D-06  0.00D+00 EMaxC= 1.00D-01 BMatC= 2.94D-11 BMatP= 3.05D-10
 IDIUse=1 WtCom= 1.00D+00 WtEn= 0.00D+00
 Coeff-Com:  0.122D-05-0.283D-04-0.108D-03-0.751D-03 0.313D-01-0.170D+00
 Coeff-Com:  0.397D-01 0.110D+01
 Coeff:      0.122D-05-0.283D-04-0.108D-03-0.751D-03 0.313D-01-0.170D+00
 Coeff:      0.397D-01 0.110D+01
 Gap=     0.690 Goal=   None    Shift=    0.000
 RMSDP=5.13D-07 MaxDP=3.70D-06 DE=-4.98D-10 OVMax= 3.97D-06

 Cycle   9  Pass 1  IDiag  1:
 E= -33.6511935744983     Delta-E=       -0.000000000063 Rises=F Damp=F
 DIIS: error= 1.90D-07 at cycle   9 NSaved=   9.
 NSaved= 9 IEnMin= 9 EnMin= -33.6511935744983     IErMin= 9 ErrMin= 1.90D-07
 ErrMax= 1.90D-07  0.00D+00 EMaxC= 1.00D-01 BMatC= 7.41D-13 BMatP= 2.94D-11
 IDIUse=1 WtCom= 1.00D+00 WtEn= 0.00D+00
 Coeff-Com:  0.296D-05 0.834D-05 0.669D-05 0.357D-03-0.118D-01 0.672D-01
 Coeff-Com: -0.357D-01-0.463D+00 0.144D+01
 Coeff:      0.296D-05 0.834D-05 0.669D-05 0.357D-03-0.118D-01 0.672D-01
 Coeff:     -0.357D-01-0.463D+00 0.144D+01
 Gap=     0.690 Goal=   None    Shift=    0.000
 RMSDP=1.32D-07 MaxDP=5.99D-07 DE=-6.28D-11 OVMax= 8.94D-07

 Cycle  10  Pass 1  IDiag  1:
 E= -33.6511935745004     Delta-E=       -0.000000000002 Rises=F Damp=F
 DIIS: error= 9.21D-09 at cycle  10 NSaved=  10.
 NSaved=10 IEnMin=10 EnMin= -33.6511935745004     IErMin=10 ErrMin= 9.21D-09
 ErrMax= 9.21D-09  0.00D+00 EMaxC= 1.00D-01 BMatC= 3.12D-15 BMatP= 7.41D-13
 IDIUse=1 WtCom= 1.00D+00 WtEn= 0.00D+00
 Coeff-Com:  0.233D-06-0.199D-05-0.117D-04-0.386D-04 0.233D-02-0.140D-01
 Coeff-Com:  0.801D-02 0.962D-01-0.352D+00 0.126D+01
 Coeff:      0.233D-06-0.199D-05-0.117D-04-0.386D-04 0.233D-02-0.140D-01
 Coeff:      0.801D-02 0.962D-01-0.352D+00 0.126D+01
 Gap=     0.690 Goal=   None    Shift=    0.000
 RMSDP=1.21D-08 MaxDP=5.62D-08 DE=-2.09D-12 OVMax= 7.16D-08

 Cycle  11  Pass 1  IDiag  1:
 E= -33.6511935745004     Delta-E=       -0.000000000000 Rises=F Damp=F
 DIIS: error= 4.54D-10 at cycle  11 NSaved=  11.
 NSaved=11 IEnMin=11 EnMin= -33.6511935745004     IErMin=11 ErrMin= 4.54D-10
 ErrMax= 4.54D-10  0.00D+00 EMaxC= 1.00D-01 BMatC= 7.72D-18 BMatP= 3.12D-15
 IDIUse=1 WtCom= 1.00D+00 WtEn= 0.00D+00
 Coeff-Com: -0.833D-07 0.329D-06 0.239D-05 0.465D-05-0.378D-03 0.230D-02
 Coeff-Com: -0.135D-02-0.159D-01 0.592D-01-0.240D+00 0.120D+01
 Coeff:     -0.833D-07 0.329D-06 0.239D-05 0.465D-05-0.378D-03 0.230D-02
 Coeff:     -0.135D-02-0.159D-01 0.592D-01-0.240D+00 0.120D+01
 Gap=     0.690 Goal=   None    Shift=    0.000
 RMSDP=4.04D-10 MaxDP=1.78D-09 DE=-2.84D-14 OVMax= 2.23D-09

 SCF Done:  E(RHF) =  -33.6511935745     A.U. after   11 cycles
            NFock= 11  Conv=0.40D-09     -V/T= 2.2570
 KE= 2.677046078256D+01 PE=-1.237742086012D+02 EE= 4.232148900230D+01
 Leave Link  502 at Sun Dec 10 06:26:55 2023, MaxMem=   536870912 cpu:               0.4 elap:               0.1
 (Enter /usr/site/hpc/x86_64/glibc-2.17/broadwell/gaussian/g16_a.03/pgi-16.5/g16/l801.exe)
 Windowed orbitals will be sorted by symmetry type.
 Range of M.O.s used for correlation:     1    24
 NBasis=    24 NAE=     8 NBE=     8 NFC=     0 NFV=     0
 NROrb=     24 NOA=     8 NOB=     8 NVA=    16 NVB=    16
 Leave Link  801 at Sun Dec 10 06:26:55 2023, MaxMem=   536870912 cpu:               0.1 elap:               0.0
 (Enter /usr/site/hpc/x86_64/glibc-2.17/broadwell/gaussian/g16_a.03/pgi-16.5/g16/l804.exe)
 Closed-shell transformation, MDV=   536870912 ITran=4 ISComp=2.
 Unit  1 TFree=       1025975 TCopy=        210600.
 Semi-Direct transformation.
 ModeAB=           2 MOrb=             8 LenV=     536742169
 LASXX=        22470 LTotXX=       22470 LenRXX=       22470
 LTotAB=       26208 MaxLAS=       57600 LenRXY=       57600
 NonZer=       61056 LenScr=      524288 LnRSAI=           0
 LnScr1=           0 LExtra=           0 Total=       604358
 MaxDsk=          -1 SrtSym=           F ITran=            4
 DoSDTr:  NPSUse=  4
 JobTyp=0 Pass  1:  I=   1 to   8.
 (rs|ai) integrals will be sorted in core.
 Complete sort for first half transformation.
 First half transformation complete.
 Complete sort for second half transformation.
 Second half transformation complete.
 Spin components of T(2) and E(2):
     alpha-alpha T2 =       0.9076826437D-02 E2=     -0.2590509083D-01
     alpha-beta  T2 =       0.5999925187D-01 E2=     -0.1766907338D+00
     beta-beta   T2 =       0.9076826437D-02 E2=     -0.2590509083D-01
 ANorm=    0.1038341420D+01
 E2 =    -0.2285009155D+00 EUMP2 =    -0.33879694489988D+02
 Leave Link  804 at Sun Dec 10 06:26:55 2023, MaxMem=   536870912 cpu:               0.2 elap:               0.1
 (Enter /usr/site/hpc/x86_64/glibc-2.17/broadwell/gaussian/g16_a.03/pgi-16.5/g16/l913.exe)
 CIDS:  MDV=   536870912.
 IFCWin=0 IBDFC=1 NFBD=     0     0 NFCmp=     0     0 NFFFC=     0     0
 Using DD3R+UMP44R for 1st iteration.
 Using DD4RQ for 2nd and later iterations.
 Keep R2 and R3 ints in memory in symmetry-blocked form, NReq=864706.
 FoFCou: FMM=F IPFlag=           0 FMFlag=           0 FMFlg1=           0
         NFxFlg=           0 DoJE=F BraDBF=F KetDBF=F FulRan=T
         wScrn=  0.000000 ICntrl=       600 IOpCl=  0 I1Cent=           0 NGrid=           0
         NMat0=    1 NMatS0=    300 NMatT0=    0 NMatD0=    1 NMtDS0=    0 NMtDT0=    0
 Petite list used in FoFCou.
 CIDS: In Core Option IDoMem=           1.
 CCSD(T)
 =======
 Iterations=  50 Convergence= 0.100D-06
 Produce multiple copies of IABC intergrals
 Iteration Nr.   1
 **********************
 DD1Dir will call FoFMem   1 times, MxPair=        72
 NAB=    36 NAA=     0 NBB=     0.
 MP4(R+Q)= -0.73583269D-03
 Maximum subspace dimension=  5
 A-vector RMS=  5.7717150D-03 Max=  1.3051927D-02 conv= 1.00D-05.
 RLE energy=       -0.2345668705
 E3=       -0.54488522D-02        EUMP3=      -0.33885143342D+02
 E4(DQ)=   -0.59161988D-02        UMP4(DQ)=   -0.33891059541D+02
 E4(SDQ)=  -0.79496712D-02        UMP4(SDQ)=  -0.33893093013D+02
 VARIATIONAL ENERGIES WITH THE FIRST-ORDER WAVEFUNCTION:
 DE(Corr)= -0.23441034     E(Corr)=     -33.885603919    
 NORM(A)=   0.10417865D+01
 Iteration Nr.   2
 **********************
 DD1Dir will call FoFMem   1 times, MxPair=        72
 NAB=    36 NAA=     0 NBB=     0.
 A-vector RMS=  9.8311888D-04 Max=  2.6586340D-03 conv= 1.00D-05.
 RLE energy=       -0.2423545062
 DE(Corr)= -0.24040982     E(CORR)=     -33.891603399     Delta=-6.00D-03
 NORM(A)=   0.10455909D+01
 Iteration Nr.   3
 **********************
 DD1Dir will call FoFMem   1 times, MxPair=        72
 NAB=    36 NAA=     0 NBB=     0.
 A-vector RMS=  3.8637947D-04 Max=  1.1074751D-03 conv= 1.00D-05.
 RLE energy=       -0.2429062348
 DE(Corr)= -0.24245687     E(CORR)=     -33.893650447     Delta=-2.05D-03
 NORM(A)=   0.10461553D+01
 Iteration Nr.   4
 **********************
 DD1Dir will call FoFMem   1 times, MxPair=        72
 NAB=    36 NAA=     0 NBB=     0.
 A-vector RMS=  9.3877132D-05 Max=  2.5703697D-04 conv= 1.00D-05.
 RLE energy=       -0.2429535717
 DE(Corr)= -0.24291738     E(CORR)=     -33.894110955     Delta=-4.61D-04
 NORM(A)=   0.10462304D+01
 Iteration Nr.   5
 **********************
 DD1Dir will call FoFMem   1 times, MxPair=        72
 NAB=    36 NAA=     0 NBB=     0.
 A-vector RMS=  4.2021432D-05 Max=  1.4549509D-04 conv= 1.00D-05.
 RLE energy=       -0.2429518671
 DE(Corr)= -0.24294975     E(CORR)=     -33.894143320     Delta=-3.24D-05
 NORM(A)=   0.10462412D+01
 Iteration Nr.   6
 **********************
 DD1Dir will call FoFMem   1 times, MxPair=        72
 NAB=    36 NAA=     0 NBB=     0.
 A-vector RMS=  1.2033413D-05 Max=  4.4230337D-05 conv= 1.00D-05.
 RLE energy=       -0.2429507347
 DE(Corr)= -0.24295197     E(CORR)=     -33.894145544     Delta=-2.22D-06
 NORM(A)=   0.10462447D+01
 Iteration Nr.   7
 **********************
 DD1Dir will call FoFMem   1 times, MxPair=        72
 NAB=    36 NAA=     0 NBB=     0.
 A-vector RMS=  3.6849891D-06 Max=  1.2088391D-05 conv= 1.00D-05.
 RLE energy=       -0.2429517205
 DE(Corr)= -0.24295135     E(CORR)=     -33.894144921     Delta= 6.23D-07
 NORM(A)=   0.10462461D+01
 Iteration Nr.   8
 **********************
 DD1Dir will call FoFMem   1 times, MxPair=        72
 NAB=    36 NAA=     0 NBB=     0.
 A-vector RMS=  9.7769670D-07 Max=  4.3430287D-06 conv= 1.00D-05.
 RLE energy=       -0.2429512240
 DE(Corr)= -0.24295132     E(CORR)=     -33.894144897     Delta= 2.37D-08
 NORM(A)=   0.10462462D+01
 CI/CC converged in    8 iterations to DelEn= 2.37D-08 Conv= 1.00D-07 ErrA1= 9.78D-07 Conv= 1.00D-05
 Wavefunction amplitudes converged. E(Corr)=     -33.894144897    
 Largest amplitude= 5.67D-02
 IPart=  2 IA=    2   12.50% done.
 IPart=  3 IA=    3   24.17% done.
 IPart=  4 IA=    4   35.00% done.
 IPart=  4 IA=    5   45.00% done.
 IPart=  3 IA=    6   54.17% done.
 IPart=  1 IA=    7   62.50% done.
 IPart=  2 IA=    8   70.00% done.
 IPart=  4 IA=   10   82.50% done.
 IPart=  1 IA=   12   91.67% done.
 Time for triples=        0.25 seconds.
 T4(CCSD)= -0.30966860D-02
 T5(CCSD)=  0.52818732D-03
 CCSD(T)= -0.33896713396D+02
 Discarding MO integrals.
 Leave Link  913 at Sun Dec 10 06:26:55 2023, MaxMem=   536870912 cpu:               0.9 elap:               0.2
 (Enter /usr/site/hpc/x86_64/glibc-2.17/broadwell/gaussian/g16_a.03/pgi-16.5/g16/l601.exe)
 Copying SCF densities to generalized density rwf, IOpCl= 0 IROHF=0.

 **********************************************************************

            Population analysis using the SCF density.

 **********************************************************************

 Orbital symmetries:
       Occupied  (A') (A') (A') (A') (A') (A') (A") (A")
       Virtual   (A') (A') (A') (A') (A") (A") (A') (A') (A') (A')
                 (A') (A') (A') (A') (A') (A')
 The electronic state is 1-A'.
 Alpha  occ. eigenvalues --   -1.35363  -1.34213  -0.70996  -0.69802  -0.55065
 Alpha  occ. eigenvalues --   -0.53896  -0.49925  -0.48779
 Alpha virt. eigenvalues --    0.20172   0.21723   0.30582   0.31778   0.80598
 Alpha virt. eigenvalues --    0.81782   0.81841   0.85464   0.86763   0.89728
 Alpha virt. eigenvalues --    1.17512   1.18737   1.21927   1.23305   2.57529
 Alpha virt. eigenvalues --    2.58842
          Condensed to atoms (all electrons):
               1          2          3          4          5          6
     1  O    6.212977   0.260928   0.265077   0.000016   0.000001   0.000092
     2  H    0.260928   0.396767  -0.023595   0.000000  -0.000000  -0.000002
     3  H    0.265077  -0.023595   0.385215   0.000000  -0.000000  -0.000001
     4  O    0.000016   0.000000   0.000000   6.212890   0.259104   0.265249
     5  H    0.000001  -0.000000  -0.000000   0.259104   0.403072  -0.023771
     6  H    0.000092  -0.000002  -0.000001   0.265249  -0.023771   0.382885
 Mulliken charges:
               1
     1  O   -0.739090
     2  H    0.365902
     3  H    0.373305
     4  O   -0.737260
     5  H    0.361594
     6  H    0.375549
 Sum of Mulliken charges =  -0.00000
 Mulliken charges with hydrogens summed into heavy atoms:
               1
     1  O    0.000117
     4  O   -0.000117
 Electronic spatial extent (au):  <R**2>=            324.9079
 Charge=             -0.0000 electrons
 Dipole moment (field-independent basis, Debye):
    X=             -2.4213    Y=             -1.6800    Z=              0.0000  Tot=              2.9470
 Quadrupole moment (field-independent basis, Debye-Ang):
   XX=             -9.8453   YY=              5.4290   ZZ=            -14.9888
   XY=             -4.9207   XZ=              0.0000   YZ=              0.0000
 Traceless Quadrupole moment (field-independent basis, Debye-Ang):
   XX=             -3.3769   YY=             11.8974   ZZ=             -8.5204
   XY=             -4.9207   XZ=              0.0000   YZ=              0.0000
 Octapole moment (field-independent basis, Debye-Ang**2):
  XXX=             -1.5734  YYY=            -11.9988  ZZZ=              0.0000  XYY=             -8.9915
  XXY=             -5.9579  XXZ=              0.0000  XZZ=             -0.4526  YZZ=             -0.3240
  YYZ=              0.0000  XYZ=              0.0000
 Hexadecapole moment (field-independent basis, Debye-Ang**3):
 XXXX=            -12.4082 YYYY=           -151.9331 ZZZZ=            -12.2215 XXXY=             -0.6408
 XXXZ=              0.0000 YYYX=            -21.1682 YYYZ=              0.0000 ZZZX=              0.0000
 ZZZY=              0.0000 XXYY=            -49.7745 XXZZ=             -4.5466 YYZZ=            -78.2227
 XXYZ=              0.0000 YYXZ=              0.0000 ZZXY=              0.6658
 N-N= 2.103106524188D+01 E-N=-1.237742086045D+02  KE= 2.677046078256D+01
 Symmetry A'   KE= 1.788689663102D+01
 Symmetry A"   KE= 8.883564151535D+00
 Leave Link  601 at Sun Dec 10 06:26:55 2023, MaxMem=   536870912 cpu:               0.1 elap:               0.0
 (Enter /usr/site/hpc/x86_64/glibc-2.17/broadwell/gaussian/g16_a.03/pgi-16.5/g16/l9999.exe)
 1\1\GINC-N045\SP\RCCSD(T)-FC\CEP-31G\H4O2\ROOT\10-Dec-2023\0\\#p CCSD(
 T)/CEP-31G\\H2O_H2O_2618\\0,1\O,0,0.,-0.009833,0.\H,0,-0.799571,-0.580
 965,0.\H,0,0.799571,-0.580965,0.\O,0,-0.009085,4.356844,0.\H,0,-0.2307
 59,5.314114,0.\H,0,-0.842725,3.836699,0.\\Version=ES64L-G16RevA.03\Sta
 te=1-A'\HF=-33.6511936\MP2=-33.8796945\MP3=-33.8851433\MP4D=-33.890323
 7\MP4DQ=-33.8910595\MP4SDQ=-33.893093\CCSD=-33.8941449\CCSD(T)=-33.896
 7134\RMSD=4.038e-10\PG=CS [SG(H4O2)]\\@


 EVANS BOLDLY PUT 50 ATM. OF ETHYLENE IN A CELL WITH 25 ATM. OF OXYGEN.
 THE APPARATUS SUBSEQUENTLY BLEW UP, BUT LUCKILY NOT BEFORE HE
 OBTAINED THE SPECTRA SHOWN IN FIGURE 8.
 A.J.MERER AND R.S.MULLIKEN, CHEM.REV. 69, 645 (1969)
 Job cpu time:       0 days  0 hours  0 minutes  3.5 seconds.
 Elapsed time:       0 days  0 hours  0 minutes  1.1 seconds.
 File lengths (MBytes):  RWF=     72 Int=      0 D2E=      0 Chk=      8 Scr=      8
 Normal termination of Gaussian 16 at Sun Dec 10 06:26:55 2023.
