 Entering Gaussian System, Link 0=g16
 Input=H2O_H2O_1237.com
 Output=H2O_H2O_1237.log
 Initial command:
 /usr/site/hpc/x86_64/glibc-2.17/broadwell/gaussian/g16_a.03/pgi-16.5/g16/l1.exe "/gpfs/gpfs1/scratch/c7441090/OO Coord/Gau-1269778.inp" -scrdir="/gpfs/gpfs1/scratch/c7441090/OO Coord/"
 Entering Link 1 = /usr/site/hpc/x86_64/glibc-2.17/broadwell/gaussian/g16_a.03/pgi-16.5/g16/l1.exe PID=   1269785.
  
 Copyright (c) 1988,1990,1992,1993,1995,1998,2003,2009,2016,
            Gaussian, Inc.  All Rights Reserved.
  
 This is part of the Gaussian(R) 16 program.  It is based on
 the Gaussian(R) 09 system (copyright 2009, Gaussian, Inc.),
 the Gaussian(R) 03 system (copyright 2003, Gaussian, Inc.),
 the Gaussian(R) 98 system (copyright 1998, Gaussian, Inc.),
 the Gaussian(R) 94 system (copyright 1995, Gaussian, Inc.),
 the Gaussian 92(TM) system (copyright 1992, Gaussian, Inc.),
 the Gaussian 90(TM) system (copyright 1990, Gaussian, Inc.),
 the Gaussian 88(TM) system (copyright 1988, Gaussian, Inc.),
 the Gaussian 86(TM) system (copyright 1986, Carnegie Mellon
 University), and the Gaussian 82(TM) system (copyright 1983,
 Carnegie Mellon University). Gaussian is a federally registered
 trademark of Gaussian, Inc.
  
 This software contains proprietary and confidential information,
 including trade secrets, belonging to Gaussian, Inc.
  
 This software is provided under written license and may be
 used, copied, transmitted, or stored only in accord with that
 written license.
  
 The following legend is applicable only to US Government
 contracts under FAR:
  
                    RESTRICTED RIGHTS LEGEND
  
 Use, reproduction and disclosure by the US Government is
 subject to restrictions as set forth in subparagraphs (a)
 and (c) of the Commercial Computer Software - Restricted
 Rights clause in FAR 52.227-19.
  
 Gaussian, Inc.
 340 Quinnipiac St., Bldg. 40, Wallingford CT 06492
  
  
 ---------------------------------------------------------------
 Warning -- This program may not be used in any manner that
 competes with the business of Gaussian, Inc. or will provide
 assistance to any competitor of Gaussian, Inc.  The licensee
 of this program is prohibited from giving any competitor of
 Gaussian, Inc. access to this program.  By using this program,
 the user acknowledges that Gaussian, Inc. is engaged in the
 business of creating and licensing software in the field of
 computational chemistry and represents and warrants to the
 licensee that it is not a competitor of Gaussian, Inc. and that
 it will not use this program in any manner prohibited above.
 ---------------------------------------------------------------
  

 Cite this work as:
 Gaussian 16, Revision A.03,
 M. J. Frisch, G. W. Trucks, H. B. Schlegel, G. E. Scuseria, 
 M. A. Robb, J. R. Cheeseman, G. Scalmani, V. Barone, 
 G. A. Petersson, H. Nakatsuji, X. Li, M. Caricato, A. V. Marenich, 
 J. Bloino, B. G. Janesko, R. Gomperts, B. Mennucci, H. P. Hratchian, 
 J. V. Ortiz, A. F. Izmaylov, J. L. Sonnenberg, D. Williams-Young, 
 F. Ding, F. Lipparini, F. Egidi, J. Goings, B. Peng, A. Petrone, 
 T. Henderson, D. Ranasinghe, V. G. Zakrzewski, J. Gao, N. Rega, 
 G. Zheng, W. Liang, M. Hada, M. Ehara, K. Toyota, R. Fukuda, 
 J. Hasegawa, M. Ishida, T. Nakajima, Y. Honda, O. Kitao, H. Nakai, 
 T. Vreven, K. Throssell, J. A. Montgomery, Jr., J. E. Peralta, 
 F. Ogliaro, M. J. Bearpark, J. J. Heyd, E. N. Brothers, K. N. Kudin, 
 V. N. Staroverov, T. A. Keith, R. Kobayashi, J. Normand, 
 K. Raghavachari, A. P. Rendell, J. C. Burant, S. S. Iyengar, 
 J. Tomasi, M. Cossi, J. M. Millam, M. Klene, C. Adamo, R. Cammi, 
 J. W. Ochterski, R. L. Martin, K. Morokuma, O. Farkas, 
 J. B. Foresman, and D. J. Fox, Gaussian, Inc., Wallingford CT, 2016.
 
 ******************************************
 Gaussian 16:  ES64L-G16RevA.03 25-Dec-2016
                10-Dec-2023 
 ******************************************
 %NProcShared=4
 Will use up to    4 processors via shared memory.
 %Mem=4GB
 %Chk=H2O_H2O_1237.chk
 ------------------
 #p CCSD(T)/CEP-31G
 ------------------
 1/38=1,172=1/1;
 2/12=2,17=6,18=5,40=1/2;
 3/5=9,6=1,11=9,25=1,30=1/1,2,3;
 4//1;
 5/5=2,38=5/2;
 8/6=4,9=120000,10=1/1,4;
 9/5=7,14=2/13;
 6/7=2,8=2,9=2,10=2/1;
 99/5=1,9=1/99;
 Leave Link    1 at Sun Dec 10 06:47:52 2023, MaxMem=   536870912 cpu:               0.2 elap:               0.1
 (Enter /usr/site/hpc/x86_64/glibc-2.17/broadwell/gaussian/g16_a.03/pgi-16.5/g16/l101.exe)
 ------------
 H2O_H2O_1237
 ------------
 Symbolic Z-matrix:
 Charge =  0 Multiplicity = 1
 O                     0.       -0.00983   0. 
 H                    -0.79957  -0.58097   0. 
 H                     0.79957  -0.58097   0. 
 O                    -0.00695   2.89748   0. 
 H                     0.15458   3.86672   0. 
 H                    -0.97619   2.73595   0. 
 
 ITRead=  0  0  0  0  0  0
 MicOpt= -1 -1 -1 -1 -1 -1
 NAtoms=      6 NQM=        6 NQMF=       0 NMMI=      0 NMMIF=      0
                NMic=       0 NMicF=      0.
                    Isotopes and Nuclear Properties:
 (Nuclear quadrupole moments (NQMom) in fm**2, nuclear magnetic moments (NMagM)
  in nuclear magnetons)

  Atom         1           2           3           4           5           6
 IAtWgt=          16           1           1          16           1           1
 AtmWgt=  15.9949146   1.0078250   1.0078250  15.9949146   1.0078250   1.0078250
 NucSpn=           0           1           1           0           1           1
 AtZEff=  -0.0000000  -0.0000000  -0.0000000  -0.0000000  -0.0000000  -0.0000000
 NQMom=    0.0000000   0.0000000   0.0000000   0.0000000   0.0000000   0.0000000
 NMagM=    0.0000000   2.7928460   2.7928460   0.0000000   2.7928460   2.7928460
 AtZNuc=   8.0000000   1.0000000   1.0000000   8.0000000   1.0000000   1.0000000
 Leave Link  101 at Sun Dec 10 06:47:52 2023, MaxMem=   536870912 cpu:               0.3 elap:               0.1
 (Enter /usr/site/hpc/x86_64/glibc-2.17/broadwell/gaussian/g16_a.03/pgi-16.5/g16/l202.exe)
                          Input orientation:                          
 ---------------------------------------------------------------------
 Center     Atomic      Atomic             Coordinates (Angstroms)
 Number     Number       Type             X           Y           Z
 ---------------------------------------------------------------------
      1          8           0        0.000000   -0.009833    0.000000
      2          1           0       -0.799571   -0.580965    0.000000
      3          1           0        0.799571   -0.580965    0.000000
      4          8           0       -0.006953    2.897484    0.000000
      5          1           0        0.154578    3.866718    0.000000
      6          1           0       -0.976187    2.735953    0.000000
 ---------------------------------------------------------------------
                    Distance matrix (angstroms):
                    1          2          3          4          5
     1  O    0.000000
     2  H    0.982601   0.000000
     3  H    0.982601   1.599142   0.000000
     4  O    2.907325   3.567611   3.570727   0.000000
     5  H    3.879632   4.548877   4.494207   0.982602   0.000000
     6  H    2.914152   3.321617   3.762348   0.982602   1.599143
                    6
     6  H    0.000000
 Stoichiometry    H4O2
 Framework group  CS[SG(H4O2)]
 Deg. of freedom     9
 Full point group                 CS      NOp   2
 Largest Abelian subgroup         CS      NOp   2
 Largest concise Abelian subgroup C1      NOp   1
                         Standard orientation:                         
 ---------------------------------------------------------------------
 Center     Atomic      Atomic             Coordinates (Angstroms)
 Number     Number       Type             X           Y           Z
 ---------------------------------------------------------------------
      1          8           0        0.040425   -1.437031    0.000000
      2          1           0       -0.760510   -2.006249    0.000000
      3          1           0        0.838628   -2.010074    0.000000
      4          8           0        0.040425    1.470294    0.000000
      5          1           0        0.204274    2.439139    0.000000
      6          1           0       -0.929192    1.311082    0.000000
 ---------------------------------------------------------------------
 Rotational constants (GHZ):         226.0748258           6.0544771           5.8965621
 Leave Link  202 at Sun Dec 10 06:47:52 2023, MaxMem=   536870912 cpu:               0.1 elap:               0.0
 (Enter /usr/site/hpc/x86_64/glibc-2.17/broadwell/gaussian/g16_a.03/pgi-16.5/g16/l301.exe)
 Standard basis: CEP-31G (6D, 10F)
 Ernie: Thresh=  0.10000D-02 Tol=  0.10000D-05 Strict=F.
 There are    20 symmetry adapted cartesian basis functions of A'  symmetry.
 There are     4 symmetry adapted cartesian basis functions of A"  symmetry.
 There are    20 symmetry adapted basis functions of A'  symmetry.
 There are     4 symmetry adapted basis functions of A"  symmetry.
    24 basis functions,    48 primitive gaussians,    24 cartesian basis functions
     8 alpha electrons        8 beta electrons
       nuclear repulsion energy        24.3606275511 Hartrees.
 IExCor=    0 DFT=F Ex=HF Corr=None ExCW=0 ScaHFX=  1.000000
 ScaDFX=  1.000000  1.000000  1.000000  1.000000 ScalE2=  1.000000  1.000000
 IRadAn=      5 IRanWt=     -1 IRanGd=            0 ICorTp=0 IEmpDi=  4
 NAtoms=    6 NActive=    6 NUniq=    6 SFac= 1.00D+00 NAtFMM=   60 NAOKFM=F Big=F
 Integral buffers will be    131072 words long.
 Raffenetti 1 integral format.
 Two-electron integral symmetry is turned on.
 Leave Link  301 at Sun Dec 10 06:47:52 2023, MaxMem=   536870912 cpu:               0.2 elap:               0.1
 (Enter /usr/site/hpc/x86_64/glibc-2.17/broadwell/gaussian/g16_a.03/pgi-16.5/g16/l302.exe)
 NPDir=0 NMtPBC=     1 NCelOv=     1 NCel=       1 NClECP=     1 NCelD=      1
         NCelK=      1 NCelE2=     1 NClLst=     1 CellRange=     0.0.
 One-electron integrals computed using PRISM.
 One-electron integral symmetry used in STVInt
   2 Symmetry operations used in ECPInt.
 ECPInt:  NShTT=      78 NPrTT=     318 LenC2=      79 LenP2D=     285.
 LDataN:  DoStor=T MaxTD1= 2 Len=   12
 NBasis=    24 RedAO= T EigKep=  3.75D-02  NBF=    20     4
 NBsUse=    24 1.00D-06 EigRej= -1.00D+00 NBFU=    20     4
 Leave Link  302 at Sun Dec 10 06:47:52 2023, MaxMem=   536870912 cpu:               0.3 elap:               0.1
 (Enter /usr/site/hpc/x86_64/glibc-2.17/broadwell/gaussian/g16_a.03/pgi-16.5/g16/l303.exe)
 DipDrv:  MaxL=1.
 Leave Link  303 at Sun Dec 10 06:47:52 2023, MaxMem=   536870912 cpu:               0.1 elap:               0.0
 (Enter /usr/site/hpc/x86_64/glibc-2.17/broadwell/gaussian/g16_a.03/pgi-16.5/g16/l401.exe)
 ExpMin= 1.78D-01 ExpMax= 1.92D+01 ExpMxC= 1.92D+01 IAcc=3 IRadAn=         5 AccDes= 0.00D+00
 Harris functional with IExCor=  205 and IRadAn=       5 diagonalized for initial guess.
 HarFok:  IExCor=  205 AccDes= 0.00D+00 IRadAn=         5 IDoV= 1 UseB2=F ITyADJ=14
 ICtDFT=  3500011 ScaDFX=  1.000000  1.000000  1.000000  1.000000
 FoFCou: FMM=F IPFlag=           0 FMFlag=      100000 FMFlg1=           0
         NFxFlg=           0 DoJE=T BraDBF=F KetDBF=T FulRan=T
         wScrn=  0.000000 ICntrl=       500 IOpCl=  0 I1Cent=   200000004 NGrid=           0
         NMat0=    1 NMatS0=      1 NMatT0=    0 NMatD0=    1 NMtDS0=    0 NMtDT0=    0
 Petite list used in FoFCou.
 Harris En= -34.4780374325206    
 JPrj=0 DoOrth=F DoCkMO=F.
 Initial guess orbital symmetries:
       Occupied  (A') (A') (A') (A') (A') (A') (A") (A")
       Virtual   (A') (A') (A') (A') (A') (A") (A') (A") (A') (A')
                 (A') (A') (A') (A') (A') (A')
 The electronic state of the initial guess is 1-A'.
 Leave Link  401 at Sun Dec 10 06:47:52 2023, MaxMem=   536870912 cpu:               0.4 elap:               0.1
 (Enter /usr/site/hpc/x86_64/glibc-2.17/broadwell/gaussian/g16_a.03/pgi-16.5/g16/l502.exe)
 Keep R1 ints in memory in symmetry-blocked form, NReq=852525.
 FoFCou: FMM=F IPFlag=           0 FMFlag=           0 FMFlg1=           0
         NFxFlg=           0 DoJE=F BraDBF=F KetDBF=F FulRan=T
         wScrn=  0.000000 ICntrl=       600 IOpCl=  0 I1Cent=           0 NGrid=           0
         NMat0=    1 NMatS0=    300 NMatT0=    0 NMatD0=    1 NMtDS0=    0 NMtDT0=    0
 Petite list used in FoFCou.
 Closed shell SCF:
 Using DIIS extrapolation, IDIIS=  1040.
 NGot=   536870912 LenX=   536840576 LenY=   536839559
 Requested convergence on RMS density matrix=1.00D-08 within 128 cycles.
 Requested convergence on MAX density matrix=1.00D-06.
 Requested convergence on             energy=1.00D-06.
 No special actions if energy rises.

 Cycle   1  Pass 1  IDiag  1:
 E= -33.5453080969062    
 DIIS: error= 7.00D-02 at cycle   1 NSaved=   1.
 NSaved= 1 IEnMin= 1 EnMin= -33.5453080969062     IErMin= 1 ErrMin= 7.00D-02
 ErrMax= 7.00D-02  0.00D+00 EMaxC= 1.00D-01 BMatC= 1.05D-01 BMatP= 1.05D-01
 IDIUse=3 WtCom= 3.00D-01 WtEn= 7.00D-01
 Coeff-Com:  0.100D+01
 Coeff-En:   0.100D+01
 Coeff:      0.100D+01
 Gap=     0.579 Goal=   None    Shift=    0.000
 GapD=    0.579 DampG=2.000 DampE=0.500 DampFc=1.0000 IDamp=-1.
 RMSDP=1.56D-02 MaxDP=1.19D-01              OVMax= 1.06D-01

 Cycle   2  Pass 1  IDiag  1:
 E= -33.6112067375782     Delta-E=       -0.065898640672 Rises=F Damp=F
 DIIS: error= 3.80D-02 at cycle   2 NSaved=   2.
 NSaved= 2 IEnMin= 2 EnMin= -33.6112067375782     IErMin= 2 ErrMin= 3.80D-02
 ErrMax= 3.80D-02  0.00D+00 EMaxC= 1.00D-01 BMatC= 3.97D-02 BMatP= 1.05D-01
 IDIUse=3 WtCom= 6.20D-01 WtEn= 3.80D-01
 Coeff-Com:  0.378D+00 0.622D+00
 Coeff-En:   0.980D-01 0.902D+00
 Coeff:      0.271D+00 0.729D+00
 Gap=     0.684 Goal=   None    Shift=    0.000
 RMSDP=6.64D-03 MaxDP=5.61D-02 DE=-6.59D-02 OVMax= 3.65D-02

 Cycle   3  Pass 1  IDiag  1:
 E= -33.6426438922837     Delta-E=       -0.031437154706 Rises=F Damp=F
 DIIS: error= 7.71D-03 at cycle   3 NSaved=   3.
 NSaved= 3 IEnMin= 3 EnMin= -33.6426438922837     IErMin= 3 ErrMin= 7.71D-03
 ErrMax= 7.71D-03  0.00D+00 EMaxC= 1.00D-01 BMatC= 1.07D-03 BMatP= 3.97D-02
 IDIUse=3 WtCom= 9.23D-01 WtEn= 7.71D-02
 Coeff-Com: -0.111D+00-0.898D-03 0.111D+01
 Coeff-En:   0.000D+00 0.000D+00 0.100D+01
 Coeff:     -0.103D+00-0.829D-03 0.110D+01
 Gap=     0.676 Goal=   None    Shift=    0.000
 RMSDP=1.25D-03 MaxDP=9.98D-03 DE=-3.14D-02 OVMax= 8.92D-03

 Cycle   4  Pass 1  IDiag  1:
 E= -33.6437129915826     Delta-E=       -0.001069099299 Rises=F Damp=F
 DIIS: error= 8.48D-04 at cycle   4 NSaved=   4.
 NSaved= 4 IEnMin= 4 EnMin= -33.6437129915826     IErMin= 4 ErrMin= 8.48D-04
 ErrMax= 8.48D-04  0.00D+00 EMaxC= 1.00D-01 BMatC= 7.53D-06 BMatP= 1.07D-03
 IDIUse=3 WtCom= 9.92D-01 WtEn= 8.48D-03
 Coeff-Com:  0.402D-01-0.240D-01-0.478D+00 0.146D+01
 Coeff-En:   0.000D+00 0.000D+00 0.000D+00 0.100D+01
 Coeff:      0.398D-01-0.238D-01-0.474D+00 0.146D+01
 Gap=     0.678 Goal=   None    Shift=    0.000
 RMSDP=2.49D-04 MaxDP=2.24D-03 DE=-1.07D-03 OVMax= 1.11D-03

 Cycle   5  Pass 1  IDiag  1:
 E= -33.6437284112776     Delta-E=       -0.000015419695 Rises=F Damp=F
 DIIS: error= 7.00D-05 at cycle   5 NSaved=   5.
 NSaved= 5 IEnMin= 5 EnMin= -33.6437284112776     IErMin= 5 ErrMin= 7.00D-05
 ErrMax= 7.00D-05  0.00D+00 EMaxC= 1.00D-01 BMatC= 8.58D-08 BMatP= 7.53D-06
 IDIUse=1 WtCom= 1.00D+00 WtEn= 0.00D+00
 Coeff-Com: -0.261D-02 0.198D-02 0.306D-01-0.161D+00 0.113D+01
 Coeff:     -0.261D-02 0.198D-02 0.306D-01-0.161D+00 0.113D+01
 Gap=     0.678 Goal=   None    Shift=    0.000
 RMSDP=2.19D-05 MaxDP=2.44D-04 DE=-1.54D-05 OVMax= 1.63D-04

 Cycle   6  Pass 1  IDiag  1:
 E= -33.6437285890180     Delta-E=       -0.000000177740 Rises=F Damp=F
 DIIS: error= 1.83D-05 at cycle   6 NSaved=   6.
 NSaved= 6 IEnMin= 6 EnMin= -33.6437285890180     IErMin= 6 ErrMin= 1.83D-05
 ErrMax= 1.83D-05  0.00D+00 EMaxC= 1.00D-01 BMatC= 1.49D-08 BMatP= 8.58D-08
 IDIUse=1 WtCom= 1.00D+00 WtEn= 0.00D+00
 Coeff-Com: -0.341D-02 0.217D-02 0.406D-01-0.140D+00 0.285D+00 0.815D+00
 Coeff:     -0.341D-02 0.217D-02 0.406D-01-0.140D+00 0.285D+00 0.815D+00
 Gap=     0.678 Goal=   None    Shift=    0.000
 RMSDP=5.40D-06 MaxDP=6.18D-05 DE=-1.78D-07 OVMax= 4.15D-05

 Cycle   7  Pass 1  IDiag  1:
 E= -33.6437286083089     Delta-E=       -0.000000019291 Rises=F Damp=F
 DIIS: error= 6.85D-06 at cycle   7 NSaved=   7.
 NSaved= 7 IEnMin= 7 EnMin= -33.6437286083089     IErMin= 7 ErrMin= 6.85D-06
 ErrMax= 6.85D-06  0.00D+00 EMaxC= 1.00D-01 BMatC= 9.74D-10 BMatP= 1.49D-08
 IDIUse=1 WtCom= 1.00D+00 WtEn= 0.00D+00
 Coeff-Com:  0.880D-03-0.481D-03-0.990D-02 0.396D-01-0.170D+00-0.124D+00
 Coeff-Com:  0.126D+01
 Coeff:      0.880D-03-0.481D-03-0.990D-02 0.396D-01-0.170D+00-0.124D+00
 Coeff:      0.126D+01
 Gap=     0.678 Goal=   None    Shift=    0.000
 RMSDP=2.52D-06 MaxDP=2.06D-05 DE=-1.93D-08 OVMax= 2.31D-05

 Cycle   8  Pass 1  IDiag  1:
 E= -33.6437286107517     Delta-E=       -0.000000002443 Rises=F Damp=F
 DIIS: error= 1.28D-06 at cycle   8 NSaved=   8.
 NSaved= 8 IEnMin= 8 EnMin= -33.6437286107517     IErMin= 8 ErrMin= 1.28D-06
 ErrMax= 1.28D-06  0.00D+00 EMaxC= 1.00D-01 BMatC= 3.73D-11 BMatP= 9.74D-10
 IDIUse=1 WtCom= 1.00D+00 WtEn= 0.00D+00
 Coeff-Com:  0.910D-05-0.474D-04-0.305D-03-0.424D-03 0.253D-01-0.145D-01
 Coeff-Com: -0.306D+00 0.130D+01
 Coeff:      0.910D-05-0.474D-04-0.305D-03-0.424D-03 0.253D-01-0.145D-01
 Coeff:     -0.306D+00 0.130D+01
 Gap=     0.678 Goal=   None    Shift=    0.000
 RMSDP=7.40D-07 MaxDP=4.21D-06 DE=-2.44D-09 OVMax= 5.28D-06

 Cycle   9  Pass 1  IDiag  1:
 E= -33.6437286108616     Delta-E=       -0.000000000110 Rises=F Damp=F
 DIIS: error= 2.64D-07 at cycle   9 NSaved=   9.
 NSaved= 9 IEnMin= 9 EnMin= -33.6437286108616     IErMin= 9 ErrMin= 2.64D-07
 ErrMax= 2.64D-07  0.00D+00 EMaxC= 1.00D-01 BMatC= 1.24D-12 BMatP= 3.73D-11
 IDIUse=1 WtCom= 1.00D+00 WtEn= 0.00D+00
 Coeff-Com:  0.117D-05 0.138D-04 0.650D-04 0.209D-03-0.846D-02 0.559D-02
 Coeff-Com:  0.103D+00-0.539D+00 0.144D+01
 Coeff:      0.117D-05 0.138D-04 0.650D-04 0.209D-03-0.846D-02 0.559D-02
 Coeff:      0.103D+00-0.539D+00 0.144D+01
 Gap=     0.678 Goal=   None    Shift=    0.000
 RMSDP=1.83D-07 MaxDP=8.00D-07 DE=-1.10D-10 OVMax= 1.24D-06

 Cycle  10  Pass 1  IDiag  1:
 E= -33.6437286108655     Delta-E=       -0.000000000004 Rises=F Damp=F
 DIIS: error= 1.36D-08 at cycle  10 NSaved=  10.
 NSaved=10 IEnMin=10 EnMin= -33.6437286108655     IErMin=10 ErrMin= 1.36D-08
 ErrMax= 1.36D-08  0.00D+00 EMaxC= 1.00D-01 BMatC= 6.22D-15 BMatP= 1.24D-12
 IDIUse=1 WtCom= 1.00D+00 WtEn= 0.00D+00
 Coeff-Com:  0.406D-06-0.271D-05-0.185D-04-0.492D-05 0.138D-02-0.112D-02
 Coeff-Com: -0.176D-01 0.969D-01-0.315D+00 0.124D+01
 Coeff:      0.406D-06-0.271D-05-0.185D-04-0.492D-05 0.138D-02-0.112D-02
 Coeff:     -0.176D-01 0.969D-01-0.315D+00 0.124D+01
 Gap=     0.678 Goal=   None    Shift=    0.000
 RMSDP=1.49D-08 MaxDP=7.45D-08 DE=-3.89D-12 OVMax= 8.93D-08

 Cycle  11  Pass 1  IDiag  1:
 E= -33.6437286108655     Delta-E=        0.000000000000 Rises=F Damp=F
 DIIS: error= 9.45D-10 at cycle  11 NSaved=  11.
 NSaved=11 IEnMin=10 EnMin= -33.6437286108655     IErMin=11 ErrMin= 9.45D-10
 ErrMax= 9.45D-10  0.00D+00 EMaxC= 1.00D-01 BMatC= 4.42D-17 BMatP= 6.22D-15
 IDIUse=1 WtCom= 1.00D+00 WtEn= 0.00D+00
 Coeff-Com: -0.133D-06 0.633D-06 0.469D-05-0.338D-06-0.322D-03 0.274D-03
 Coeff-Com:  0.414D-02-0.231D-01 0.766D-01-0.339D+00 0.128D+01
 Coeff:     -0.133D-06 0.633D-06 0.469D-05-0.338D-06-0.322D-03 0.274D-03
 Coeff:      0.414D-02-0.231D-01 0.766D-01-0.339D+00 0.128D+01
 Gap=     0.678 Goal=   None    Shift=    0.000
 RMSDP=8.82D-10 MaxDP=4.47D-09 DE= 2.84D-14 OVMax= 4.92D-09

 SCF Done:  E(RHF) =  -33.6437286109     A.U. after   11 cycles
            NFock= 11  Conv=0.88D-09     -V/T= 2.2571
 KE= 2.676292456927D+01 PE=-1.306399982072D+02 EE= 4.587271747594D+01
 Leave Link  502 at Sun Dec 10 06:47:52 2023, MaxMem=   536870912 cpu:               0.3 elap:               0.1
 (Enter /usr/site/hpc/x86_64/glibc-2.17/broadwell/gaussian/g16_a.03/pgi-16.5/g16/l801.exe)
 Windowed orbitals will be sorted by symmetry type.
 Range of M.O.s used for correlation:     1    24
 NBasis=    24 NAE=     8 NBE=     8 NFC=     0 NFV=     0
 NROrb=     24 NOA=     8 NOB=     8 NVA=    16 NVB=    16
 Leave Link  801 at Sun Dec 10 06:47:52 2023, MaxMem=   536870912 cpu:               0.1 elap:               0.0
 (Enter /usr/site/hpc/x86_64/glibc-2.17/broadwell/gaussian/g16_a.03/pgi-16.5/g16/l804.exe)
 Closed-shell transformation, MDV=   536870912 ITran=4 ISComp=2.
 Unit  1 TFree=       1025975 TCopy=        210600.
 Semi-Direct transformation.
 ModeAB=           2 MOrb=             8 LenV=     536741758
 LASXX=        22470 LTotXX=       22470 LenRXX=       22470
 LTotAB=       26208 MaxLAS=       57600 LenRXY=       57600
 NonZer=       62208 LenScr=      524288 LnRSAI=           0
 LnScr1=           0 LExtra=           0 Total=       604358
 MaxDsk=          -1 SrtSym=           F ITran=            4
 DoSDTr:  NPSUse=  4
 JobTyp=0 Pass  1:  I=   1 to   8.
 (rs|ai) integrals will be sorted in core.
 Complete sort for first half transformation.
 First half transformation complete.
 Complete sort for second half transformation.
 Second half transformation complete.
 Spin components of T(2) and E(2):
     alpha-alpha T2 =       0.9101813013D-02 E2=     -0.2601811120D-01
     alpha-beta  T2 =       0.6022727963D-01 E2=     -0.1773626419D+00
     beta-beta   T2 =       0.9101813013D-02 E2=     -0.2601811120D-01
 ANorm=    0.1038475279D+01
 E2 =    -0.2293988643D+00 EUMP2 =    -0.33873127475152D+02
 Leave Link  804 at Sun Dec 10 06:47:52 2023, MaxMem=   536870912 cpu:               0.2 elap:               0.1
 (Enter /usr/site/hpc/x86_64/glibc-2.17/broadwell/gaussian/g16_a.03/pgi-16.5/g16/l913.exe)
 CIDS:  MDV=   536870912.
 IFCWin=0 IBDFC=1 NFBD=     0     0 NFCmp=     0     0 NFFFC=     0     0
 Using DD3R+UMP44R for 1st iteration.
 Using DD4RQ for 2nd and later iterations.
 Keep R2 and R3 ints in memory in symmetry-blocked form, NReq=865133.
 FoFCou: FMM=F IPFlag=           0 FMFlag=           0 FMFlg1=           0
         NFxFlg=           0 DoJE=F BraDBF=F KetDBF=F FulRan=T
         wScrn=  0.000000 ICntrl=       600 IOpCl=  0 I1Cent=           0 NGrid=           0
         NMat0=    1 NMatS0=    300 NMatT0=    0 NMatD0=    1 NMtDS0=    0 NMtDT0=    0
 Petite list used in FoFCou.
 CIDS: In Core Option IDoMem=           1.
 CCSD(T)
 =======
 Iterations=  50 Convergence= 0.100D-06
 Produce multiple copies of IABC intergrals
 Iteration Nr.   1
 **********************
 DD1Dir will call FoFMem   1 times, MxPair=        72
 NAB=    36 NAA=     0 NBB=     0.
 MP4(R+Q)= -0.66422135D-03
 Maximum subspace dimension=  5
 A-vector RMS=  5.9366850D-03 Max=  1.2722944D-02 conv= 1.00D-05.
 RLE energy=       -0.2355365421
 E3=       -0.55868351D-02        EUMP3=      -0.33878714310D+02
 E4(DQ)=   -0.59056625D-02        UMP4(DQ)=   -0.33884619973D+02
 E4(SDQ)=  -0.80146368D-02        UMP4(SDQ)=  -0.33886728947D+02
 VARIATIONAL ENERGIES WITH THE FIRST-ORDER WAVEFUNCTION:
 DE(Corr)= -0.23537694     E(Corr)=     -33.879105550    
 NORM(A)=   0.10420192D+01
 Iteration Nr.   2
 **********************
 DD1Dir will call FoFMem   1 times, MxPair=        72
 NAB=    36 NAA=     0 NBB=     0.
 A-vector RMS=  9.9648339D-04 Max=  2.6656957D-03 conv= 1.00D-05.
 RLE energy=       -0.2434575657
 DE(Corr)= -0.24149247     E(CORR)=     -33.885221082     Delta=-6.12D-03
 NORM(A)=   0.10459404D+01
 Iteration Nr.   3
 **********************
 DD1Dir will call FoFMem   1 times, MxPair=        72
 NAB=    36 NAA=     0 NBB=     0.
 A-vector RMS=  4.3195312D-04 Max=  1.6325737D-03 conv= 1.00D-05.
 RLE energy=       -0.2440166672
 DE(Corr)= -0.24355184     E(CORR)=     -33.887280448     Delta=-2.06D-03
 NORM(A)=   0.10465383D+01
 Iteration Nr.   4
 **********************
 DD1Dir will call FoFMem   1 times, MxPair=        72
 NAB=    36 NAA=     0 NBB=     0.
 A-vector RMS=  1.0716421D-04 Max=  3.6159118D-04 conv= 1.00D-05.
 RLE energy=       -0.2440682538
 DE(Corr)= -0.24402981     E(CORR)=     -33.887758422     Delta=-4.78D-04
 NORM(A)=   0.10466240D+01
 Iteration Nr.   5
 **********************
 DD1Dir will call FoFMem   1 times, MxPair=        72
 NAB=    36 NAA=     0 NBB=     0.
 A-vector RMS=  4.8475658D-05 Max=  2.0704538D-04 conv= 1.00D-05.
 RLE energy=       -0.2440671516
 DE(Corr)= -0.24406408     E(CORR)=     -33.887792689     Delta=-3.43D-05
 NORM(A)=   0.10466380D+01
 Iteration Nr.   6
 **********************
 DD1Dir will call FoFMem   1 times, MxPair=        72
 NAB=    36 NAA=     0 NBB=     0.
 A-vector RMS=  1.6080681D-05 Max=  7.1339684D-05 conv= 1.00D-05.
 RLE energy=       -0.2440639770
 DE(Corr)= -0.24406684     E(CORR)=     -33.887795447     Delta=-2.76D-06
 NORM(A)=   0.10466414D+01
 Iteration Nr.   7
 **********************
 DD1Dir will call FoFMem   1 times, MxPair=        72
 NAB=    36 NAA=     0 NBB=     0.
 A-vector RMS=  5.2985684D-06 Max=  2.1956052D-05 conv= 1.00D-05.
 RLE energy=       -0.2440656968
 DE(Corr)= -0.24406618     E(CORR)=     -33.887794796     Delta= 6.52D-07
 NORM(A)=   0.10466434D+01
 Iteration Nr.   8
 **********************
 DD1Dir will call FoFMem   1 times, MxPair=        72
 NAB=    36 NAA=     0 NBB=     0.
 A-vector RMS=  1.7496889D-06 Max=  6.5702432D-06 conv= 1.00D-05.
 RLE energy=       -0.2440656523
 DE(Corr)= -0.24406582     E(CORR)=     -33.887794427     Delta= 3.69D-07
 NORM(A)=   0.10466440D+01
 Iteration Nr.   9
 **********************
 DD1Dir will call FoFMem   1 times, MxPair=        72
 NAB=    36 NAA=     0 NBB=     0.
 A-vector RMS=  4.4335341D-07 Max=  1.7856027D-06 conv= 1.00D-05.
 RLE energy=       -0.2440659299
 DE(Corr)= -0.24406596     E(CORR)=     -33.887794567     Delta=-1.40D-07
 NORM(A)=   0.10466443D+01
 Iteration Nr.  10
 **********************
 DD1Dir will call FoFMem   1 times, MxPair=        72
 NAB=    36 NAA=     0 NBB=     0.
 A-vector RMS=  1.3869266D-07 Max=  5.3640500D-07 conv= 1.00D-05.
 RLE energy=       -0.2440660609
 DE(Corr)= -0.24406603     E(CORR)=     -33.887794643     Delta=-7.62D-08
 NORM(A)=   0.10466444D+01
 CI/CC converged in   10 iterations to DelEn=-7.62D-08 Conv= 1.00D-07 ErrA1= 1.39D-07 Conv= 1.00D-05
 Wavefunction amplitudes converged. E(Corr)=     -33.887794643    
 Largest amplitude= 4.37D-02
 IPart=  4 IA=    2   12.50% done.
 IPart=  2 IA=    3   24.17% done.
 IPart=  3 IA=    4   35.00% done.
 IPart=  3 IA=    5   45.00% done.
 IPart=  2 IA=    6   54.17% done.
 IPart=  4 IA=    7   62.50% done.
 IPart=  1 IA=    8   70.00% done.
 IPart=  3 IA=   10   82.50% done.
 IPart=  1 IA=   12   91.67% done.
 Time for triples=        0.27 seconds.
 T4(CCSD)= -0.31896286D-02
 T5(CCSD)=  0.54550460D-03
 CCSD(T)= -0.33890438767D+02
 Discarding MO integrals.
 Leave Link  913 at Sun Dec 10 06:47:53 2023, MaxMem=   536870912 cpu:               1.0 elap:               0.3
 (Enter /usr/site/hpc/x86_64/glibc-2.17/broadwell/gaussian/g16_a.03/pgi-16.5/g16/l601.exe)
 Copying SCF densities to generalized density rwf, IOpCl= 0 IROHF=0.

 **********************************************************************

            Population analysis using the SCF density.

 **********************************************************************

 Orbital symmetries:
       Occupied  (A') (A') (A') (A') (A') (A') (A") (A")
       Virtual   (A') (A') (A') (A') (A') (A") (A') (A") (A') (A')
                 (A') (A') (A') (A') (A') (A')
 The electronic state is 1-A'.
 Alpha  occ. eigenvalues --   -1.34070  -1.32873  -0.69697  -0.68457  -0.54176
 Alpha  occ. eigenvalues --   -0.51405  -0.48607  -0.47297
 Alpha virt. eigenvalues --    0.20478   0.23674   0.31600   0.32588   0.78315
 Alpha virt. eigenvalues --    0.79223   0.83560   0.86233   0.93199   1.14308
 Alpha virt. eigenvalues --    1.18519   1.22146   1.23210   1.25170   2.59754
 Alpha virt. eigenvalues --    2.62583
          Condensed to atoms (all electrons):
               1          2          3          4          5          6
     1  O    6.213026   0.252773   0.264939  -0.010058   0.000107   0.001416
     2  H    0.252773   0.418664  -0.023902   0.000323  -0.000001  -0.000099
     3  H    0.264939  -0.023902   0.389649   0.000389  -0.000003  -0.000037
     4  O   -0.010058   0.000323   0.000389   6.206548   0.248429   0.264104
     5  H    0.000107  -0.000001  -0.000003   0.248429   0.429135  -0.024437
     6  H    0.001416  -0.000099  -0.000037   0.264104  -0.024437   0.395091
 Mulliken charges:
               1
     1  O   -0.722203
     2  H    0.352242
     3  H    0.368965
     4  O   -0.709735
     5  H    0.346770
     6  H    0.363961
 Sum of Mulliken charges =   0.00000
 Mulliken charges with hydrogens summed into heavy atoms:
               1
     1  O   -0.000996
     4  O    0.000996
 Electronic spatial extent (au):  <R**2>=            171.4759
 Charge=              0.0000 electrons
 Dipole moment (field-independent basis, Debye):
    X=             -1.7894    Y=             -0.8302    Z=              0.0000  Tot=              1.9726
 Quadrupole moment (field-independent basis, Debye-Ang):
   XX=             -9.1599   YY=              1.4904   ZZ=            -14.9873
   XY=             -2.0062   XZ=              0.0000   YZ=              0.0000
 Traceless Quadrupole moment (field-independent basis, Debye-Ang):
   XX=             -1.6076   YY=              9.0427   ZZ=             -7.4350
   XY=             -2.0062   XZ=              0.0000   YZ=              0.0000
 Octapole moment (field-independent basis, Debye-Ang**2):
  XXX=             -1.8278  YYY=             -0.3578  ZZZ=              0.0000  XYY=             -0.5236
  XXY=             -3.0208  XXZ=              0.0000  XZZ=             -0.3261  YZZ=             -0.1633
  YYZ=              0.0000  XYZ=              0.0000
 Hexadecapole moment (field-independent basis, Debye-Ang**3):
 XXXX=            -12.0053 YYYY=            -98.1512 ZZZZ=            -12.2211 XXXY=             -1.6158
 XXXZ=              0.0000 YYYX=              1.5289 YYYZ=              0.0000 ZZZX=              0.0000
 ZZZY=              0.0000 XXYY=            -22.2390 XXZZ=             -4.5960 YYZZ=            -38.1878
 XXYZ=              0.0000 YYXZ=              0.0000 ZZXY=              0.2845
 N-N= 2.436062755114D+01 E-N=-1.306399982129D+02  KE= 2.676292456927D+01
 Symmetry A'   KE= 1.787959188506D+01
 Symmetry A"   KE= 8.883332684211D+00
 Leave Link  601 at Sun Dec 10 06:47:53 2023, MaxMem=   536870912 cpu:               0.1 elap:               0.0
 (Enter /usr/site/hpc/x86_64/glibc-2.17/broadwell/gaussian/g16_a.03/pgi-16.5/g16/l9999.exe)
 1\1\GINC-N033\SP\RCCSD(T)-FC\CEP-31G\H4O2\ROOT\10-Dec-2023\0\\#p CCSD(
 T)/CEP-31G\\H2O_H2O_1237\\0,1\O,0,0.,-0.009833,0.\H,0,-0.799571,-0.580
 965,0.\H,0,0.799571,-0.580965,0.\O,0,-0.006953,2.897484,0.\H,0,0.15457
 8,3.866718,0.\H,0,-0.976187,2.735953,0.\\Version=ES64L-G16RevA.03\Stat
 e=1-A'\HF=-33.6437286\MP2=-33.8731275\MP3=-33.8787143\MP4D=-33.8839558
 \MP4DQ=-33.88462\MP4SDQ=-33.8867289\CCSD=-33.8877946\CCSD(T)=-33.89043
 88\RMSD=8.823e-10\PG=CS [SG(H4O2)]\\@


 FORGIVE MY NONSENSE AS I ALSO FORGIVE THOSE WHO THINK THEY TALK SENSE

                                                       -- ROBERT FROST
 Job cpu time:       0 days  0 hours  0 minutes  3.4 seconds.
 Elapsed time:       0 days  0 hours  0 minutes  1.1 seconds.
 File lengths (MBytes):  RWF=     72 Int=      0 D2E=      0 Chk=      8 Scr=      8
 Normal termination of Gaussian 16 at Sun Dec 10 06:47:53 2023.
