 Entering Gaussian System, Link 0=g16
 Input=H2O_H2O_2576.com
 Output=H2O_H2O_2576.log
 Initial command:
 /usr/site/hpc/x86_64/glibc-2.17/broadwell/gaussian/g16_a.03/pgi-16.5/g16/l1.exe "/gpfs/gpfs1/scratch/c7441090/OO Coord/Gau-1728949.inp" -scrdir="/gpfs/gpfs1/scratch/c7441090/OO Coord/"
 Entering Link 1 = /usr/site/hpc/x86_64/glibc-2.17/broadwell/gaussian/g16_a.03/pgi-16.5/g16/l1.exe PID=   1728950.
  
 Copyright (c) 1988,1990,1992,1993,1995,1998,2003,2009,2016,
            Gaussian, Inc.  All Rights Reserved.
  
 This is part of the Gaussian(R) 16 program.  It is based on
 the Gaussian(R) 09 system (copyright 2009, Gaussian, Inc.),
 the Gaussian(R) 03 system (copyright 2003, Gaussian, Inc.),
 the Gaussian(R) 98 system (copyright 1998, Gaussian, Inc.),
 the Gaussian(R) 94 system (copyright 1995, Gaussian, Inc.),
 the Gaussian 92(TM) system (copyright 1992, Gaussian, Inc.),
 the Gaussian 90(TM) system (copyright 1990, Gaussian, Inc.),
 the Gaussian 88(TM) system (copyright 1988, Gaussian, Inc.),
 the Gaussian 86(TM) system (copyright 1986, Carnegie Mellon
 University), and the Gaussian 82(TM) system (copyright 1983,
 Carnegie Mellon University). Gaussian is a federally registered
 trademark of Gaussian, Inc.
  
 This software contains proprietary and confidential information,
 including trade secrets, belonging to Gaussian, Inc.
  
 This software is provided under written license and may be
 used, copied, transmitted, or stored only in accord with that
 written license.
  
 The following legend is applicable only to US Government
 contracts under FAR:
  
                    RESTRICTED RIGHTS LEGEND
  
 Use, reproduction and disclosure by the US Government is
 subject to restrictions as set forth in subparagraphs (a)
 and (c) of the Commercial Computer Software - Restricted
 Rights clause in FAR 52.227-19.
  
 Gaussian, Inc.
 340 Quinnipiac St., Bldg. 40, Wallingford CT 06492
  
  
 ---------------------------------------------------------------
 Warning -- This program may not be used in any manner that
 competes with the business of Gaussian, Inc. or will provide
 assistance to any competitor of Gaussian, Inc.  The licensee
 of this program is prohibited from giving any competitor of
 Gaussian, Inc. access to this program.  By using this program,
 the user acknowledges that Gaussian, Inc. is engaged in the
 business of creating and licensing software in the field of
 computational chemistry and represents and warrants to the
 licensee that it is not a competitor of Gaussian, Inc. and that
 it will not use this program in any manner prohibited above.
 ---------------------------------------------------------------
  

 Cite this work as:
 Gaussian 16, Revision A.03,
 M. J. Frisch, G. W. Trucks, H. B. Schlegel, G. E. Scuseria, 
 M. A. Robb, J. R. Cheeseman, G. Scalmani, V. Barone, 
 G. A. Petersson, H. Nakatsuji, X. Li, M. Caricato, A. V. Marenich, 
 J. Bloino, B. G. Janesko, R. Gomperts, B. Mennucci, H. P. Hratchian, 
 J. V. Ortiz, A. F. Izmaylov, J. L. Sonnenberg, D. Williams-Young, 
 F. Ding, F. Lipparini, F. Egidi, J. Goings, B. Peng, A. Petrone, 
 T. Henderson, D. Ranasinghe, V. G. Zakrzewski, J. Gao, N. Rega, 
 G. Zheng, W. Liang, M. Hada, M. Ehara, K. Toyota, R. Fukuda, 
 J. Hasegawa, M. Ishida, T. Nakajima, Y. Honda, O. Kitao, H. Nakai, 
 T. Vreven, K. Throssell, J. A. Montgomery, Jr., J. E. Peralta, 
 F. Ogliaro, M. J. Bearpark, J. J. Heyd, E. N. Brothers, K. N. Kudin, 
 V. N. Staroverov, T. A. Keith, R. Kobayashi, J. Normand, 
 K. Raghavachari, A. P. Rendell, J. C. Burant, S. S. Iyengar, 
 J. Tomasi, M. Cossi, J. M. Millam, M. Klene, C. Adamo, R. Cammi, 
 J. W. Ochterski, R. L. Martin, K. Morokuma, O. Farkas, 
 J. B. Foresman, and D. J. Fox, Gaussian, Inc., Wallingford CT, 2016.
 
 ******************************************
 Gaussian 16:  ES64L-G16RevA.03 25-Dec-2016
                10-Dec-2023 
 ******************************************
 %NProcShared=4
 Will use up to    4 processors via shared memory.
 %Mem=4GB
 %Chk=H2O_H2O_2576.chk
 ------------------
 #p CCSD(T)/CEP-31G
 ------------------
 1/38=1,172=1/1;
 2/12=2,17=6,18=5,40=1/2;
 3/5=9,6=1,11=9,25=1,30=1/1,2,3;
 4//1;
 5/5=2,38=5/2;
 8/6=4,9=120000,10=1/1,4;
 9/5=7,14=2/13;
 6/7=2,8=2,9=2,10=2/1;
 99/5=1,9=1/99;
 Leave Link    1 at Sun Dec 10 06:26:08 2023, MaxMem=   536870912 cpu:               0.2 elap:               0.1
 (Enter /usr/site/hpc/x86_64/glibc-2.17/broadwell/gaussian/g16_a.03/pgi-16.5/g16/l101.exe)
 ------------
 H2O_H2O_2576
 ------------
 Symbolic Z-matrix:
 Charge =  0 Multiplicity = 1
 O                     0.       -0.00983   0. 
 H                    -0.79957  -0.58097   0. 
 H                     0.79957  -0.58097   0. 
 O                    -0.00064   4.3363    0. 
 H                     0.75986   4.95851   0. 
 H                    -0.83586   4.85392   0. 
 
 ITRead=  0  0  0  0  0  0
 MicOpt= -1 -1 -1 -1 -1 -1
 NAtoms=      6 NQM=        6 NQMF=       0 NMMI=      0 NMMIF=      0
                NMic=       0 NMicF=      0.
                    Isotopes and Nuclear Properties:
 (Nuclear quadrupole moments (NQMom) in fm**2, nuclear magnetic moments (NMagM)
  in nuclear magnetons)

  Atom         1           2           3           4           5           6
 IAtWgt=          16           1           1          16           1           1
 AtmWgt=  15.9949146   1.0078250   1.0078250  15.9949146   1.0078250   1.0078250
 NucSpn=           0           1           1           0           1           1
 AtZEff=  -0.0000000  -0.0000000  -0.0000000  -0.0000000  -0.0000000  -0.0000000
 NQMom=    0.0000000   0.0000000   0.0000000   0.0000000   0.0000000   0.0000000
 NMagM=    0.0000000   2.7928460   2.7928460   0.0000000   2.7928460   2.7928460
 AtZNuc=   8.0000000   1.0000000   1.0000000   8.0000000   1.0000000   1.0000000
 Leave Link  101 at Sun Dec 10 06:26:08 2023, MaxMem=   536870912 cpu:               0.3 elap:               0.1
 (Enter /usr/site/hpc/x86_64/glibc-2.17/broadwell/gaussian/g16_a.03/pgi-16.5/g16/l202.exe)
                          Input orientation:                          
 ---------------------------------------------------------------------
 Center     Atomic      Atomic             Coordinates (Angstroms)
 Number     Number       Type             X           Y           Z
 ---------------------------------------------------------------------
      1          8           0        0.000000   -0.009833    0.000000
      2          1           0       -0.799571   -0.580965    0.000000
      3          1           0        0.799571   -0.580965    0.000000
      4          8           0       -0.000643    4.336301    0.000000
      5          1           0        0.759863    4.958505    0.000000
      6          1           0       -0.835856    4.853916    0.000000
 ---------------------------------------------------------------------
                    Distance matrix (angstroms):
                    1          2          3          4          5
     1  O    0.000000
     2  H    0.982601   0.000000
     3  H    0.982601   1.599142   0.000000
     4  O    4.346134   4.981746   4.981952   0.000000
     5  H    5.026109   5.754786   5.539612   0.982602   0.000000
     6  H    4.935049   5.435002   5.675610   0.982602   1.599143
                    6
     6  H    0.000000
 Stoichiometry    H4O2
 Framework group  CS[SG(H4O2)]
 Deg. of freedom     9
 Full point group                 CS      NOp   2
 Largest Abelian subgroup         CS      NOp   2
 Largest concise Abelian subgroup C1      NOp   1
                         Standard orientation:                         
 ---------------------------------------------------------------------
 Center     Atomic      Atomic             Coordinates (Angstroms)
 Number     Number       Type             X           Y           Z
 ---------------------------------------------------------------------
      1          8           0        0.003735   -2.172945    0.000000
      2          1           0       -0.795920   -2.743959    0.000000
      3          1           0        0.803222   -2.744196    0.000000
      4          8           0        0.003735    2.173189    0.000000
      5          1           0        0.764333    2.795280    0.000000
      6          1           0       -0.831401    2.690927    0.000000
 ---------------------------------------------------------------------
 Rotational constants (GHZ):         196.3140793           2.7857873           2.7468088
 Leave Link  202 at Sun Dec 10 06:26:08 2023, MaxMem=   536870912 cpu:               0.1 elap:               0.0
 (Enter /usr/site/hpc/x86_64/glibc-2.17/broadwell/gaussian/g16_a.03/pgi-16.5/g16/l301.exe)
 Standard basis: CEP-31G (6D, 10F)
 Ernie: Thresh=  0.10000D-02 Tol=  0.10000D-05 Strict=F.
 There are    20 symmetry adapted cartesian basis functions of A'  symmetry.
 There are     4 symmetry adapted cartesian basis functions of A"  symmetry.
 There are    20 symmetry adapted basis functions of A'  symmetry.
 There are     4 symmetry adapted basis functions of A"  symmetry.
    24 basis functions,    48 primitive gaussians,    24 cartesian basis functions
     8 alpha electrons        8 beta electrons
       nuclear repulsion energy        20.8980665239 Hartrees.
 IExCor=    0 DFT=F Ex=HF Corr=None ExCW=0 ScaHFX=  1.000000
 ScaDFX=  1.000000  1.000000  1.000000  1.000000 ScalE2=  1.000000  1.000000
 IRadAn=      5 IRanWt=     -1 IRanGd=            0 ICorTp=0 IEmpDi=  4
 NAtoms=    6 NActive=    6 NUniq=    6 SFac= 1.00D+00 NAtFMM=   60 NAOKFM=F Big=F
 Integral buffers will be    131072 words long.
 Raffenetti 1 integral format.
 Two-electron integral symmetry is turned on.
 Leave Link  301 at Sun Dec 10 06:26:08 2023, MaxMem=   536870912 cpu:               0.2 elap:               0.1
 (Enter /usr/site/hpc/x86_64/glibc-2.17/broadwell/gaussian/g16_a.03/pgi-16.5/g16/l302.exe)
 NPDir=0 NMtPBC=     1 NCelOv=     1 NCel=       1 NClECP=     1 NCelD=      1
         NCelK=      1 NCelE2=     1 NClLst=     1 CellRange=     0.0.
 One-electron integrals computed using PRISM.
 One-electron integral symmetry used in STVInt
   2 Symmetry operations used in ECPInt.
 ECPInt:  NShTT=      78 NPrTT=     318 LenC2=      79 LenP2D=     260.
 LDataN:  DoStor=T MaxTD1= 2 Len=   12
 NBasis=    24 RedAO= T EigKep=  3.85D-02  NBF=    20     4
 NBsUse=    24 1.00D-06 EigRej= -1.00D+00 NBFU=    20     4
 Leave Link  302 at Sun Dec 10 06:26:08 2023, MaxMem=   536870912 cpu:               0.3 elap:               0.1
 (Enter /usr/site/hpc/x86_64/glibc-2.17/broadwell/gaussian/g16_a.03/pgi-16.5/g16/l303.exe)
 DipDrv:  MaxL=1.
 Leave Link  303 at Sun Dec 10 06:26:08 2023, MaxMem=   536870912 cpu:               0.1 elap:               0.0
 (Enter /usr/site/hpc/x86_64/glibc-2.17/broadwell/gaussian/g16_a.03/pgi-16.5/g16/l401.exe)
 ExpMin= 1.78D-01 ExpMax= 1.92D+01 ExpMxC= 1.92D+01 IAcc=3 IRadAn=         5 AccDes= 0.00D+00
 Harris functional with IExCor=  205 and IRadAn=       5 diagonalized for initial guess.
 HarFok:  IExCor=  205 AccDes= 0.00D+00 IRadAn=         5 IDoV= 1 UseB2=F ITyADJ=14
 ICtDFT=  3500011 ScaDFX=  1.000000  1.000000  1.000000  1.000000
 FoFCou: FMM=F IPFlag=           0 FMFlag=      100000 FMFlg1=           0
         NFxFlg=           0 DoJE=T BraDBF=F KetDBF=T FulRan=T
         wScrn=  0.000000 ICntrl=       500 IOpCl=  0 I1Cent=   200000004 NGrid=           0
         NMat0=    1 NMatS0=      1 NMatT0=    0 NMatD0=    1 NMtDS0=    0 NMtDT0=    0
 Petite list used in FoFCou.
 Harris En= -34.4764315401506    
 JPrj=0 DoOrth=F DoCkMO=F.
 Initial guess orbital symmetries:
       Occupied  (A') (A') (A') (A') (A') (A') (A") (A")
       Virtual   (A') (A') (A') (A') (A') (A") (A") (A') (A') (A')
                 (A') (A') (A') (A') (A') (A')
 The electronic state of the initial guess is 1-A'.
 Leave Link  401 at Sun Dec 10 06:26:08 2023, MaxMem=   536870912 cpu:               0.4 elap:               0.1
 (Enter /usr/site/hpc/x86_64/glibc-2.17/broadwell/gaussian/g16_a.03/pgi-16.5/g16/l502.exe)
 Keep R1 ints in memory in symmetry-blocked form, NReq=852053.
 FoFCou: FMM=F IPFlag=           0 FMFlag=           0 FMFlg1=           0
         NFxFlg=           0 DoJE=F BraDBF=F KetDBF=F FulRan=T
         wScrn=  0.000000 ICntrl=       600 IOpCl=  0 I1Cent=           0 NGrid=           0
         NMat0=    1 NMatS0=    300 NMatT0=    0 NMatD0=    1 NMtDS0=    0 NMtDT0=    0
 Petite list used in FoFCou.
 Closed shell SCF:
 Using DIIS extrapolation, IDIIS=  1040.
 NGot=   536870912 LenX=   536840576 LenY=   536839559
 Requested convergence on RMS density matrix=1.00D-08 within 128 cycles.
 Requested convergence on MAX density matrix=1.00D-06.
 Requested convergence on             energy=1.00D-06.
 No special actions if energy rises.

 Cycle   1  Pass 1  IDiag  1:
 E= -33.5518966309171    
 DIIS: error= 6.98D-02 at cycle   1 NSaved=   1.
 NSaved= 1 IEnMin= 1 EnMin= -33.5518966309171     IErMin= 1 ErrMin= 6.98D-02
 ErrMax= 6.98D-02  0.00D+00 EMaxC= 1.00D-01 BMatC= 1.03D-01 BMatP= 1.03D-01
 IDIUse=3 WtCom= 3.02D-01 WtEn= 6.98D-01
 Coeff-Com:  0.100D+01
 Coeff-En:   0.100D+01
 Coeff:      0.100D+01
 Gap=     0.600 Goal=   None    Shift=    0.000
 GapD=    0.600 DampG=2.000 DampE=0.500 DampFc=1.0000 IDamp=-1.
 RMSDP=1.51D-02 MaxDP=1.18D-01              OVMax= 1.01D-01

 Cycle   2  Pass 1  IDiag  1:
 E= -33.6160103656679     Delta-E=       -0.064113734751 Rises=F Damp=F
 DIIS: error= 3.78D-02 at cycle   2 NSaved=   2.
 NSaved= 2 IEnMin= 2 EnMin= -33.6160103656679     IErMin= 2 ErrMin= 3.78D-02
 ErrMax= 3.78D-02  0.00D+00 EMaxC= 1.00D-01 BMatC= 3.90D-02 BMatP= 1.03D-01
 IDIUse=3 WtCom= 6.22D-01 WtEn= 3.78D-01
 Coeff-Com:  0.378D+00 0.622D+00
 Coeff-En:   0.107D+00 0.893D+00
 Coeff:      0.276D+00 0.724D+00
 Gap=     0.705 Goal=   None    Shift=    0.000
 RMSDP=6.50D-03 MaxDP=5.50D-02 DE=-6.41D-02 OVMax= 3.66D-02

 Cycle   3  Pass 1  IDiag  1:
 E= -33.6471629994596     Delta-E=       -0.031152633792 Rises=F Damp=F
 DIIS: error= 7.43D-03 at cycle   3 NSaved=   3.
 NSaved= 3 IEnMin= 3 EnMin= -33.6471629994596     IErMin= 3 ErrMin= 7.43D-03
 ErrMax= 7.43D-03  0.00D+00 EMaxC= 1.00D-01 BMatC= 9.60D-04 BMatP= 3.90D-02
 IDIUse=3 WtCom= 9.26D-01 WtEn= 7.43D-02
 Coeff-Com: -0.115D+00-0.132D-01 0.113D+01
 Coeff-En:   0.000D+00 0.000D+00 0.100D+01
 Coeff:     -0.106D+00-0.122D-01 0.112D+01
 Gap=     0.697 Goal=   None    Shift=    0.000
 RMSDP=1.15D-03 MaxDP=9.58D-03 DE=-3.12D-02 OVMax= 8.42D-03

 Cycle   4  Pass 1  IDiag  1:
 E= -33.6481277842902     Delta-E=       -0.000964784831 Rises=F Damp=F
 DIIS: error= 7.93D-04 at cycle   4 NSaved=   4.
 NSaved= 4 IEnMin= 4 EnMin= -33.6481277842902     IErMin= 4 ErrMin= 7.93D-04
 ErrMax= 7.93D-04  0.00D+00 EMaxC= 1.00D-01 BMatC= 6.50D-06 BMatP= 9.60D-04
 IDIUse=3 WtCom= 9.92D-01 WtEn= 7.93D-03
 Coeff-Com:  0.433D-01-0.190D-01-0.512D+00 0.149D+01
 Coeff-En:   0.000D+00 0.000D+00 0.000D+00 0.100D+01
 Coeff:      0.429D-01-0.189D-01-0.508D+00 0.148D+01
 Gap=     0.699 Goal=   None    Shift=    0.000
 RMSDP=2.42D-04 MaxDP=2.09D-03 DE=-9.65D-04 OVMax= 9.83D-04

 Cycle   5  Pass 1  IDiag  1:
 E= -33.6481418370353     Delta-E=       -0.000014052745 Rises=F Damp=F
 DIIS: error= 5.58D-05 at cycle   5 NSaved=   5.
 NSaved= 5 IEnMin= 5 EnMin= -33.6481418370353     IErMin= 5 ErrMin= 5.58D-05
 ErrMax= 5.58D-05  0.00D+00 EMaxC= 1.00D-01 BMatC= 4.82D-08 BMatP= 6.50D-06
 IDIUse=1 WtCom= 1.00D+00 WtEn= 0.00D+00
 Coeff-Com: -0.731D-02 0.355D-02 0.868D-01-0.306D+00 0.122D+01
 Coeff:     -0.731D-02 0.355D-02 0.868D-01-0.306D+00 0.122D+01
 Gap=     0.699 Goal=   None    Shift=    0.000
 RMSDP=1.77D-05 MaxDP=1.69D-04 DE=-1.41D-05 OVMax= 1.17D-04

 Cycle   6  Pass 1  IDiag  1:
 E= -33.6481419583536     Delta-E=       -0.000000121318 Rises=F Damp=F
 DIIS: error= 1.19D-05 at cycle   6 NSaved=   6.
 NSaved= 6 IEnMin= 6 EnMin= -33.6481419583536     IErMin= 6 ErrMin= 1.19D-05
 ErrMax= 1.19D-05  0.00D+00 EMaxC= 1.00D-01 BMatC= 2.60D-09 BMatP= 4.82D-08
 IDIUse=1 WtCom= 1.00D+00 WtEn= 0.00D+00
 Coeff-Com:  0.132D-02-0.492D-03-0.149D-01 0.605D-01-0.420D+00 0.137D+01
 Coeff:      0.132D-02-0.492D-03-0.149D-01 0.605D-01-0.420D+00 0.137D+01
 Gap=     0.699 Goal=   None    Shift=    0.000
 RMSDP=4.29D-06 MaxDP=4.31D-05 DE=-1.21D-07 OVMax= 3.71D-05

 Cycle   7  Pass 1  IDiag  1:
 E= -33.6481419655349     Delta-E=       -0.000000007181 Rises=F Damp=F
 DIIS: error= 2.26D-06 at cycle   7 NSaved=   7.
 NSaved= 7 IEnMin= 7 EnMin= -33.6481419655349     IErMin= 7 ErrMin= 2.26D-06
 ErrMax= 2.26D-06  0.00D+00 EMaxC= 1.00D-01 BMatC= 1.07D-10 BMatP= 2.60D-09
 IDIUse=1 WtCom= 1.00D+00 WtEn= 0.00D+00
 Coeff-Com:  0.322D-04-0.865D-04-0.675D-03-0.880D-03 0.747D-01-0.446D+00
 Coeff-Com:  0.137D+01
 Coeff:      0.322D-04-0.865D-04-0.675D-03-0.880D-03 0.747D-01-0.446D+00
 Coeff:      0.137D+01
 Gap=     0.699 Goal=   None    Shift=    0.000
 RMSDP=1.18D-06 MaxDP=8.29D-06 DE=-7.18D-09 OVMax= 8.76D-06

 Cycle   8  Pass 1  IDiag  1:
 E= -33.6481419658481     Delta-E=       -0.000000000313 Rises=F Damp=F
 DIIS: error= 3.77D-07 at cycle   8 NSaved=   8.
 NSaved= 8 IEnMin= 8 EnMin= -33.6481419658481     IErMin= 8 ErrMin= 3.77D-07
 ErrMax= 3.77D-07  0.00D+00 EMaxC= 1.00D-01 BMatC= 3.09D-12 BMatP= 1.07D-10
 IDIUse=1 WtCom= 1.00D+00 WtEn= 0.00D+00
 Coeff-Com:  0.496D-05 0.231D-04 0.682D-04 0.925D-03-0.304D-01 0.176D+00
 Coeff-Com: -0.606D+00 0.146D+01
 Coeff:      0.496D-05 0.231D-04 0.682D-04 0.925D-03-0.304D-01 0.176D+00
 Coeff:     -0.606D+00 0.146D+01
 Gap=     0.699 Goal=   None    Shift=    0.000
 RMSDP=2.63D-07 MaxDP=1.22D-06 DE=-3.13D-10 OVMax= 1.76D-06

 Cycle   9  Pass 1  IDiag  1:
 E= -33.6481419658568     Delta-E=       -0.000000000009 Rises=F Damp=F
 DIIS: error= 4.32D-08 at cycle   9 NSaved=   9.
 NSaved= 9 IEnMin= 9 EnMin= -33.6481419658568     IErMin= 9 ErrMin= 4.32D-08
 ErrMax= 4.32D-08  0.00D+00 EMaxC= 1.00D-01 BMatC= 7.12D-14 BMatP= 3.09D-12
 IDIUse=1 WtCom= 1.00D+00 WtEn= 0.00D+00
 Coeff-Com:  0.243D-05 0.672D-05 0.909D-05 0.318D-03-0.925D-02 0.528D-01
 Coeff-Com: -0.178D+00 0.364D+00 0.770D+00
 Coeff:      0.243D-05 0.672D-05 0.909D-05 0.318D-03-0.925D-02 0.528D-01
 Coeff:     -0.178D+00 0.364D+00 0.770D+00
 Gap=     0.699 Goal=   None    Shift=    0.000
 RMSDP=2.05D-08 MaxDP=9.76D-08 DE=-8.71D-12 OVMax= 1.23D-07

 Cycle  10  Pass 1  IDiag  1:
 E= -33.6481419658568     Delta-E=       -0.000000000000 Rises=F Damp=F
 DIIS: error= 7.96D-09 at cycle  10 NSaved=  10.
 NSaved=10 IEnMin=10 EnMin= -33.6481419658568     IErMin=10 ErrMin= 7.96D-09
 ErrMax= 7.96D-09  0.00D+00 EMaxC= 1.00D-01 BMatC= 3.72D-15 BMatP= 7.12D-14
 IDIUse=1 WtCom= 1.00D+00 WtEn= 0.00D+00
 Coeff-Com:  0.140D-06-0.231D-05-0.134D-04-0.612D-04 0.273D-02-0.162D-01
 Coeff-Com:  0.558D-01-0.145D+00 0.311D-01 0.107D+01
 Coeff:      0.140D-06-0.231D-05-0.134D-04-0.612D-04 0.273D-02-0.162D-01
 Coeff:      0.558D-01-0.145D+00 0.311D-01 0.107D+01
 Gap=     0.699 Goal=   None    Shift=    0.000
 RMSDP=9.59D-09 MaxDP=4.43D-08 DE=-4.26D-14 OVMax= 5.45D-08

 SCF Done:  E(RHF) =  -33.6481419659     A.U. after   10 cycles
            NFock= 10  Conv=0.96D-08     -V/T= 2.2571
 KE= 2.676688948470D+01 PE=-1.235777446101D+02 EE= 4.226464663561D+01
 Leave Link  502 at Sun Dec 10 06:26:08 2023, MaxMem=   536870912 cpu:               0.3 elap:               0.1
 (Enter /usr/site/hpc/x86_64/glibc-2.17/broadwell/gaussian/g16_a.03/pgi-16.5/g16/l801.exe)
 Windowed orbitals will be sorted by symmetry type.
 Range of M.O.s used for correlation:     1    24
 NBasis=    24 NAE=     8 NBE=     8 NFC=     0 NFV=     0
 NROrb=     24 NOA=     8 NOB=     8 NVA=    16 NVB=    16
 Leave Link  801 at Sun Dec 10 06:26:08 2023, MaxMem=   536870912 cpu:               0.1 elap:               0.0
 (Enter /usr/site/hpc/x86_64/glibc-2.17/broadwell/gaussian/g16_a.03/pgi-16.5/g16/l804.exe)
 Closed-shell transformation, MDV=   536870912 ITran=4 ISComp=2.
 Unit  1 TFree=       1025975 TCopy=        210600.
 Semi-Direct transformation.
 ModeAB=           2 MOrb=             8 LenV=     536742206
 LASXX=        22470 LTotXX=       22470 LenRXX=       22470
 LTotAB=       26208 MaxLAS=       57600 LenRXY=       57600
 NonZer=       61440 LenScr=      524288 LnRSAI=           0
 LnScr1=           0 LExtra=           0 Total=       604358
 MaxDsk=          -1 SrtSym=           F ITran=            4
 DoSDTr:  NPSUse=  4
 JobTyp=0 Pass  1:  I=   1 to   8.
 (rs|ai) integrals will be sorted in core.
 Complete sort for first half transformation.
 First half transformation complete.
 Complete sort for second half transformation.
 Second half transformation complete.
 Spin components of T(2) and E(2):
     alpha-alpha T2 =       0.9081319690D-02 E2=     -0.2589719705D-01
     alpha-beta  T2 =       0.6011272701D-01 E2=     -0.1768089703D+00
     beta-beta   T2 =       0.9081319690D-02 E2=     -0.2589719705D-01
 ANorm=    0.1038400388D+01
 E2 =    -0.2286033644D+00 EUMP2 =    -0.33876745330252D+02
 Leave Link  804 at Sun Dec 10 06:26:08 2023, MaxMem=   536870912 cpu:               0.2 elap:               0.1
 (Enter /usr/site/hpc/x86_64/glibc-2.17/broadwell/gaussian/g16_a.03/pgi-16.5/g16/l913.exe)
 CIDS:  MDV=   536870912.
 IFCWin=0 IBDFC=1 NFBD=     0     0 NFCmp=     0     0 NFFFC=     0     0
 Using DD3R+UMP44R for 1st iteration.
 Using DD4RQ for 2nd and later iterations.
 Keep R2 and R3 ints in memory in symmetry-blocked form, NReq=864661.
 FoFCou: FMM=F IPFlag=           0 FMFlag=           0 FMFlg1=           0
         NFxFlg=           0 DoJE=F BraDBF=F KetDBF=F FulRan=T
         wScrn=  0.000000 ICntrl=       600 IOpCl=  0 I1Cent=           0 NGrid=           0
         NMat0=    1 NMatS0=    300 NMatT0=    0 NMatD0=    1 NMtDS0=    0 NMtDT0=    0
 Petite list used in FoFCou.
 CIDS: In Core Option IDoMem=           1.
 CCSD(T)
 =======
 Iterations=  50 Convergence= 0.100D-06
 Produce multiple copies of IABC intergrals
 Iteration Nr.   1
 **********************
 DD1Dir will call FoFMem   1 times, MxPair=        72
 NAB=    36 NAA=     0 NBB=     0.
 MP4(R+Q)= -0.72205661D-03
 Maximum subspace dimension=  5
 A-vector RMS=  5.7882009D-03 Max=  1.3267580D-02 conv= 1.00D-05.
 RLE energy=       -0.2347146793
 E3=       -0.55053240D-02        EUMP3=      -0.33882250654D+02
 E4(DQ)=   -0.59246075D-02        UMP4(DQ)=   -0.33888175262D+02
 E4(SDQ)=  -0.79642642D-02        UMP4(SDQ)=  -0.33890214918D+02
 VARIATIONAL ENERGIES WITH THE FIRST-ORDER WAVEFUNCTION:
 DE(Corr)= -0.23455590     E(Corr)=     -33.882697864    
 NORM(A)=   0.10418760D+01
 Iteration Nr.   2
 **********************
 DD1Dir will call FoFMem   1 times, MxPair=        72
 NAB=    36 NAA=     0 NBB=     0.
 A-vector RMS=  9.8903027D-04 Max=  1.9586437D-03 conv= 1.00D-05.
 RLE energy=       -0.2425335267
 DE(Corr)= -0.24058036     E(CORR)=     -33.888722327     Delta=-6.02D-03
 NORM(A)=   0.10457081D+01
 Iteration Nr.   3
 **********************
 DD1Dir will call FoFMem   1 times, MxPair=        72
 NAB=    36 NAA=     0 NBB=     0.
 A-vector RMS=  3.9516959D-04 Max=  1.2535524D-03 conv= 1.00D-05.
 RLE energy=       -0.2430872491
 DE(Corr)= -0.24263501     E(CORR)=     -33.890776974     Delta=-2.05D-03
 NORM(A)=   0.10462801D+01
 Iteration Nr.   4
 **********************
 DD1Dir will call FoFMem   1 times, MxPair=        72
 NAB=    36 NAA=     0 NBB=     0.
 A-vector RMS=  9.6373812D-05 Max=  2.8210459D-04 conv= 1.00D-05.
 RLE energy=       -0.2431353515
 DE(Corr)= -0.24309856     E(CORR)=     -33.891240527     Delta=-4.64D-04
 NORM(A)=   0.10463582D+01
 Iteration Nr.   5
 **********************
 DD1Dir will call FoFMem   1 times, MxPair=        72
 NAB=    36 NAA=     0 NBB=     0.
 A-vector RMS=  4.3672537D-05 Max=  1.6789961D-04 conv= 1.00D-05.
 RLE energy=       -0.2431335389
 DE(Corr)= -0.24313137     E(CORR)=     -33.891273333     Delta=-3.28D-05
 NORM(A)=   0.10463700D+01
 Iteration Nr.   6
 **********************
 DD1Dir will call FoFMem   1 times, MxPair=        72
 NAB=    36 NAA=     0 NBB=     0.
 A-vector RMS=  1.1995446D-05 Max=  4.7803848D-05 conv= 1.00D-05.
 RLE energy=       -0.2431325254
 DE(Corr)= -0.24313365     E(CORR)=     -33.891275617     Delta=-2.28D-06
 NORM(A)=   0.10463738D+01
 Iteration Nr.   7
 **********************
 DD1Dir will call FoFMem   1 times, MxPair=        72
 NAB=    36 NAA=     0 NBB=     0.
 A-vector RMS=  3.5354456D-06 Max=  1.5165235D-05 conv= 1.00D-05.
 RLE energy=       -0.2431334917
 DE(Corr)= -0.24313298     E(CORR)=     -33.891274945     Delta= 6.71D-07
 NORM(A)=   0.10463753D+01
 Iteration Nr.   8
 **********************
 DD1Dir will call FoFMem   1 times, MxPair=        72
 NAB=    36 NAA=     0 NBB=     0.
 A-vector RMS=  7.5087163D-07 Max=  3.4750187D-06 conv= 1.00D-05.
 RLE energy=       -0.2431329698
 DE(Corr)= -0.24313301     E(CORR)=     -33.891274978     Delta=-3.25D-08
 NORM(A)=   0.10463754D+01
 CI/CC converged in    8 iterations to DelEn=-3.25D-08 Conv= 1.00D-07 ErrA1= 7.51D-07 Conv= 1.00D-05
 Wavefunction amplitudes converged. E(Corr)=     -33.891274978    
 Largest amplitude= 2.94D-02
 IPart=  4 IA=    2   12.50% done.
 IPart=  2 IA=    3   24.17% done.
 IPart=  3 IA=    4   35.00% done.
 IPart=  3 IA=    5   45.00% done.
 IPart=  4 IA=    6   54.17% done.
 IPart=  2 IA=    7   62.50% done.
 IPart=  1 IA=    8   70.00% done.
 IPart=  4 IA=   10   82.50% done.
 IPart=  3 IA=   12   91.67% done.
 Time for triples=        0.25 seconds.
 T4(CCSD)= -0.31057996D-02
 T5(CCSD)=  0.52942958D-03
 CCSD(T)= -0.33893851348D+02
 Discarding MO integrals.
 Leave Link  913 at Sun Dec 10 06:26:09 2023, MaxMem=   536870912 cpu:               0.9 elap:               0.2
 (Enter /usr/site/hpc/x86_64/glibc-2.17/broadwell/gaussian/g16_a.03/pgi-16.5/g16/l601.exe)
 Copying SCF densities to generalized density rwf, IOpCl= 0 IROHF=0.

 **********************************************************************

            Population analysis using the SCF density.

 **********************************************************************

 Orbital symmetries:
       Occupied  (A') (A') (A') (A') (A') (A') (A") (A")
       Virtual   (A') (A') (A') (A') (A") (A") (A') (A') (A') (A')
                 (A') (A') (A') (A') (A') (A')
 The electronic state is 1-A'.
 Alpha  occ. eigenvalues --   -1.34348  -1.34342  -0.69971  -0.69963  -0.53977
 Alpha  occ. eigenvalues --   -0.53750  -0.48877  -0.48850
 Alpha virt. eigenvalues --    0.21053   0.21401   0.31410   0.31501   0.81471
 Alpha virt. eigenvalues --    0.81899   0.82074   0.87487   0.88300   0.88595
 Alpha virt. eigenvalues --    1.18403   1.18407   1.22835   1.22961   2.58371
 Alpha virt. eigenvalues --    2.58650
          Condensed to atoms (all electrons):
               1          2          3          4          5          6
     1  O    6.206790   0.260659   0.260970   0.000050   0.000001   0.000001
     2  H    0.260659   0.399203  -0.023825   0.000001  -0.000000  -0.000000
     3  H    0.260970  -0.023825   0.398344   0.000001  -0.000000  -0.000000
     4  O    0.000050   0.000001   0.000001   6.206780   0.260552   0.261071
     5  H    0.000001  -0.000000  -0.000000   0.260552   0.399384  -0.023827
     6  H    0.000001  -0.000000  -0.000000   0.261071  -0.023827   0.398192
 Mulliken charges:
               1
     1  O   -0.728471
     2  H    0.363962
     3  H    0.364509
     4  O   -0.728455
     5  H    0.363891
     6  H    0.364564
 Sum of Mulliken charges =   0.00000
 Mulliken charges with hydrogens summed into heavy atoms:
               1
     1  O    0.000000
     4  O   -0.000000
 Electronic spatial extent (au):  <R**2>=            328.0853
 Charge=              0.0000 electrons
 Dipole moment (field-independent basis, Debye):
    X=             -0.1712    Y=             -0.0058    Z=              0.0000  Tot=              0.1713
 Quadrupole moment (field-independent basis, Debye-Ang):
   XX=             -8.0862   YY=             10.8815   ZZ=            -14.9846
   XY=             -0.2637   XZ=              0.0000   YZ=              0.0000
 Traceless Quadrupole moment (field-independent basis, Debye-Ang):
   XX=             -4.0231   YY=             14.9446   ZZ=            -10.9215
   XY=             -0.2637   XZ=              0.0000   YZ=              0.0000
 Octapole moment (field-independent basis, Debye-Ang**2):
  XXX=             -0.2712  YYY=             -0.0145  ZZZ=              0.0000  XYY=             -0.0991
  XXY=             -0.0354  XXZ=              0.0000  XZZ=             -0.0319  YZZ=             -0.0011
  YYZ=              0.0000  XYZ=              0.0000
 Hexadecapole moment (field-independent basis, Debye-Ang**3):
 XXXX=            -12.0874 YYYY=           -140.6722 ZZZZ=            -12.2142 XXXY=             -0.4799
 XXXZ=              0.0000 YYYX=              0.9304 YYYZ=              0.0000 ZZZX=              0.0000
 ZZZY=              0.0000 XXYY=            -33.5812 XXZZ=             -4.6281 YYZZ=            -78.4330
 XXYZ=              0.0000 YYXZ=              0.0000 ZZXY=              0.0429
 N-N= 2.089806652390D+01 E-N=-1.235777445274D+02  KE= 2.676688948470D+01
 Symmetry A'   KE= 1.787944085607D+01
 Symmetry A"   KE= 8.887448628631D+00
 Leave Link  601 at Sun Dec 10 06:26:09 2023, MaxMem=   536870912 cpu:               0.1 elap:               0.0
 (Enter /usr/site/hpc/x86_64/glibc-2.17/broadwell/gaussian/g16_a.03/pgi-16.5/g16/l9999.exe)
 1\1\GINC-N045\SP\RCCSD(T)-FC\CEP-31G\H4O2\ROOT\10-Dec-2023\0\\#p CCSD(
 T)/CEP-31G\\H2O_H2O_2576\\0,1\O,0,0.,-0.009833,0.\H,0,-0.799571,-0.580
 965,0.\H,0,0.799571,-0.580965,0.\O,0,-0.000643,4.336301,0.\H,0,0.75986
 3,4.958505,0.\H,0,-0.835856,4.853916,0.\\Version=ES64L-G16RevA.03\Stat
 e=1-A'\HF=-33.648142\MP2=-33.8767453\MP3=-33.8822507\MP4D=-33.8874532\
 MP4DQ=-33.8881753\MP4SDQ=-33.8902149\CCSD=-33.891275\CCSD(T)=-33.89385
 13\RMSD=9.586e-09\PG=CS [SG(H4O2)]\\@


            ARSENIC

 FOR SMELTER FUMES HAVE I BEEN NAMED,
    I AM AN EVIL POISONOUS SMOKE...
 BUT WHEN FROM POISON I AM FREED,
    THROUGH ART AND SLEIGHT OF HAND,
 THEN CAN I CURE BOTH MAN AND BEAST,
    FROM DIRE DISEASE OFTTIMES DIRECT THEM;
 BUT PREPARE ME CORRECTLY, AND TAKE GREAT CARE
    THAT YOU FAITHFULLY KEEP WATCHFUL GUARD OVER ME;
 FOR ELSE I AM POISON, AND POISON REMAIN,
    THAT PIERCES THE HEART OF MANY A ONE.

 ATTRIBUTED TO THE PROBABLY MYTHICAL 15TH
 CENTURY MONK, BASILIUS VALENTINUS
 Job cpu time:       0 days  0 hours  0 minutes  3.3 seconds.
 Elapsed time:       0 days  0 hours  0 minutes  1.0 seconds.
 File lengths (MBytes):  RWF=     72 Int=      0 D2E=      0 Chk=      8 Scr=      8
 Normal termination of Gaussian 16 at Sun Dec 10 06:26:09 2023.
