 Entering Gaussian System, Link 0=g16
 Input=H2O_H2O_4244.com
 Output=H2O_H2O_4244.log
 Initial command:
 /usr/site/hpc/x86_64/glibc-2.17/broadwell/gaussian/g16_a.03/pgi-16.5/g16/l1.exe "/gpfs/gpfs1/scratch/c7441090/OO Coord/Gau-1806340.inp" -scrdir="/gpfs/gpfs1/scratch/c7441090/OO Coord/"
 Entering Link 1 = /usr/site/hpc/x86_64/glibc-2.17/broadwell/gaussian/g16_a.03/pgi-16.5/g16/l1.exe PID=   1806341.
  
 Copyright (c) 1988,1990,1992,1993,1995,1998,2003,2009,2016,
            Gaussian, Inc.  All Rights Reserved.
  
 This is part of the Gaussian(R) 16 program.  It is based on
 the Gaussian(R) 09 system (copyright 2009, Gaussian, Inc.),
 the Gaussian(R) 03 system (copyright 2003, Gaussian, Inc.),
 the Gaussian(R) 98 system (copyright 1998, Gaussian, Inc.),
 the Gaussian(R) 94 system (copyright 1995, Gaussian, Inc.),
 the Gaussian 92(TM) system (copyright 1992, Gaussian, Inc.),
 the Gaussian 90(TM) system (copyright 1990, Gaussian, Inc.),
 the Gaussian 88(TM) system (copyright 1988, Gaussian, Inc.),
 the Gaussian 86(TM) system (copyright 1986, Carnegie Mellon
 University), and the Gaussian 82(TM) system (copyright 1983,
 Carnegie Mellon University). Gaussian is a federally registered
 trademark of Gaussian, Inc.
  
 This software contains proprietary and confidential information,
 including trade secrets, belonging to Gaussian, Inc.
  
 This software is provided under written license and may be
 used, copied, transmitted, or stored only in accord with that
 written license.
  
 The following legend is applicable only to US Government
 contracts under FAR:
  
                    RESTRICTED RIGHTS LEGEND
  
 Use, reproduction and disclosure by the US Government is
 subject to restrictions as set forth in subparagraphs (a)
 and (c) of the Commercial Computer Software - Restricted
 Rights clause in FAR 52.227-19.
  
 Gaussian, Inc.
 340 Quinnipiac St., Bldg. 40, Wallingford CT 06492
  
  
 ---------------------------------------------------------------
 Warning -- This program may not be used in any manner that
 competes with the business of Gaussian, Inc. or will provide
 assistance to any competitor of Gaussian, Inc.  The licensee
 of this program is prohibited from giving any competitor of
 Gaussian, Inc. access to this program.  By using this program,
 the user acknowledges that Gaussian, Inc. is engaged in the
 business of creating and licensing software in the field of
 computational chemistry and represents and warrants to the
 licensee that it is not a competitor of Gaussian, Inc. and that
 it will not use this program in any manner prohibited above.
 ---------------------------------------------------------------
  

 Cite this work as:
 Gaussian 16, Revision A.03,
 M. J. Frisch, G. W. Trucks, H. B. Schlegel, G. E. Scuseria, 
 M. A. Robb, J. R. Cheeseman, G. Scalmani, V. Barone, 
 G. A. Petersson, H. Nakatsuji, X. Li, M. Caricato, A. V. Marenich, 
 J. Bloino, B. G. Janesko, R. Gomperts, B. Mennucci, H. P. Hratchian, 
 J. V. Ortiz, A. F. Izmaylov, J. L. Sonnenberg, D. Williams-Young, 
 F. Ding, F. Lipparini, F. Egidi, J. Goings, B. Peng, A. Petrone, 
 T. Henderson, D. Ranasinghe, V. G. Zakrzewski, J. Gao, N. Rega, 
 G. Zheng, W. Liang, M. Hada, M. Ehara, K. Toyota, R. Fukuda, 
 J. Hasegawa, M. Ishida, T. Nakajima, Y. Honda, O. Kitao, H. Nakai, 
 T. Vreven, K. Throssell, J. A. Montgomery, Jr., J. E. Peralta, 
 F. Ogliaro, M. J. Bearpark, J. J. Heyd, E. N. Brothers, K. N. Kudin, 
 V. N. Staroverov, T. A. Keith, R. Kobayashi, J. Normand, 
 K. Raghavachari, A. P. Rendell, J. C. Burant, S. S. Iyengar, 
 J. Tomasi, M. Cossi, J. M. Millam, M. Klene, C. Adamo, R. Cammi, 
 J. W. Ochterski, R. L. Martin, K. Morokuma, O. Farkas, 
 J. B. Foresman, and D. J. Fox, Gaussian, Inc., Wallingford CT, 2016.
 
 ******************************************
 Gaussian 16:  ES64L-G16RevA.03 25-Dec-2016
                10-Dec-2023 
 ******************************************
 %NProcShared=4
 Will use up to    4 processors via shared memory.
 %Mem=4GB
 %Chk=H2O_H2O_4244.chk
 ------------------
 #p CCSD(T)/CEP-31G
 ------------------
 1/38=1,172=1/1;
 2/12=2,17=6,18=5,40=1/2;
 3/5=9,6=1,11=9,25=1,30=1/1,2,3;
 4//1;
 5/5=2,38=5/2;
 8/6=4,9=120000,10=1/1,4;
 9/5=7,14=2/13;
 6/7=2,8=2,9=2,10=2/1;
 99/5=1,9=1/99;
 Leave Link    1 at Sun Dec 10 06:56:28 2023, MaxMem=   536870912 cpu:               0.2 elap:               0.1
 (Enter /usr/site/hpc/x86_64/glibc-2.17/broadwell/gaussian/g16_a.03/pgi-16.5/g16/l101.exe)
 ------------
 H2O_H2O_4244
 ------------
 Symbolic Z-matrix:
 Charge =  0 Multiplicity = 1
 O                     0.       -0.00983   0. 
 H                    -0.79957  -0.58097   0. 
 H                     0.79957  -0.58097   0. 
 O                    -0.00931   6.08471   0. 
 H                    -0.29312   7.02543   0. 
 H                    -0.80715   5.51116   0. 
 
 ITRead=  0  0  0  0  0  0
 MicOpt= -1 -1 -1 -1 -1 -1
 NAtoms=      6 NQM=        6 NQMF=       0 NMMI=      0 NMMIF=      0
                NMic=       0 NMicF=      0.
                    Isotopes and Nuclear Properties:
 (Nuclear quadrupole moments (NQMom) in fm**2, nuclear magnetic moments (NMagM)
  in nuclear magnetons)

  Atom         1           2           3           4           5           6
 IAtWgt=          16           1           1          16           1           1
 AtmWgt=  15.9949146   1.0078250   1.0078250  15.9949146   1.0078250   1.0078250
 NucSpn=           0           1           1           0           1           1
 AtZEff=  -0.0000000  -0.0000000  -0.0000000  -0.0000000  -0.0000000  -0.0000000
 NQMom=    0.0000000   0.0000000   0.0000000   0.0000000   0.0000000   0.0000000
 NMagM=    0.0000000   2.7928460   2.7928460   0.0000000   2.7928460   2.7928460
 AtZNuc=   8.0000000   1.0000000   1.0000000   8.0000000   1.0000000   1.0000000
 Leave Link  101 at Sun Dec 10 06:56:28 2023, MaxMem=   536870912 cpu:               0.3 elap:               0.1
 (Enter /usr/site/hpc/x86_64/glibc-2.17/broadwell/gaussian/g16_a.03/pgi-16.5/g16/l202.exe)
                          Input orientation:                          
 ---------------------------------------------------------------------
 Center     Atomic      Atomic             Coordinates (Angstroms)
 Number     Number       Type             X           Y           Z
 ---------------------------------------------------------------------
      1          8           0        0.000000   -0.009833    0.000000
      2          1           0       -0.799571   -0.580965    0.000000
      3          1           0        0.799571   -0.580965    0.000000
      4          8           0       -0.009311    6.084710    0.000000
      5          1           0       -0.293120    7.025432    0.000000
      6          1           0       -0.807147    5.511156    0.000000
 ---------------------------------------------------------------------
                    Distance matrix (angstroms):
                    1          2          3          4          5
     1  O    0.000000
     2  H    0.982601   0.000000
     3  H    0.982601   1.599142   0.000000
     4  O    6.094550   6.712357   6.714575   0.000000
     5  H    7.041369   7.623239   7.684481   0.982601   0.000000
     6  H    5.579678   6.092126   6.300435   0.982602   1.599142
                    6
     6  H    0.000000
 Stoichiometry    H4O2
 Framework group  CS[SG(H4O2)]
 Deg. of freedom     9
 Full point group                 CS      NOp   2
 Largest Abelian subgroup         CS      NOp   2
 Largest concise Abelian subgroup C1      NOp   1
                         Standard orientation:                         
 ---------------------------------------------------------------------
 Center     Atomic      Atomic             Coordinates (Angstroms)
 Number     Number       Type             X           Y           Z
 ---------------------------------------------------------------------
      1          8           0        0.054141   -3.008603    0.000000
      2          1           0       -0.746301   -3.578513    0.000000
      3          1           0        0.852839   -3.580956    0.000000
      4          8           0        0.054141    3.085947    0.000000
      5          1           0       -0.228230    4.027102    0.000000
      6          1           0       -0.744570    2.513613    0.000000
 ---------------------------------------------------------------------
 Rotational constants (GHZ):         259.1618409           1.4620622           1.4538602
 Leave Link  202 at Sun Dec 10 06:56:28 2023, MaxMem=   536870912 cpu:               0.0 elap:               0.0
 (Enter /usr/site/hpc/x86_64/glibc-2.17/broadwell/gaussian/g16_a.03/pgi-16.5/g16/l301.exe)
 Standard basis: CEP-31G (6D, 10F)
 Ernie: Thresh=  0.10000D-02 Tol=  0.10000D-05 Strict=F.
 There are    20 symmetry adapted cartesian basis functions of A'  symmetry.
 There are     4 symmetry adapted cartesian basis functions of A"  symmetry.
 There are    20 symmetry adapted basis functions of A'  symmetry.
 There are     4 symmetry adapted basis functions of A"  symmetry.
    24 basis functions,    48 primitive gaussians,    24 cartesian basis functions
     8 alpha electrons        8 beta electrons
       nuclear repulsion energy        18.9877305919 Hartrees.
 IExCor=    0 DFT=F Ex=HF Corr=None ExCW=0 ScaHFX=  1.000000
 ScaDFX=  1.000000  1.000000  1.000000  1.000000 ScalE2=  1.000000  1.000000
 IRadAn=      5 IRanWt=     -1 IRanGd=            0 ICorTp=0 IEmpDi=  4
 NAtoms=    6 NActive=    6 NUniq=    6 SFac= 1.00D+00 NAtFMM=   60 NAOKFM=F Big=F
 Integral buffers will be    131072 words long.
 Raffenetti 1 integral format.
 Two-electron integral symmetry is turned on.
 Leave Link  301 at Sun Dec 10 06:56:28 2023, MaxMem=   536870912 cpu:               0.2 elap:               0.1
 (Enter /usr/site/hpc/x86_64/glibc-2.17/broadwell/gaussian/g16_a.03/pgi-16.5/g16/l302.exe)
 NPDir=0 NMtPBC=     1 NCelOv=     1 NCel=       1 NClECP=     1 NCelD=      1
         NCelK=      1 NCelE2=     1 NClLst=     1 CellRange=     0.0.
 One-electron integrals computed using PRISM.
 One-electron integral symmetry used in STVInt
   2 Symmetry operations used in ECPInt.
 ECPInt:  NShTT=      78 NPrTT=     318 LenC2=      76 LenP2D=     242.
 LDataN:  DoStor=T MaxTD1= 2 Len=   12
 NBasis=    24 RedAO= T EigKep=  3.86D-02  NBF=    20     4
 NBsUse=    24 1.00D-06 EigRej= -1.00D+00 NBFU=    20     4
 Leave Link  302 at Sun Dec 10 06:56:28 2023, MaxMem=   536870912 cpu:               0.3 elap:               0.1
 (Enter /usr/site/hpc/x86_64/glibc-2.17/broadwell/gaussian/g16_a.03/pgi-16.5/g16/l303.exe)
 DipDrv:  MaxL=1.
 Leave Link  303 at Sun Dec 10 06:56:28 2023, MaxMem=   536870912 cpu:               0.1 elap:               0.0
 (Enter /usr/site/hpc/x86_64/glibc-2.17/broadwell/gaussian/g16_a.03/pgi-16.5/g16/l401.exe)
 ExpMin= 1.78D-01 ExpMax= 1.92D+01 ExpMxC= 1.92D+01 IAcc=3 IRadAn=         5 AccDes= 0.00D+00
 Harris functional with IExCor=  205 and IRadAn=       5 diagonalized for initial guess.
 HarFok:  IExCor=  205 AccDes= 0.00D+00 IRadAn=         5 IDoV= 1 UseB2=F ITyADJ=14
 ICtDFT=  3500011 ScaDFX=  1.000000  1.000000  1.000000  1.000000
 FoFCou: FMM=F IPFlag=           0 FMFlag=      100000 FMFlg1=           0
         NFxFlg=           0 DoJE=T BraDBF=F KetDBF=T FulRan=T
         wScrn=  0.000000 ICntrl=       500 IOpCl=  0 I1Cent=   200000004 NGrid=           0
         NMat0=    1 NMatS0=      1 NMatT0=    0 NMatD0=    1 NMtDS0=    0 NMtDT0=    0
 Petite list used in FoFCou.
 Harris En= -34.4763692786792    
 JPrj=0 DoOrth=F DoCkMO=F.
 Initial guess orbital symmetries:
       Occupied  (A') (A') (A') (A') (A') (A') (A") (A")
       Virtual   (A') (A') (A') (A') (A") (A") (A') (A') (A') (A')
                 (A') (A') (A') (A') (A') (A')
 The electronic state of the initial guess is 1-A'.
 Leave Link  401 at Sun Dec 10 06:56:28 2023, MaxMem=   536870912 cpu:               0.4 elap:               0.1
 (Enter /usr/site/hpc/x86_64/glibc-2.17/broadwell/gaussian/g16_a.03/pgi-16.5/g16/l502.exe)
 Keep R1 ints in memory in symmetry-blocked form, NReq=851780.
 FoFCou: FMM=F IPFlag=           0 FMFlag=           0 FMFlg1=           0
         NFxFlg=           0 DoJE=F BraDBF=F KetDBF=F FulRan=T
         wScrn=  0.000000 ICntrl=       600 IOpCl=  0 I1Cent=           0 NGrid=           0
         NMat0=    1 NMatS0=    300 NMatT0=    0 NMatD0=    1 NMtDS0=    0 NMtDT0=    0
 Petite list used in FoFCou.
 Closed shell SCF:
 Using DIIS extrapolation, IDIIS=  1040.
 NGot=   536870912 LenX=   536840576 LenY=   536839559
 Requested convergence on RMS density matrix=1.00D-08 within 128 cycles.
 Requested convergence on MAX density matrix=1.00D-06.
 Requested convergence on             energy=1.00D-06.
 No special actions if energy rises.

 Cycle   1  Pass 1  IDiag  1:
 E= -33.5571709118612    
 DIIS: error= 6.88D-02 at cycle   1 NSaved=   1.
 NSaved= 1 IEnMin= 1 EnMin= -33.5571709118612     IErMin= 1 ErrMin= 6.88D-02
 ErrMax= 6.88D-02  0.00D+00 EMaxC= 1.00D-01 BMatC= 1.02D-01 BMatP= 1.02D-01
 IDIUse=3 WtCom= 3.12D-01 WtEn= 6.88D-01
 Coeff-Com:  0.100D+01
 Coeff-En:   0.100D+01
 Coeff:      0.100D+01
 Gap=     0.606 Goal=   None    Shift=    0.000
 GapD=    0.606 DampG=2.000 DampE=0.500 DampFc=1.0000 IDamp=-1.
 RMSDP=1.48D-02 MaxDP=1.17D-01              OVMax= 9.93D-02

 Cycle   2  Pass 1  IDiag  1:
 E= -33.6201049360674     Delta-E=       -0.062934024206 Rises=F Damp=F
 DIIS: error= 3.74D-02 at cycle   2 NSaved=   2.
 NSaved= 2 IEnMin= 2 EnMin= -33.6201049360674     IErMin= 2 ErrMin= 3.74D-02
 ErrMax= 3.74D-02  0.00D+00 EMaxC= 1.00D-01 BMatC= 3.83D-02 BMatP= 1.02D-01
 IDIUse=3 WtCom= 6.26D-01 WtEn= 3.74D-01
 Coeff-Com:  0.377D+00 0.623D+00
 Coeff-En:   0.109D+00 0.891D+00
 Coeff:      0.277D+00 0.723D+00
 Gap=     0.703 Goal=   None    Shift=    0.000
 RMSDP=6.41D-03 MaxDP=5.43D-02 DE=-6.29D-02 OVMax= 3.58D-02

 Cycle   3  Pass 1  IDiag  1:
 E= -33.6507235677085     Delta-E=       -0.030618631641 Rises=F Damp=F
 DIIS: error= 7.18D-03 at cycle   3 NSaved=   3.
 NSaved= 3 IEnMin= 3 EnMin= -33.6507235677085     IErMin= 3 ErrMin= 7.18D-03
 ErrMax= 7.18D-03  0.00D+00 EMaxC= 1.00D-01 BMatC= 9.06D-04 BMatP= 3.83D-02
 IDIUse=3 WtCom= 9.28D-01 WtEn= 7.18D-02
 Coeff-Com: -0.114D+00-0.159D-01 0.113D+01
 Coeff-En:   0.000D+00 0.000D+00 0.100D+01
 Coeff:     -0.106D+00-0.148D-01 0.112D+01
 Gap=     0.695 Goal=   None    Shift=    0.000
 RMSDP=1.08D-03 MaxDP=9.29D-03 DE=-3.06D-02 OVMax= 8.09D-03

 Cycle   4  Pass 1  IDiag  1:
 E= -33.6516278421099     Delta-E=       -0.000904274401 Rises=F Damp=F
 DIIS: error= 7.57D-04 at cycle   4 NSaved=   4.
 NSaved= 4 IEnMin= 4 EnMin= -33.6516278421099     IErMin= 4 ErrMin= 7.57D-04
 ErrMax= 7.57D-04  0.00D+00 EMaxC= 1.00D-01 BMatC= 5.94D-06 BMatP= 9.06D-04
 IDIUse=3 WtCom= 9.92D-01 WtEn= 7.57D-03
 Coeff-Com:  0.438D-01-0.177D-01-0.525D+00 0.150D+01
 Coeff-En:   0.000D+00 0.000D+00 0.000D+00 0.100D+01
 Coeff:      0.435D-01-0.176D-01-0.521D+00 0.150D+01
 Gap=     0.697 Goal=   None    Shift=    0.000
 RMSDP=2.36D-04 MaxDP=2.03D-03 DE=-9.04D-04 OVMax= 9.62D-04

 Cycle   5  Pass 1  IDiag  1:
 E= -33.6516410068698     Delta-E=       -0.000013164760 Rises=F Damp=F
 DIIS: error= 5.04D-05 at cycle   5 NSaved=   5.
 NSaved= 5 IEnMin= 5 EnMin= -33.6516410068698     IErMin= 5 ErrMin= 5.04D-05
 ErrMax= 5.04D-05  0.00D+00 EMaxC= 1.00D-01 BMatC= 3.91D-08 BMatP= 5.94D-06
 IDIUse=1 WtCom= 1.00D+00 WtEn= 0.00D+00
 Coeff-Com: -0.708D-02 0.321D-02 0.859D-01-0.294D+00 0.121D+01
 Coeff:     -0.708D-02 0.321D-02 0.859D-01-0.294D+00 0.121D+01
 Gap=     0.697 Goal=   None    Shift=    0.000
 RMSDP=1.59D-05 MaxDP=1.52D-04 DE=-1.32D-05 OVMax= 1.04D-04

 Cycle   6  Pass 1  IDiag  1:
 E= -33.6516411038546     Delta-E=       -0.000000096985 Rises=F Damp=F
 DIIS: error= 1.09D-05 at cycle   6 NSaved=   6.
 NSaved= 6 IEnMin= 6 EnMin= -33.6516411038546     IErMin= 6 ErrMin= 1.09D-05
 ErrMax= 1.09D-05  0.00D+00 EMaxC= 1.00D-01 BMatC= 2.21D-09 BMatP= 3.91D-08
 IDIUse=1 WtCom= 1.00D+00 WtEn= 0.00D+00
 Coeff-Com:  0.115D-02-0.402D-03-0.134D-01 0.525D-01-0.388D+00 0.135D+01
 Coeff:      0.115D-02-0.402D-03-0.134D-01 0.525D-01-0.388D+00 0.135D+01
 Gap=     0.697 Goal=   None    Shift=    0.000
 RMSDP=3.91D-06 MaxDP=4.10D-05 DE=-9.70D-08 OVMax= 3.54D-05

 Cycle   7  Pass 1  IDiag  1:
 E= -33.6516411098541     Delta-E=       -0.000000005999 Rises=F Damp=F
 DIIS: error= 2.29D-06 at cycle   7 NSaved=   7.
 NSaved= 7 IEnMin= 7 EnMin= -33.6516411098541     IErMin= 7 ErrMin= 2.29D-06
 ErrMax= 2.29D-06  0.00D+00 EMaxC= 1.00D-01 BMatC= 1.51D-10 BMatP= 2.21D-09
 IDIUse=1 WtCom= 1.00D+00 WtEn= 0.00D+00
 Coeff-Com:  0.450D-03-0.215D-03-0.546D-02 0.183D-01-0.668D-01 0.566D-02
 Coeff-Com:  0.105D+01
 Coeff:      0.450D-03-0.215D-03-0.546D-02 0.183D-01-0.668D-01 0.566D-02
 Coeff:      0.105D+01
 Gap=     0.697 Goal=   None    Shift=    0.000
 RMSDP=9.32D-07 MaxDP=8.19D-06 DE=-6.00D-09 OVMax= 8.57D-06

 Cycle   8  Pass 1  IDiag  1:
 E= -33.6516411101623     Delta-E=       -0.000000000308 Rises=F Damp=F
 DIIS: error= 7.33D-07 at cycle   8 NSaved=   8.
 NSaved= 8 IEnMin= 8 EnMin= -33.6516411101623     IErMin= 8 ErrMin= 7.33D-07
 ErrMax= 7.33D-07  0.00D+00 EMaxC= 1.00D-01 BMatC= 2.51D-11 BMatP= 1.51D-10
 IDIUse=1 WtCom= 1.00D+00 WtEn= 0.00D+00
 Coeff-Com: -0.387D-06-0.249D-04-0.710D-04-0.838D-03 0.314D-01-0.177D+00
 Coeff-Com:  0.258D+00 0.889D+00
 Coeff:     -0.387D-06-0.249D-04-0.710D-04-0.838D-03 0.314D-01-0.177D+00
 Coeff:      0.258D+00 0.889D+00
 Gap=     0.697 Goal=   None    Shift=    0.000
 RMSDP=3.67D-07 MaxDP=2.84D-06 DE=-3.08D-10 OVMax= 3.00D-06

 Cycle   9  Pass 1  IDiag  1:
 E= -33.6516411102024     Delta-E=       -0.000000000040 Rises=F Damp=F
 DIIS: error= 1.86D-07 at cycle   9 NSaved=   9.
 NSaved= 9 IEnMin= 9 EnMin= -33.6516411102024     IErMin= 9 ErrMin= 1.86D-07
 ErrMax= 1.86D-07  0.00D+00 EMaxC= 1.00D-01 BMatC= 7.11D-13 BMatP= 2.51D-11
 IDIUse=1 WtCom= 1.00D+00 WtEn= 0.00D+00
 Coeff-Com:  0.359D-05 0.739D-05-0.659D-05 0.409D-03-0.124D-01 0.729D-01
 Coeff-Com: -0.143D+00-0.346D+00 0.143D+01
 Coeff:      0.359D-05 0.739D-05-0.659D-05 0.409D-03-0.124D-01 0.729D-01
 Coeff:     -0.143D+00-0.346D+00 0.143D+01
 Gap=     0.697 Goal=   None    Shift=    0.000
 RMSDP=1.27D-07 MaxDP=5.87D-07 DE=-4.02D-11 OVMax= 8.55D-07

 Cycle  10  Pass 1  IDiag  1:
 E= -33.6516411102044     Delta-E=       -0.000000000002 Rises=F Damp=F
 DIIS: error= 8.60D-09 at cycle  10 NSaved=  10.
 NSaved=10 IEnMin=10 EnMin= -33.6516411102044     IErMin=10 ErrMin= 8.60D-09
 ErrMax= 8.60D-09  0.00D+00 EMaxC= 1.00D-01 BMatC= 2.79D-15 BMatP= 7.11D-13
 IDIUse=1 WtCom= 1.00D+00 WtEn= 0.00D+00
 Coeff-Com:  0.843D-07-0.196D-05-0.961D-05-0.566D-04 0.272D-02-0.167D-01
 Coeff-Com:  0.334D-01 0.776D-01-0.374D+00 0.128D+01
 Coeff:      0.843D-07-0.196D-05-0.961D-05-0.566D-04 0.272D-02-0.167D-01
 Coeff:      0.334D-01 0.776D-01-0.374D+00 0.128D+01
 Gap=     0.697 Goal=   None    Shift=    0.000
 RMSDP=1.18D-08 MaxDP=5.54D-08 DE=-1.93D-12 OVMax= 6.79D-08

 Cycle  11  Pass 1  IDiag  1:
 E= -33.6516411102044     Delta-E=        0.000000000000 Rises=F Damp=F
 DIIS: error= 3.70D-10 at cycle  11 NSaved=  11.
 NSaved=11 IEnMin=10 EnMin= -33.6516411102044     IErMin=11 ErrMin= 3.70D-10
 ErrMax= 3.70D-10  0.00D+00 EMaxC= 1.00D-01 BMatC= 3.75D-18 BMatP= 2.79D-15
 IDIUse=1 WtCom= 1.00D+00 WtEn= 0.00D+00
 Coeff-Com: -0.766D-07 0.338D-06 0.230D-05 0.716D-05-0.449D-03 0.279D-02
 Coeff-Com: -0.566D-02-0.130D-01 0.641D-01-0.238D+00 0.119D+01
 Coeff:     -0.766D-07 0.338D-06 0.230D-05 0.716D-05-0.449D-03 0.279D-02
 Coeff:     -0.566D-02-0.130D-01 0.641D-01-0.238D+00 0.119D+01
 Gap=     0.697 Goal=   None    Shift=    0.000
 RMSDP=2.25D-10 MaxDP=1.09D-09 DE= 0.00D+00 OVMax= 9.13D-10

 SCF Done:  E(RHF) =  -33.6516411102     A.U. after   11 cycles
            NFock= 11  Conv=0.22D-09     -V/T= 2.2569
 KE= 2.677252828336D+01 PE=-1.196226521038D+02 EE= 4.021075211832D+01
 Leave Link  502 at Sun Dec 10 06:56:28 2023, MaxMem=   536870912 cpu:               0.3 elap:               0.1
 (Enter /usr/site/hpc/x86_64/glibc-2.17/broadwell/gaussian/g16_a.03/pgi-16.5/g16/l801.exe)
 Windowed orbitals will be sorted by symmetry type.
 Range of M.O.s used for correlation:     1    24
 NBasis=    24 NAE=     8 NBE=     8 NFC=     0 NFV=     0
 NROrb=     24 NOA=     8 NOB=     8 NVA=    16 NVB=    16
 Leave Link  801 at Sun Dec 10 06:56:29 2023, MaxMem=   536870912 cpu:               0.1 elap:               0.0
 (Enter /usr/site/hpc/x86_64/glibc-2.17/broadwell/gaussian/g16_a.03/pgi-16.5/g16/l804.exe)
 Closed-shell transformation, MDV=   536870912 ITran=4 ISComp=2.
 Unit  1 TFree=       1025975 TCopy=        210600.
 Semi-Direct transformation.
 ModeAB=           4 MOrb=             8 LenV=     536742629
 LASXX=        22470 LTotXX=       22470 LenRXX=       48678
 LTotAB=       26208 MaxLAS=       55296 LenRXY=           0
 NonZer=       71148 LenScr=      524288 LnRSAI=       55296
 LnScr1=      524288 LExtra=           0 Total=      1152550
 MaxDsk=          -1 SrtSym=           T ITran=            4
 DoSDTr:  NPSUse=  4
 JobTyp=0 Pass  1:  I=   1 to   8.
 (rs|ai) integrals will be sorted in core.
 Complete sort for first half transformation.
 First half transformation complete.
 Complete sort for second half transformation.
 Second half transformation complete.
 Spin components of T(2) and E(2):
     alpha-alpha T2 =       0.9068085970D-02 E2=     -0.2589146059D-01
     alpha-beta  T2 =       0.5994829558D-01 E2=     -0.1766137924D+00
     beta-beta   T2 =       0.9068085970D-02 E2=     -0.2589146059D-01
 ANorm=    0.1038308465D+01
 E2 =    -0.2283967136D+00 EUMP2 =    -0.33880037823823D+02
 Leave Link  804 at Sun Dec 10 06:56:29 2023, MaxMem=   536870912 cpu:               0.2 elap:               0.1
 (Enter /usr/site/hpc/x86_64/glibc-2.17/broadwell/gaussian/g16_a.03/pgi-16.5/g16/l913.exe)
 CIDS:  MDV=   536870912.
 IFCWin=0 IBDFC=1 NFBD=     0     0 NFCmp=     0     0 NFFFC=     0     0
 Using DD3R+UMP44R for 1st iteration.
 Using DD4RQ for 2nd and later iterations.
 Keep R2 and R3 ints in memory in symmetry-blocked form, NReq=864388.
 FoFCou: FMM=F IPFlag=           0 FMFlag=           0 FMFlg1=           0
         NFxFlg=           0 DoJE=F BraDBF=F KetDBF=F FulRan=T
         wScrn=  0.000000 ICntrl=       600 IOpCl=  0 I1Cent=           0 NGrid=           0
         NMat0=    1 NMatS0=    300 NMatT0=    0 NMatD0=    1 NMtDS0=    0 NMtDT0=    0
 Petite list used in FoFCou.
 CIDS: In Core Option IDoMem=           1.
 CCSD(T)
 =======
 Iterations=  50 Convergence= 0.100D-06
 Produce multiple copies of IABC intergrals
 Iteration Nr.   1
 **********************
 DD1Dir will call FoFMem   1 times, MxPair=        72
 NAB=    36 NAA=     0 NBB=     0.
 MP4(R+Q)= -0.73966183D-03
 Maximum subspace dimension=  5
 A-vector RMS=  5.7599414D-03 Max=  1.3216669D-02 conv= 1.00D-05.
 RLE energy=       -0.2344647477
 E3=       -0.54461709D-02        EUMP3=      -0.33885483995D+02
 E4(DQ)=   -0.59128783D-02        UMP4(DQ)=   -0.33891396873D+02
 E4(SDQ)=  -0.79410073D-02        UMP4(SDQ)=  -0.33893425002D+02
 VARIATIONAL ENERGIES WITH THE FIRST-ORDER WAVEFUNCTION:
 DE(Corr)= -0.23430804     E(Corr)=     -33.885949154    
 NORM(A)=   0.10417488D+01
 Iteration Nr.   2
 **********************
 DD1Dir will call FoFMem   1 times, MxPair=        72
 NAB=    36 NAA=     0 NBB=     0.
 A-vector RMS=  9.8349300D-04 Max=  2.7372134D-03 conv= 1.00D-05.
 RLE energy=       -0.2422436586
 DE(Corr)= -0.24029831     E(CORR)=     -33.891939418     Delta=-5.99D-03
 NORM(A)=   0.10455476D+01
 Iteration Nr.   3
 **********************
 DD1Dir will call FoFMem   1 times, MxPair=        72
 NAB=    36 NAA=     0 NBB=     0.
 A-vector RMS=  3.8445449D-04 Max=  1.1601324D-03 conv= 1.00D-05.
 RLE energy=       -0.2427944885
 DE(Corr)= -0.24234633     E(CORR)=     -33.893987436     Delta=-2.05D-03
 NORM(A)=   0.10461103D+01
 Iteration Nr.   4
 **********************
 DD1Dir will call FoFMem   1 times, MxPair=        72
 NAB=    36 NAA=     0 NBB=     0.
 A-vector RMS=  9.2712264D-05 Max=  2.5004216D-04 conv= 1.00D-05.
 RLE energy=       -0.2428414612
 DE(Corr)= -0.24280543     E(CORR)=     -33.894446539     Delta=-4.59D-04
 NORM(A)=   0.10461850D+01
 Iteration Nr.   5
 **********************
 DD1Dir will call FoFMem   1 times, MxPair=        72
 NAB=    36 NAA=     0 NBB=     0.
 A-vector RMS=  4.1729552D-05 Max=  1.5269621D-04 conv= 1.00D-05.
 RLE energy=       -0.2428396739
 DE(Corr)= -0.24283765     E(CORR)=     -33.894478763     Delta=-3.22D-05
 NORM(A)=   0.10461957D+01
 Iteration Nr.   6
 **********************
 DD1Dir will call FoFMem   1 times, MxPair=        72
 NAB=    36 NAA=     0 NBB=     0.
 A-vector RMS=  1.1368255D-05 Max=  4.0521350D-05 conv= 1.00D-05.
 RLE energy=       -0.2428388253
 DE(Corr)= -0.24283983     E(CORR)=     -33.894480936     Delta=-2.17D-06
 NORM(A)=   0.10461992D+01
 Iteration Nr.   7
 **********************
 DD1Dir will call FoFMem   1 times, MxPair=        72
 NAB=    36 NAA=     0 NBB=     0.
 A-vector RMS=  3.3353494D-06 Max=  1.1959930D-05 conv= 1.00D-05.
 RLE energy=       -0.2428397439
 DE(Corr)= -0.24283920     E(CORR)=     -33.894480312     Delta= 6.24D-07
 NORM(A)=   0.10462007D+01
 Iteration Nr.   8
 **********************
 DD1Dir will call FoFMem   1 times, MxPair=        72
 NAB=    36 NAA=     0 NBB=     0.
 A-vector RMS=  5.5463776D-07 Max=  1.7550090D-06 conv= 1.00D-05.
 RLE energy=       -0.2428392539
 DE(Corr)= -0.24283926     E(CORR)=     -33.894480368     Delta=-5.57D-08
 NORM(A)=   0.10462007D+01
 CI/CC converged in    8 iterations to DelEn=-5.57D-08 Conv= 1.00D-07 ErrA1= 5.55D-07 Conv= 1.00D-05
 Wavefunction amplitudes converged. E(Corr)=     -33.894480368    
 Largest amplitude= 5.86D-02
 IPart=  3 IA=    2   12.50% done.
 IPart=  2 IA=    3   24.17% done.
 IPart=  4 IA=    4   35.00% done.
 IPart=  4 IA=    5   45.00% done.
 IPart=  2 IA=    6   54.17% done.
 IPart=  3 IA=    7   62.50% done.
 IPart=  1 IA=    8   70.00% done.
 IPart=  3 IA=   10   82.50% done.
 IPart=  4 IA=   12   91.67% done.
 Time for triples=        0.24 seconds.
 T4(CCSD)= -0.30882883D-02
 T5(CCSD)=  0.52648370D-03
 CCSD(T)= -0.33897042172D+02
 Discarding MO integrals.
 Leave Link  913 at Sun Dec 10 06:56:29 2023, MaxMem=   536870912 cpu:               0.8 elap:               0.2
 (Enter /usr/site/hpc/x86_64/glibc-2.17/broadwell/gaussian/g16_a.03/pgi-16.5/g16/l601.exe)
 Copying SCF densities to generalized density rwf, IOpCl= 0 IROHF=0.

 **********************************************************************

            Population analysis using the SCF density.

 **********************************************************************

 Orbital symmetries:
       Occupied  (A') (A') (A') (A') (A') (A') (A") (A")
       Virtual   (A') (A') (A') (A') (A") (A") (A') (A') (A') (A')
                 (A') (A') (A') (A') (A') (A')
 The electronic state is 1-A'.
 Alpha  occ. eigenvalues --   -1.35510  -1.34888  -0.71143  -0.70507  -0.55237
 Alpha  occ. eigenvalues --   -0.54608  -0.50080  -0.49458
 Alpha virt. eigenvalues --    0.20253   0.20892   0.30492   0.31120   0.80473
 Alpha virt. eigenvalues --    0.81085   0.83509   0.84137   0.86617   0.87303
 Alpha virt. eigenvalues --    1.17385   1.18003   1.21844   1.22473   2.57406
 Alpha virt. eigenvalues --    2.58023
          Condensed to atoms (all electrons):
               1          2          3          4          5          6
     1  O    6.214043   0.262581   0.263991  -0.000000   0.000000   0.000000
     2  H    0.262581   0.392153  -0.023556   0.000000  -0.000000  -0.000000
     3  H    0.263991  -0.023556   0.387771   0.000000  -0.000000  -0.000000
     4  O   -0.000000   0.000000   0.000000   6.214096   0.261907   0.264256
     5  H    0.000000  -0.000000  -0.000000   0.261907   0.394596  -0.023596
     6  H    0.000000  -0.000000  -0.000000   0.264256  -0.023596   0.386175
 Mulliken charges:
               1
     1  O   -0.740615
     2  H    0.368822
     3  H    0.371794
     4  O   -0.740259
     5  H    0.367093
     6  H    0.373166
 Sum of Mulliken charges =  -0.00000
 Mulliken charges with hydrogens summed into heavy atoms:
               1
     1  O    0.000000
     4  O   -0.000000
 Electronic spatial extent (au):  <R**2>=            587.2579
 Charge=             -0.0000 electrons
 Dipole moment (field-independent basis, Debye):
    X=             -2.4978    Y=             -1.8115    Z=              0.0000  Tot=              3.0856
 Quadrupole moment (field-independent basis, Debye-Ang):
   XX=             -9.9419   YY=             10.9549   ZZ=            -14.9885
   XY=             -7.2906   XZ=              0.0000   YZ=              0.0000
 Traceless Quadrupole moment (field-independent basis, Debye-Ang):
   XX=             -5.2834   YY=             15.6134   ZZ=            -10.3300
   XY=             -7.2906   XZ=              0.0000   YZ=              0.0000
 Octapole moment (field-independent basis, Debye-Ang**2):
  XXX=             -1.5070  YYY=            -32.9081  ZZZ=              0.0000  XYY=            -20.1843
  XXY=             -7.8024  XXZ=              0.0000  XZZ=             -0.4688  YZZ=             -0.3438
  YYZ=              0.0000  XYZ=              0.0000
 Hexadecapole moment (field-independent basis, Debye-Ang**3):
 XXXX=            -12.5303 YYYY=           -181.4662 ZZZZ=            -12.2210 XXXY=             -0.5349
 XXXZ=              0.0000 YYYX=            -65.2011 YYYZ=              0.0000 ZZZX=              0.0000
 ZZZY=              0.0000 XXYY=            -94.2807 XXZZ=             -4.5436 YYZZ=           -146.6431
 XXYZ=              0.0000 YYXZ=              0.0000 ZZXY=              0.9907
 N-N= 1.898773059190D+01 E-N=-1.196226521086D+02  KE= 2.677252828336D+01
 Symmetry A'   KE= 1.788916823141D+01
 Symmetry A"   KE= 8.883360051944D+00
 Leave Link  601 at Sun Dec 10 06:56:29 2023, MaxMem=   536870912 cpu:               0.1 elap:               0.0
 (Enter /usr/site/hpc/x86_64/glibc-2.17/broadwell/gaussian/g16_a.03/pgi-16.5/g16/l9999.exe)
 1\1\GINC-N045\SP\RCCSD(T)-FC\CEP-31G\H4O2\ROOT\10-Dec-2023\0\\#p CCSD(
 T)/CEP-31G\\H2O_H2O_4244\\0,1\O,0,0.,-0.009833,0.\H,0,-0.799571,-0.580
 965,0.\H,0,0.799571,-0.580965,0.\O,0,-0.009311,6.08471,0.\H,0,-0.29312
 ,7.025432,0.\H,0,-0.807147,5.511156,0.\\Version=ES64L-G16RevA.03\State
 =1-A'\HF=-33.6516411\MP2=-33.8800378\MP3=-33.885484\MP4D=-33.8906572\M
 P4DQ=-33.8913969\MP4SDQ=-33.893425\CCSD=-33.8944804\CCSD(T)=-33.897042
 2\RMSD=2.245e-10\PG=CS [SG(H4O2)]\\@


 HONESTY IN A LAWYER IS LIKE A HEN'S HIND LEGS.
  -- MAGNUS OLESON, LAKE WOBEGON PATRIARCH, C.1875
 Job cpu time:       0 days  0 hours  0 minutes  3.1 seconds.
 Elapsed time:       0 days  0 hours  0 minutes  1.0 seconds.
 File lengths (MBytes):  RWF=     72 Int=      0 D2E=      0 Chk=      8 Scr=      8
 Normal termination of Gaussian 16 at Sun Dec 10 06:56:29 2023.
