 Entering Gaussian System, Link 0=g16
 Input=H2O_H2O_4666.com
 Output=H2O_H2O_4666.log
 Initial command:
 /usr/site/hpc/x86_64/glibc-2.17/broadwell/gaussian/g16_a.03/pgi-16.5/g16/l1.exe "/gpfs/gpfs1/scratch/c7441090/OO Coord/Gau-1826631.inp" -scrdir="/gpfs/gpfs1/scratch/c7441090/OO Coord/"
 Entering Link 1 = /usr/site/hpc/x86_64/glibc-2.17/broadwell/gaussian/g16_a.03/pgi-16.5/g16/l1.exe PID=   1826632.
  
 Copyright (c) 1988,1990,1992,1993,1995,1998,2003,2009,2016,
            Gaussian, Inc.  All Rights Reserved.
  
 This is part of the Gaussian(R) 16 program.  It is based on
 the Gaussian(R) 09 system (copyright 2009, Gaussian, Inc.),
 the Gaussian(R) 03 system (copyright 2003, Gaussian, Inc.),
 the Gaussian(R) 98 system (copyright 1998, Gaussian, Inc.),
 the Gaussian(R) 94 system (copyright 1995, Gaussian, Inc.),
 the Gaussian 92(TM) system (copyright 1992, Gaussian, Inc.),
 the Gaussian 90(TM) system (copyright 1990, Gaussian, Inc.),
 the Gaussian 88(TM) system (copyright 1988, Gaussian, Inc.),
 the Gaussian 86(TM) system (copyright 1986, Carnegie Mellon
 University), and the Gaussian 82(TM) system (copyright 1983,
 Carnegie Mellon University). Gaussian is a federally registered
 trademark of Gaussian, Inc.
  
 This software contains proprietary and confidential information,
 including trade secrets, belonging to Gaussian, Inc.
  
 This software is provided under written license and may be
 used, copied, transmitted, or stored only in accord with that
 written license.
  
 The following legend is applicable only to US Government
 contracts under FAR:
  
                    RESTRICTED RIGHTS LEGEND
  
 Use, reproduction and disclosure by the US Government is
 subject to restrictions as set forth in subparagraphs (a)
 and (c) of the Commercial Computer Software - Restricted
 Rights clause in FAR 52.227-19.
  
 Gaussian, Inc.
 340 Quinnipiac St., Bldg. 40, Wallingford CT 06492
  
  
 ---------------------------------------------------------------
 Warning -- This program may not be used in any manner that
 competes with the business of Gaussian, Inc. or will provide
 assistance to any competitor of Gaussian, Inc.  The licensee
 of this program is prohibited from giving any competitor of
 Gaussian, Inc. access to this program.  By using this program,
 the user acknowledges that Gaussian, Inc. is engaged in the
 business of creating and licensing software in the field of
 computational chemistry and represents and warrants to the
 licensee that it is not a competitor of Gaussian, Inc. and that
 it will not use this program in any manner prohibited above.
 ---------------------------------------------------------------
  

 Cite this work as:
 Gaussian 16, Revision A.03,
 M. J. Frisch, G. W. Trucks, H. B. Schlegel, G. E. Scuseria, 
 M. A. Robb, J. R. Cheeseman, G. Scalmani, V. Barone, 
 G. A. Petersson, H. Nakatsuji, X. Li, M. Caricato, A. V. Marenich, 
 J. Bloino, B. G. Janesko, R. Gomperts, B. Mennucci, H. P. Hratchian, 
 J. V. Ortiz, A. F. Izmaylov, J. L. Sonnenberg, D. Williams-Young, 
 F. Ding, F. Lipparini, F. Egidi, J. Goings, B. Peng, A. Petrone, 
 T. Henderson, D. Ranasinghe, V. G. Zakrzewski, J. Gao, N. Rega, 
 G. Zheng, W. Liang, M. Hada, M. Ehara, K. Toyota, R. Fukuda, 
 J. Hasegawa, M. Ishida, T. Nakajima, Y. Honda, O. Kitao, H. Nakai, 
 T. Vreven, K. Throssell, J. A. Montgomery, Jr., J. E. Peralta, 
 F. Ogliaro, M. J. Bearpark, J. J. Heyd, E. N. Brothers, K. N. Kudin, 
 V. N. Staroverov, T. A. Keith, R. Kobayashi, J. Normand, 
 K. Raghavachari, A. P. Rendell, J. C. Burant, S. S. Iyengar, 
 J. Tomasi, M. Cossi, J. M. Millam, M. Klene, C. Adamo, R. Cammi, 
 J. W. Ochterski, R. L. Martin, K. Morokuma, O. Farkas, 
 J. B. Foresman, and D. J. Fox, Gaussian, Inc., Wallingford CT, 2016.
 
 ******************************************
 Gaussian 16:  ES64L-G16RevA.03 25-Dec-2016
                10-Dec-2023 
 ******************************************
 %NProcShared=4
 Will use up to    4 processors via shared memory.
 %Mem=4GB
 %Chk=H2O_H2O_4666.chk
 ------------------
 #p CCSD(T)/CEP-31G
 ------------------
 1/38=1,172=1/1;
 2/12=2,17=6,18=5,40=1/2;
 3/5=9,6=1,11=9,25=1,30=1/1,2,3;
 4//1;
 5/5=2,38=5/2;
 8/6=4,9=120000,10=1/1,4;
 9/5=7,14=2/13;
 6/7=2,8=2,9=2,10=2/1;
 99/5=1,9=1/99;
 Leave Link    1 at Sun Dec 10 07:05:38 2023, MaxMem=   536870912 cpu:               0.2 elap:               0.1
 (Enter /usr/site/hpc/x86_64/glibc-2.17/broadwell/gaussian/g16_a.03/pgi-16.5/g16/l101.exe)
 ------------
 H2O_H2O_4666
 ------------
 Symbolic Z-matrix:
 Charge =  0 Multiplicity = 1
 O                     0.       -0.00983   0. 
 H                    -0.79957  -0.58097   0. 
 H                     0.79957  -0.58097   0. 
 O                    -0.00852   6.53853   0. 
 H                    -0.10335   7.51654   0. 
 H                    -0.90292   6.13164   0. 
 
 ITRead=  0  0  0  0  0  0
 MicOpt= -1 -1 -1 -1 -1 -1
 NAtoms=      6 NQM=        6 NQMF=       0 NMMI=      0 NMMIF=      0
                NMic=       0 NMicF=      0.
                    Isotopes and Nuclear Properties:
 (Nuclear quadrupole moments (NQMom) in fm**2, nuclear magnetic moments (NMagM)
  in nuclear magnetons)

  Atom         1           2           3           4           5           6
 IAtWgt=          16           1           1          16           1           1
 AtmWgt=  15.9949146   1.0078250   1.0078250  15.9949146   1.0078250   1.0078250
 NucSpn=           0           1           1           0           1           1
 AtZEff=  -0.0000000  -0.0000000  -0.0000000  -0.0000000  -0.0000000  -0.0000000
 NQMom=    0.0000000   0.0000000   0.0000000   0.0000000   0.0000000   0.0000000
 NMagM=    0.0000000   2.7928460   2.7928460   0.0000000   2.7928460   2.7928460
 AtZNuc=   8.0000000   1.0000000   1.0000000   8.0000000   1.0000000   1.0000000
 Leave Link  101 at Sun Dec 10 07:05:38 2023, MaxMem=   536870912 cpu:               0.3 elap:               0.1
 (Enter /usr/site/hpc/x86_64/glibc-2.17/broadwell/gaussian/g16_a.03/pgi-16.5/g16/l202.exe)
                          Input orientation:                          
 ---------------------------------------------------------------------
 Center     Atomic      Atomic             Coordinates (Angstroms)
 Number     Number       Type             X           Y           Z
 ---------------------------------------------------------------------
      1          8           0        0.000000   -0.009833    0.000000
      2          1           0       -0.799571   -0.580965    0.000000
      3          1           0        0.799571   -0.580965    0.000000
      4          8           0       -0.008516    6.538527    0.000000
      5          1           0       -0.103345    7.516542    0.000000
      6          1           0       -0.902916    6.131644    0.000000
 ---------------------------------------------------------------------
                    Distance matrix (angstroms):
                    1          2          3          4          5
     1  O    0.000000
     2  H    0.982601   0.000000
     3  H    0.982601   1.599142   0.000000
     4  O    6.548366   7.163305   7.165206   0.000000
     5  H    7.527084   8.127383   8.147692   0.982602   0.000000
     6  H    6.207495   6.713404   6.925141   0.982601   1.599142
                    6
     6  H    0.000000
 Stoichiometry    H4O2
 Framework group  CS[SG(H4O2)]
 Deg. of freedom     9
 Full point group                 CS      NOp   2
 Largest Abelian subgroup         CS      NOp   2
 Largest concise Abelian subgroup C1      NOp   1
                         Standard orientation:                         
 ---------------------------------------------------------------------
 Center     Atomic      Atomic             Coordinates (Angstroms)
 Number     Number       Type             X           Y           Z
 ---------------------------------------------------------------------
      1          8           0        0.049499   -3.245691    0.000000
      2          1           0       -0.750815   -3.815782    0.000000
      3          1           0        0.848326   -3.817862    0.000000
      4          8           0        0.049499    3.302675    0.000000
      5          1           0       -0.044058    4.280813    0.000000
      6          1           0       -0.845430    2.896956    0.000000
 ---------------------------------------------------------------------
 Rotational constants (GHZ):         246.0073974           1.2657459           1.2592667
 Leave Link  202 at Sun Dec 10 07:05:38 2023, MaxMem=   536870912 cpu:               0.0 elap:               0.0
 (Enter /usr/site/hpc/x86_64/glibc-2.17/broadwell/gaussian/g16_a.03/pgi-16.5/g16/l301.exe)
 Standard basis: CEP-31G (6D, 10F)
 Ernie: Thresh=  0.10000D-02 Tol=  0.10000D-05 Strict=F.
 There are    20 symmetry adapted cartesian basis functions of A'  symmetry.
 There are     4 symmetry adapted cartesian basis functions of A"  symmetry.
 There are    20 symmetry adapted basis functions of A'  symmetry.
 There are     4 symmetry adapted basis functions of A"  symmetry.
    24 basis functions,    48 primitive gaussians,    24 cartesian basis functions
     8 alpha electrons        8 beta electrons
       nuclear repulsion energy        18.6011053202 Hartrees.
 IExCor=    0 DFT=F Ex=HF Corr=None ExCW=0 ScaHFX=  1.000000
 ScaDFX=  1.000000  1.000000  1.000000  1.000000 ScalE2=  1.000000  1.000000
 IRadAn=      5 IRanWt=     -1 IRanGd=            0 ICorTp=0 IEmpDi=  4
 NAtoms=    6 NActive=    6 NUniq=    6 SFac= 1.00D+00 NAtFMM=   60 NAOKFM=F Big=F
 Integral buffers will be    131072 words long.
 Raffenetti 1 integral format.
 Two-electron integral symmetry is turned on.
 Leave Link  301 at Sun Dec 10 07:05:38 2023, MaxMem=   536870912 cpu:               0.2 elap:               0.1
 (Enter /usr/site/hpc/x86_64/glibc-2.17/broadwell/gaussian/g16_a.03/pgi-16.5/g16/l302.exe)
 NPDir=0 NMtPBC=     1 NCelOv=     1 NCel=       1 NClECP=     1 NCelD=      1
         NCelK=      1 NCelE2=     1 NClLst=     1 CellRange=     0.0.
 One-electron integrals computed using PRISM.
 One-electron integral symmetry used in STVInt
   2 Symmetry operations used in ECPInt.
 ECPInt:  NShTT=      78 NPrTT=     318 LenC2=      73 LenP2D=     238.
 LDataN:  DoStor=T MaxTD1= 2 Len=   12
 NBasis=    24 RedAO= T EigKep=  3.86D-02  NBF=    20     4
 NBsUse=    24 1.00D-06 EigRej= -1.00D+00 NBFU=    20     4
 Leave Link  302 at Sun Dec 10 07:05:38 2023, MaxMem=   536870912 cpu:               0.3 elap:               0.1
 (Enter /usr/site/hpc/x86_64/glibc-2.17/broadwell/gaussian/g16_a.03/pgi-16.5/g16/l303.exe)
 DipDrv:  MaxL=1.
 Leave Link  303 at Sun Dec 10 07:05:39 2023, MaxMem=   536870912 cpu:               0.1 elap:               0.0
 (Enter /usr/site/hpc/x86_64/glibc-2.17/broadwell/gaussian/g16_a.03/pgi-16.5/g16/l401.exe)
 ExpMin= 1.78D-01 ExpMax= 1.92D+01 ExpMxC= 1.92D+01 IAcc=3 IRadAn=         5 AccDes= 0.00D+00
 Harris functional with IExCor=  205 and IRadAn=       5 diagonalized for initial guess.
 HarFok:  IExCor=  205 AccDes= 0.00D+00 IRadAn=         5 IDoV= 1 UseB2=F ITyADJ=14
 ICtDFT=  3500011 ScaDFX=  1.000000  1.000000  1.000000  1.000000
 FoFCou: FMM=F IPFlag=           0 FMFlag=      100000 FMFlg1=           0
         NFxFlg=           0 DoJE=T BraDBF=F KetDBF=T FulRan=T
         wScrn=  0.000000 ICntrl=       500 IOpCl=  0 I1Cent=   200000004 NGrid=           0
         NMat0=    1 NMatS0=      1 NMatT0=    0 NMatD0=    1 NMtDS0=    0 NMtDT0=    0
 Petite list used in FoFCou.
 Harris En= -34.4763717104898    
 JPrj=0 DoOrth=F DoCkMO=F.
 Initial guess orbital symmetries:
       Occupied  (A') (A') (A') (A') (A') (A') (A") (A")
       Virtual   (A') (A') (A') (A') (A") (A") (A') (A') (A') (A')
                 (A') (A') (A') (A') (A') (A')
 The electronic state of the initial guess is 1-A'.
 Leave Link  401 at Sun Dec 10 07:05:39 2023, MaxMem=   536870912 cpu:               0.4 elap:               0.1
 (Enter /usr/site/hpc/x86_64/glibc-2.17/broadwell/gaussian/g16_a.03/pgi-16.5/g16/l502.exe)
 Keep R1 ints in memory in symmetry-blocked form, NReq=851651.
 FoFCou: FMM=F IPFlag=           0 FMFlag=           0 FMFlg1=           0
         NFxFlg=           0 DoJE=F BraDBF=F KetDBF=F FulRan=T
         wScrn=  0.000000 ICntrl=       600 IOpCl=  0 I1Cent=           0 NGrid=           0
         NMat0=    1 NMatS0=    300 NMatT0=    0 NMatD0=    1 NMtDS0=    0 NMtDT0=    0
 Petite list used in FoFCou.
 Closed shell SCF:
 Using DIIS extrapolation, IDIIS=  1040.
 NGot=   536870912 LenX=   536840576 LenY=   536839559
 Requested convergence on RMS density matrix=1.00D-08 within 128 cycles.
 Requested convergence on MAX density matrix=1.00D-06.
 Requested convergence on             energy=1.00D-06.
 No special actions if energy rises.

 Cycle   1  Pass 1  IDiag  1:
 E= -33.5568510609658    
 DIIS: error= 6.67D-02 at cycle   1 NSaved=   1.
 NSaved= 1 IEnMin= 1 EnMin= -33.5568510609658     IErMin= 1 ErrMin= 6.67D-02
 ErrMax= 6.67D-02  0.00D+00 EMaxC= 1.00D-01 BMatC= 1.02D-01 BMatP= 1.02D-01
 IDIUse=3 WtCom= 3.33D-01 WtEn= 6.67D-01
 Coeff-Com:  0.100D+01
 Coeff-En:   0.100D+01
 Coeff:      0.100D+01
 Gap=     0.606 Goal=   None    Shift=    0.000
 GapD=    0.606 DampG=2.000 DampE=0.500 DampFc=1.0000 IDamp=-1.
 RMSDP=1.49D-02 MaxDP=1.17D-01              OVMax= 9.94D-02

 Cycle   2  Pass 1  IDiag  1:
 E= -33.6198527696497     Delta-E=       -0.063001708684 Rises=F Damp=F
 DIIS: error= 3.74D-02 at cycle   2 NSaved=   2.
 NSaved= 2 IEnMin= 2 EnMin= -33.6198527696497     IErMin= 2 ErrMin= 3.74D-02
 ErrMax= 3.74D-02  0.00D+00 EMaxC= 1.00D-01 BMatC= 3.84D-02 BMatP= 1.02D-01
 IDIUse=3 WtCom= 6.26D-01 WtEn= 3.74D-01
 Coeff-Com:  0.377D+00 0.623D+00
 Coeff-En:   0.109D+00 0.891D+00
 Coeff:      0.277D+00 0.723D+00
 Gap=     0.705 Goal=   None    Shift=    0.000
 RMSDP=6.42D-03 MaxDP=5.43D-02 DE=-6.30D-02 OVMax= 3.58D-02

 Cycle   3  Pass 1  IDiag  1:
 E= -33.6505015060143     Delta-E=       -0.030648736365 Rises=F Damp=F
 DIIS: error= 6.97D-03 at cycle   3 NSaved=   3.
 NSaved= 3 IEnMin= 3 EnMin= -33.6505015060143     IErMin= 3 ErrMin= 6.97D-03
 ErrMax= 6.97D-03  0.00D+00 EMaxC= 1.00D-01 BMatC= 9.09D-04 BMatP= 3.84D-02
 IDIUse=3 WtCom= 9.30D-01 WtEn= 6.97D-02
 Coeff-Com: -0.114D+00-0.159D-01 0.113D+01
 Coeff-En:   0.000D+00 0.000D+00 0.100D+01
 Coeff:     -0.106D+00-0.148D-01 0.112D+01
 Gap=     0.697 Goal=   None    Shift=    0.000
 RMSDP=1.09D-03 MaxDP=9.30D-03 DE=-3.06D-02 OVMax= 8.11D-03

 Cycle   4  Pass 1  IDiag  1:
 E= -33.6514094160013     Delta-E=       -0.000907909987 Rises=F Damp=F
 DIIS: error= 7.52D-04 at cycle   4 NSaved=   4.
 NSaved= 4 IEnMin= 4 EnMin= -33.6514094160013     IErMin= 4 ErrMin= 7.52D-04
 ErrMax= 7.52D-04  0.00D+00 EMaxC= 1.00D-01 BMatC= 5.86D-06 BMatP= 9.09D-04
 IDIUse=3 WtCom= 9.92D-01 WtEn= 7.52D-03
 Coeff-Com:  0.438D-01-0.175D-01-0.525D+00 0.150D+01
 Coeff-En:   0.000D+00 0.000D+00 0.000D+00 0.100D+01
 Coeff:      0.434D-01-0.173D-01-0.521D+00 0.149D+01
 Gap=     0.699 Goal=   None    Shift=    0.000
 RMSDP=2.36D-04 MaxDP=2.02D-03 DE=-9.08D-04 OVMax= 9.63D-04

 Cycle   5  Pass 1  IDiag  1:
 E= -33.6514225247317     Delta-E=       -0.000013108730 Rises=F Damp=F
 DIIS: error= 5.06D-05 at cycle   5 NSaved=   5.
 NSaved= 5 IEnMin= 5 EnMin= -33.6514225247317     IErMin= 5 ErrMin= 5.06D-05
 ErrMax= 5.06D-05  0.00D+00 EMaxC= 1.00D-01 BMatC= 3.95D-08 BMatP= 5.86D-06
 IDIUse=1 WtCom= 1.00D+00 WtEn= 0.00D+00
 Coeff-Com: -0.710D-02 0.317D-02 0.860D-01-0.294D+00 0.121D+01
 Coeff:     -0.710D-02 0.317D-02 0.860D-01-0.294D+00 0.121D+01
 Gap=     0.699 Goal=   None    Shift=    0.000
 RMSDP=1.60D-05 MaxDP=1.52D-04 DE=-1.31D-05 OVMax= 1.04D-04

 Cycle   6  Pass 1  IDiag  1:
 E= -33.6514226227942     Delta-E=       -0.000000098062 Rises=F Damp=F
 DIIS: error= 1.10D-05 at cycle   6 NSaved=   6.
 NSaved= 6 IEnMin= 6 EnMin= -33.6514226227942     IErMin= 6 ErrMin= 1.10D-05
 ErrMax= 1.10D-05  0.00D+00 EMaxC= 1.00D-01 BMatC= 2.21D-09 BMatP= 3.95D-08
 IDIUse=1 WtCom= 1.00D+00 WtEn= 0.00D+00
 Coeff-Com:  0.124D-02-0.431D-03-0.145D-01 0.562D-01-0.404D+00 0.136D+01
 Coeff:      0.124D-02-0.431D-03-0.145D-01 0.562D-01-0.404D+00 0.136D+01
 Gap=     0.699 Goal=   None    Shift=    0.000
 RMSDP=3.96D-06 MaxDP=4.08D-05 DE=-9.81D-08 OVMax= 3.52D-05

 Cycle   7  Pass 1  IDiag  1:
 E= -33.6514226288751     Delta-E=       -0.000000006081 Rises=F Damp=F
 DIIS: error= 2.22D-06 at cycle   7 NSaved=   7.
 NSaved= 7 IEnMin= 7 EnMin= -33.6514226288751     IErMin= 7 ErrMin= 2.22D-06
 ErrMax= 2.22D-06  0.00D+00 EMaxC= 1.00D-01 BMatC= 1.22D-10 BMatP= 2.21D-09
 IDIUse=1 WtCom= 1.00D+00 WtEn= 0.00D+00
 Coeff-Com:  0.295D-03-0.161D-03-0.365D-02 0.113D-01-0.159D-01-0.158D+00
 Coeff-Com:  0.117D+01
 Coeff:      0.295D-03-0.161D-03-0.365D-02 0.113D-01-0.159D-01-0.158D+00
 Coeff:      0.117D+01
 Gap=     0.699 Goal=   None    Shift=    0.000
 RMSDP=9.75D-07 MaxDP=6.14D-06 DE=-6.08D-09 OVMax= 8.57D-06

 Cycle   8  Pass 1  IDiag  1:
 E= -33.6514226291607     Delta-E=       -0.000000000286 Rises=F Damp=F
 DIIS: error= 7.86D-07 at cycle   8 NSaved=   8.
 NSaved= 8 IEnMin= 8 EnMin= -33.6514226291607     IErMin= 8 ErrMin= 7.86D-07
 ErrMax= 7.86D-07  0.00D+00 EMaxC= 1.00D-01 BMatC= 1.95D-11 BMatP= 1.22D-10
 IDIUse=1 WtCom= 1.00D+00 WtEn= 0.00D+00
 Coeff-Com: -0.247D-06-0.243D-04-0.702D-04-0.819D-03 0.305D-01-0.173D+00
 Coeff-Com:  0.335D+00 0.808D+00
 Coeff:     -0.247D-06-0.243D-04-0.702D-04-0.819D-03 0.305D-01-0.173D+00
 Coeff:      0.335D+00 0.808D+00
 Gap=     0.699 Goal=   None    Shift=    0.000
 RMSDP=2.86D-07 MaxDP=2.20D-06 DE=-2.86D-10 OVMax= 2.35D-06

 Cycle   9  Pass 1  IDiag  1:
 E= -33.6514226291886     Delta-E=       -0.000000000028 Rises=F Damp=F
 DIIS: error= 1.84D-07 at cycle   9 NSaved=   9.
 NSaved= 9 IEnMin= 9 EnMin= -33.6514226291886     IErMin= 9 ErrMin= 1.84D-07
 ErrMax= 1.84D-07  0.00D+00 EMaxC= 1.00D-01 BMatC= 7.26D-13 BMatP= 1.95D-11
 IDIUse=1 WtCom= 1.00D+00 WtEn= 0.00D+00
 Coeff-Com:  0.358D-05 0.749D-05-0.605D-05 0.414D-03-0.125D-01 0.738D-01
 Coeff-Com: -0.188D+00-0.272D+00 0.140D+01
 Coeff:      0.358D-05 0.749D-05-0.605D-05 0.414D-03-0.125D-01 0.738D-01
 Coeff:     -0.188D+00-0.272D+00 0.140D+01
 Gap=     0.699 Goal=   None    Shift=    0.000
 RMSDP=1.26D-07 MaxDP=5.84D-07 DE=-2.79D-11 OVMax= 8.53D-07

 Cycle  10  Pass 1  IDiag  1:
 E= -33.6514226291905     Delta-E=       -0.000000000002 Rises=F Damp=F
 DIIS: error= 8.60D-09 at cycle  10 NSaved=  10.
 NSaved=10 IEnMin=10 EnMin= -33.6514226291905     IErMin=10 ErrMin= 8.60D-09
 ErrMax= 8.60D-09  0.00D+00 EMaxC= 1.00D-01 BMatC= 2.77D-15 BMatP= 7.26D-13
 IDIUse=1 WtCom= 1.00D+00 WtEn= 0.00D+00
 Coeff-Com:  0.711D-07-0.198D-05-0.959D-05-0.590D-04 0.277D-02-0.170D-01
 Coeff-Com:  0.442D-01 0.600D-01-0.367D+00 0.128D+01
 Coeff:      0.711D-07-0.198D-05-0.959D-05-0.590D-04 0.277D-02-0.170D-01
 Coeff:      0.442D-01 0.600D-01-0.367D+00 0.128D+01
 Gap=     0.699 Goal=   None    Shift=    0.000
 RMSDP=1.18D-08 MaxDP=5.54D-08 DE=-1.90D-12 OVMax= 6.74D-08

 Cycle  11  Pass 1  IDiag  1:
 E= -33.6514226291906     Delta-E=       -0.000000000000 Rises=F Damp=F
 DIIS: error= 3.52D-10 at cycle  11 NSaved=  11.
 NSaved=11 IEnMin=11 EnMin= -33.6514226291906     IErMin=11 ErrMin= 3.52D-10
 ErrMax= 3.52D-10  0.00D+00 EMaxC= 1.00D-01 BMatC= 3.46D-18 BMatP= 2.77D-15
 IDIUse=1 WtCom= 1.00D+00 WtEn= 0.00D+00
 Coeff-Com: -0.766D-07 0.352D-06 0.237D-05 0.780D-05-0.471D-03 0.294D-02
 Coeff-Com: -0.770D-02-0.103D-01 0.649D-01-0.243D+00 0.119D+01
 Coeff:     -0.766D-07 0.352D-06 0.237D-05 0.780D-05-0.471D-03 0.294D-02
 Coeff:     -0.770D-02-0.103D-01 0.649D-01-0.243D+00 0.119D+01
 Gap=     0.699 Goal=   None    Shift=    0.000
 RMSDP=2.07D-10 MaxDP=1.06D-09 DE=-4.26D-14 OVMax= 7.47D-10

 SCF Done:  E(RHF) =  -33.6514226292     A.U. after   11 cycles
            NFock= 11  Conv=0.21D-09     -V/T= 2.2569
 KE= 2.677230005858D+01 PE=-1.188493825219D+02 EE= 3.982455451388D+01
 Leave Link  502 at Sun Dec 10 07:05:39 2023, MaxMem=   536870912 cpu:               0.3 elap:               0.1
 (Enter /usr/site/hpc/x86_64/glibc-2.17/broadwell/gaussian/g16_a.03/pgi-16.5/g16/l801.exe)
 Windowed orbitals will be sorted by symmetry type.
 Range of M.O.s used for correlation:     1    24
 NBasis=    24 NAE=     8 NBE=     8 NFC=     0 NFV=     0
 NROrb=     24 NOA=     8 NOB=     8 NVA=    16 NVB=    16
 Leave Link  801 at Sun Dec 10 07:05:39 2023, MaxMem=   536870912 cpu:               0.1 elap:               0.0
 (Enter /usr/site/hpc/x86_64/glibc-2.17/broadwell/gaussian/g16_a.03/pgi-16.5/g16/l804.exe)
 Closed-shell transformation, MDV=   536870912 ITran=4 ISComp=2.
 Unit  1 TFree=       1025975 TCopy=        210600.
 Semi-Direct transformation.
 ModeAB=           4 MOrb=             8 LenV=     536742989
 LASXX=        22470 LTotXX=       22470 LenRXX=       48678
 LTotAB=       26208 MaxLAS=       53760 LenRXY=           0
 NonZer=       71148 LenScr=      524288 LnRSAI=       53760
 LnScr1=      524288 LExtra=           0 Total=      1151014
 MaxDsk=          -1 SrtSym=           T ITran=            4
 DoSDTr:  NPSUse=  4
 JobTyp=0 Pass  1:  I=   1 to   8.
 (rs|ai) integrals will be sorted in core.
 Complete sort for first half transformation.
 First half transformation complete.
 Complete sort for second half transformation.
 Second half transformation complete.
 Spin components of T(2) and E(2):
     alpha-alpha T2 =       0.9068287870D-02 E2=     -0.2589060809D-01
     alpha-beta  T2 =       0.5995641223D-01 E2=     -0.1766221383D+00
     beta-beta   T2 =       0.9068287870D-02 E2=     -0.2589060809D-01
 ANorm=    0.1038312568D+01
 E2 =    -0.2284033545D+00 EUMP2 =    -0.33879825983675D+02
 Leave Link  804 at Sun Dec 10 07:05:39 2023, MaxMem=   536870912 cpu:               0.2 elap:               0.1
 (Enter /usr/site/hpc/x86_64/glibc-2.17/broadwell/gaussian/g16_a.03/pgi-16.5/g16/l913.exe)
 CIDS:  MDV=   536870912.
 IFCWin=0 IBDFC=1 NFBD=     0     0 NFCmp=     0     0 NFFFC=     0     0
 Using DD3R+UMP44R for 1st iteration.
 Using DD4RQ for 2nd and later iterations.
 Keep R2 and R3 ints in memory in symmetry-blocked form, NReq=864259.
 FoFCou: FMM=F IPFlag=           0 FMFlag=           0 FMFlg1=           0
         NFxFlg=           0 DoJE=F BraDBF=F KetDBF=F FulRan=T
         wScrn=  0.000000 ICntrl=       600 IOpCl=  0 I1Cent=           0 NGrid=           0
         NMat0=    1 NMatS0=    300 NMatT0=    0 NMatD0=    1 NMtDS0=    0 NMtDT0=    0
 Petite list used in FoFCou.
 CIDS: In Core Option IDoMem=           1.
 CCSD(T)
 =======
 Iterations=  50 Convergence= 0.100D-06
 Produce multiple copies of IABC intergrals
 Iteration Nr.   1
 **********************
 DD1Dir will call FoFMem   1 times, MxPair=        72
 NAB=    36 NAA=     0 NBB=     0.
 MP4(R+Q)= -0.73877212D-03
 Maximum subspace dimension=  5
 A-vector RMS=  5.7612137D-03 Max=  1.3218075D-02 conv= 1.00D-05.
 RLE energy=       -0.2344747243
 E3=       -0.54501940D-02        EUMP3=      -0.33885276178D+02
 E4(DQ)=   -0.59136468D-02        UMP4(DQ)=   -0.33891189824D+02
 E4(SDQ)=  -0.79423130D-02        UMP4(SDQ)=  -0.33893218491D+02
 VARIATIONAL ENERGIES WITH THE FIRST-ORDER WAVEFUNCTION:
 DE(Corr)= -0.23431785     E(Corr)=     -33.885740484    
 NORM(A)=   0.10417551D+01
 Iteration Nr.   2
 **********************
 DD1Dir will call FoFMem   1 times, MxPair=        72
 NAB=    36 NAA=     0 NBB=     0.
 A-vector RMS=  9.8390095D-04 Max=  2.7376729D-03 conv= 1.00D-05.
 RLE energy=       -0.2422560572
 DE(Corr)= -0.24031006     E(CORR)=     -33.891732689     Delta=-5.99D-03
 NORM(A)=   0.10455559D+01
 Iteration Nr.   3
 **********************
 DD1Dir will call FoFMem   1 times, MxPair=        72
 NAB=    36 NAA=     0 NBB=     0.
 A-vector RMS=  3.8502455D-04 Max=  1.1627390D-03 conv= 1.00D-05.
 RLE energy=       -0.2428070415
 DE(Corr)= -0.24235867     E(CORR)=     -33.893781297     Delta=-2.05D-03
 NORM(A)=   0.10461192D+01
 Iteration Nr.   4
 **********************
 DD1Dir will call FoFMem   1 times, MxPair=        72
 NAB=    36 NAA=     0 NBB=     0.
 A-vector RMS=  9.2909922D-05 Max=  2.5070292D-04 conv= 1.00D-05.
 RLE energy=       -0.2428540680
 DE(Corr)= -0.24281800     E(CORR)=     -33.894240625     Delta=-4.59D-04
 NORM(A)=   0.10461941D+01
 Iteration Nr.   5
 **********************
 DD1Dir will call FoFMem   1 times, MxPair=        72
 NAB=    36 NAA=     0 NBB=     0.
 A-vector RMS=  4.1845434D-05 Max=  1.5314793D-04 conv= 1.00D-05.
 RLE energy=       -0.2428522773
 DE(Corr)= -0.24285025     E(CORR)=     -33.894272879     Delta=-3.23D-05
 NORM(A)=   0.10462049D+01
 Iteration Nr.   6
 **********************
 DD1Dir will call FoFMem   1 times, MxPair=        72
 NAB=    36 NAA=     0 NBB=     0.
 A-vector RMS=  1.1394292D-05 Max=  4.0607722D-05 conv= 1.00D-05.
 RLE energy=       -0.2428514246
 DE(Corr)= -0.24285243     E(CORR)=     -33.894275057     Delta=-2.18D-06
 NORM(A)=   0.10462084D+01
 Iteration Nr.   7
 **********************
 DD1Dir will call FoFMem   1 times, MxPair=        72
 NAB=    36 NAA=     0 NBB=     0.
 A-vector RMS=  3.3399743D-06 Max=  1.1980805D-05 conv= 1.00D-05.
 RLE energy=       -0.2428523446
 DE(Corr)= -0.24285180     E(CORR)=     -33.894274431     Delta= 6.27D-07
 NORM(A)=   0.10462098D+01
 Iteration Nr.   8
 **********************
 DD1Dir will call FoFMem   1 times, MxPair=        72
 NAB=    36 NAA=     0 NBB=     0.
 A-vector RMS=  5.5395959D-07 Max=  1.7514177D-06 conv= 1.00D-05.
 RLE energy=       -0.2428518538
 DE(Corr)= -0.24285186     E(CORR)=     -33.894274486     Delta=-5.58D-08
 NORM(A)=   0.10462099D+01
 CI/CC converged in    8 iterations to DelEn=-5.58D-08 Conv= 1.00D-07 ErrA1= 5.54D-07 Conv= 1.00D-05
 Wavefunction amplitudes converged. E(Corr)=     -33.894274486    
 Largest amplitude= 5.86D-02
 IPart=  3 IA=    2   12.50% done.
 IPart=  2 IA=    3   24.17% done.
 IPart=  4 IA=    4   35.00% done.
 IPart=  4 IA=    5   45.00% done.
 IPart=  2 IA=    6   54.17% done.
 IPart=  3 IA=    7   62.50% done.
 IPart=  1 IA=    8   70.00% done.
 IPart=  4 IA=   10   82.50% done.
 IPart=  2 IA=   12   91.67% done.
 Time for triples=        0.23 seconds.
 T4(CCSD)= -0.30888769D-02
 T5(CCSD)=  0.52657678D-03
 CCSD(T)= -0.33896836786D+02
 Discarding MO integrals.
 Leave Link  913 at Sun Dec 10 07:05:39 2023, MaxMem=   536870912 cpu:               0.8 elap:               0.2
 (Enter /usr/site/hpc/x86_64/glibc-2.17/broadwell/gaussian/g16_a.03/pgi-16.5/g16/l601.exe)
 Copying SCF densities to generalized density rwf, IOpCl= 0 IROHF=0.

 **********************************************************************

            Population analysis using the SCF density.

 **********************************************************************

 Orbital symmetries:
       Occupied  (A') (A') (A') (A') (A') (A') (A") (A")
       Virtual   (A') (A') (A') (A') (A") (A") (A') (A') (A') (A')
                 (A') (A') (A') (A') (A') (A')
 The electronic state is 1-A'.
 Alpha  occ. eigenvalues --   -1.35396  -1.35000  -0.71027  -0.70623  -0.55111
 Alpha  occ. eigenvalues --   -0.54712  -0.49962  -0.49567
 Alpha virt. eigenvalues --    0.20355   0.20759   0.30592   0.30988   0.80590
 Alpha virt. eigenvalues --    0.80981   0.83650   0.84045   0.86748   0.87188
 Alpha virt. eigenvalues --    1.17490   1.17883   1.21951   1.22349   2.57516
 Alpha virt. eigenvalues --    2.57907
          Condensed to atoms (all electrons):
               1          2          3          4          5          6
     1  O    6.213554   0.262611   0.263659  -0.000000   0.000000   0.000000
     2  H    0.262611   0.392191  -0.023579   0.000000  -0.000000  -0.000000
     3  H    0.263659  -0.023579   0.388873   0.000000  -0.000000  -0.000000
     4  O   -0.000000   0.000000   0.000000   6.213516   0.262140   0.263887
     5  H    0.000000  -0.000000  -0.000000   0.262140   0.393784  -0.023614
     6  H    0.000000  -0.000000  -0.000000   0.263887  -0.023614   0.387876
 Mulliken charges:
               1
     1  O   -0.739825
     2  H    0.368778
     3  H    0.371047
     4  O   -0.739542
     5  H    0.367691
     6  H    0.371851
 Sum of Mulliken charges =  -0.00000
 Mulliken charges with hydrogens summed into heavy atoms:
               1
     1  O    0.000000
     4  O   -0.000000
 Electronic spatial extent (au):  <R**2>=            672.9627
 Charge=             -0.0000 electrons
 Dipole moment (field-independent basis, Debye):
    X=             -2.2854    Y=             -1.3316    Z=              0.0000  Tot=              2.6450
 Quadrupole moment (field-independent basis, Debye-Ang):
   XX=             -9.6289   YY=             15.4318   ZZ=            -14.9880
   XY=             -6.8532   XZ=              0.0000   YZ=              0.0000
 Traceless Quadrupole moment (field-independent basis, Debye-Ang):
   XX=             -6.5672   YY=             18.4935   ZZ=            -11.9263
   XY=             -6.8532   XZ=              0.0000   YZ=              0.0000
 Octapole moment (field-independent basis, Debye-Ang**2):
  XXX=             -1.7561  YYY=            -26.5551  ZZZ=              0.0000  XYY=            -18.9149
  XXY=             -7.1752  XXZ=              0.0000  XZZ=             -0.4290  YZZ=             -0.2521
  YYZ=              0.0000  XYZ=              0.0000
 Hexadecapole moment (field-independent basis, Debye-Ang**3):
 XXXX=            -12.1898 YYYY=           -119.1733 ZZZZ=            -12.2201 XXXY=             -1.7183
 XXXZ=              0.0000 YYYX=            -59.2579 YYYZ=              0.0000 ZZZX=              0.0000
 ZZZY=              0.0000 XXYY=           -105.6700 XXZZ=             -4.5556 YYZZ=           -168.7552
 XXYZ=              0.0000 YYXZ=              0.0000 ZZXY=              0.9646
 N-N= 1.860110532021D+01 E-N=-1.188493825270D+02  KE= 2.677230005858D+01
 Symmetry A'   KE= 1.788840678238D+01
 Symmetry A"   KE= 8.883893276201D+00
 Leave Link  601 at Sun Dec 10 07:05:39 2023, MaxMem=   536870912 cpu:               0.1 elap:               0.0
 (Enter /usr/site/hpc/x86_64/glibc-2.17/broadwell/gaussian/g16_a.03/pgi-16.5/g16/l9999.exe)
 1\1\GINC-N045\SP\RCCSD(T)-FC\CEP-31G\H4O2\ROOT\10-Dec-2023\0\\#p CCSD(
 T)/CEP-31G\\H2O_H2O_4666\\0,1\O,0,0.,-0.009833,0.\H,0,-0.799571,-0.580
 965,0.\H,0,0.799571,-0.580965,0.\O,0,-0.008516,6.538527,0.\H,0,-0.1033
 45,7.516542,0.\H,0,-0.902916,6.131644,0.\\Version=ES64L-G16RevA.03\Sta
 te=1-A'\HF=-33.6514226\MP2=-33.879826\MP3=-33.8852762\MP4D=-33.8904511
 \MP4DQ=-33.8911898\MP4SDQ=-33.8932185\CCSD=-33.8942745\CCSD(T)=-33.896
 8368\RMSD=2.067e-10\PG=CS [SG(H4O2)]\\@


 REPARTEE - WHAT YOU THINK OF AFTER YOU BECOME A DEPARTEE.
 Job cpu time:       0 days  0 hours  0 minutes  3.2 seconds.
 Elapsed time:       0 days  0 hours  0 minutes  1.0 seconds.
 File lengths (MBytes):  RWF=     72 Int=      0 D2E=      0 Chk=      8 Scr=      8
 Normal termination of Gaussian 16 at Sun Dec 10 07:05:39 2023.
