 Entering Gaussian System, Link 0=g16
 Input=H2O_H2O_2751.com
 Output=H2O_H2O_2751.log
 Initial command:
 /usr/site/hpc/x86_64/glibc-2.17/broadwell/gaussian/g16_a.03/pgi-16.5/g16/l1.exe "/gpfs/gpfs1/scratch/c7441090/OO Coord/Gau-1737118.inp" -scrdir="/gpfs/gpfs1/scratch/c7441090/OO Coord/"
 Entering Link 1 = /usr/site/hpc/x86_64/glibc-2.17/broadwell/gaussian/g16_a.03/pgi-16.5/g16/l1.exe PID=   1737119.
  
 Copyright (c) 1988,1990,1992,1993,1995,1998,2003,2009,2016,
            Gaussian, Inc.  All Rights Reserved.
  
 This is part of the Gaussian(R) 16 program.  It is based on
 the Gaussian(R) 09 system (copyright 2009, Gaussian, Inc.),
 the Gaussian(R) 03 system (copyright 2003, Gaussian, Inc.),
 the Gaussian(R) 98 system (copyright 1998, Gaussian, Inc.),
 the Gaussian(R) 94 system (copyright 1995, Gaussian, Inc.),
 the Gaussian 92(TM) system (copyright 1992, Gaussian, Inc.),
 the Gaussian 90(TM) system (copyright 1990, Gaussian, Inc.),
 the Gaussian 88(TM) system (copyright 1988, Gaussian, Inc.),
 the Gaussian 86(TM) system (copyright 1986, Carnegie Mellon
 University), and the Gaussian 82(TM) system (copyright 1983,
 Carnegie Mellon University). Gaussian is a federally registered
 trademark of Gaussian, Inc.
  
 This software contains proprietary and confidential information,
 including trade secrets, belonging to Gaussian, Inc.
  
 This software is provided under written license and may be
 used, copied, transmitted, or stored only in accord with that
 written license.
  
 The following legend is applicable only to US Government
 contracts under FAR:
  
                    RESTRICTED RIGHTS LEGEND
  
 Use, reproduction and disclosure by the US Government is
 subject to restrictions as set forth in subparagraphs (a)
 and (c) of the Commercial Computer Software - Restricted
 Rights clause in FAR 52.227-19.
  
 Gaussian, Inc.
 340 Quinnipiac St., Bldg. 40, Wallingford CT 06492
  
  
 ---------------------------------------------------------------
 Warning -- This program may not be used in any manner that
 competes with the business of Gaussian, Inc. or will provide
 assistance to any competitor of Gaussian, Inc.  The licensee
 of this program is prohibited from giving any competitor of
 Gaussian, Inc. access to this program.  By using this program,
 the user acknowledges that Gaussian, Inc. is engaged in the
 business of creating and licensing software in the field of
 computational chemistry and represents and warrants to the
 licensee that it is not a competitor of Gaussian, Inc. and that
 it will not use this program in any manner prohibited above.
 ---------------------------------------------------------------
  

 Cite this work as:
 Gaussian 16, Revision A.03,
 M. J. Frisch, G. W. Trucks, H. B. Schlegel, G. E. Scuseria, 
 M. A. Robb, J. R. Cheeseman, G. Scalmani, V. Barone, 
 G. A. Petersson, H. Nakatsuji, X. Li, M. Caricato, A. V. Marenich, 
 J. Bloino, B. G. Janesko, R. Gomperts, B. Mennucci, H. P. Hratchian, 
 J. V. Ortiz, A. F. Izmaylov, J. L. Sonnenberg, D. Williams-Young, 
 F. Ding, F. Lipparini, F. Egidi, J. Goings, B. Peng, A. Petrone, 
 T. Henderson, D. Ranasinghe, V. G. Zakrzewski, J. Gao, N. Rega, 
 G. Zheng, W. Liang, M. Hada, M. Ehara, K. Toyota, R. Fukuda, 
 J. Hasegawa, M. Ishida, T. Nakajima, Y. Honda, O. Kitao, H. Nakai, 
 T. Vreven, K. Throssell, J. A. Montgomery, Jr., J. E. Peralta, 
 F. Ogliaro, M. J. Bearpark, J. J. Heyd, E. N. Brothers, K. N. Kudin, 
 V. N. Staroverov, T. A. Keith, R. Kobayashi, J. Normand, 
 K. Raghavachari, A. P. Rendell, J. C. Burant, S. S. Iyengar, 
 J. Tomasi, M. Cossi, J. M. Millam, M. Klene, C. Adamo, R. Cammi, 
 J. W. Ochterski, R. L. Martin, K. Morokuma, O. Farkas, 
 J. B. Foresman, and D. J. Fox, Gaussian, Inc., Wallingford CT, 2016.
 
 ******************************************
 Gaussian 16:  ES64L-G16RevA.03 25-Dec-2016
                10-Dec-2023 
 ******************************************
 %NProcShared=4
 Will use up to    4 processors via shared memory.
 %Mem=4GB
 %Chk=H2O_H2O_2751.chk
 ------------------
 #p CCSD(T)/CEP-31G
 ------------------
 1/38=1,172=1/1;
 2/12=2,17=6,18=5,40=1/2;
 3/5=9,6=1,11=9,25=1,30=1/1,2,3;
 4//1;
 5/5=2,38=5/2;
 8/6=4,9=120000,10=1/1,4;
 9/5=7,14=2/13;
 6/7=2,8=2,9=2,10=2/1;
 99/5=1,9=1/99;
 Leave Link    1 at Sun Dec 10 06:29:24 2023, MaxMem=   536870912 cpu:               0.2 elap:               0.1
 (Enter /usr/site/hpc/x86_64/glibc-2.17/broadwell/gaussian/g16_a.03/pgi-16.5/g16/l101.exe)
 ------------
 H2O_H2O_2751
 ------------
 Symbolic Z-matrix:
 Charge =  0 Multiplicity = 1
 O                     0.       -0.00983   0. 
 H                    -0.79957  -0.58097   0. 
 H                     0.79957  -0.58097   0. 
 O                    -0.00064   4.52244   0. 
 H                     0.75986   5.14465   0. 
 H                    -0.83586   5.04006   0. 
 
 ITRead=  0  0  0  0  0  0
 MicOpt= -1 -1 -1 -1 -1 -1
 NAtoms=      6 NQM=        6 NQMF=       0 NMMI=      0 NMMIF=      0
                NMic=       0 NMicF=      0.
                    Isotopes and Nuclear Properties:
 (Nuclear quadrupole moments (NQMom) in fm**2, nuclear magnetic moments (NMagM)
  in nuclear magnetons)

  Atom         1           2           3           4           5           6
 IAtWgt=          16           1           1          16           1           1
 AtmWgt=  15.9949146   1.0078250   1.0078250  15.9949146   1.0078250   1.0078250
 NucSpn=           0           1           1           0           1           1
 AtZEff=  -0.0000000  -0.0000000  -0.0000000  -0.0000000  -0.0000000  -0.0000000
 NQMom=    0.0000000   0.0000000   0.0000000   0.0000000   0.0000000   0.0000000
 NMagM=    0.0000000   2.7928460   2.7928460   0.0000000   2.7928460   2.7928460
 AtZNuc=   8.0000000   1.0000000   1.0000000   8.0000000   1.0000000   1.0000000
 Leave Link  101 at Sun Dec 10 06:29:24 2023, MaxMem=   536870912 cpu:               0.3 elap:               0.1
 (Enter /usr/site/hpc/x86_64/glibc-2.17/broadwell/gaussian/g16_a.03/pgi-16.5/g16/l202.exe)
                          Input orientation:                          
 ---------------------------------------------------------------------
 Center     Atomic      Atomic             Coordinates (Angstroms)
 Number     Number       Type             X           Y           Z
 ---------------------------------------------------------------------
      1          8           0        0.000000   -0.009833    0.000000
      2          1           0       -0.799571   -0.580965    0.000000
      3          1           0        0.799571   -0.580965    0.000000
      4          8           0       -0.000643    4.522444    0.000000
      5          1           0        0.759863    5.144648    0.000000
      6          1           0       -0.835856    5.040059    0.000000
 ---------------------------------------------------------------------
                    Distance matrix (angstroms):
                    1          2          3          4          5
     1  O    0.000000
     2  H    0.982601   0.000000
     3  H    0.982601   1.599142   0.000000
     4  O    4.532277   5.165566   5.165765   0.000000
     5  H    5.210189   5.934179   5.725751   0.982602   0.000000
     6  H    5.118600   5.621141   5.854104   0.982602   1.599143
                    6
     6  H    0.000000
 Stoichiometry    H4O2
 Framework group  CS[SG(H4O2)]
 Deg. of freedom     9
 Full point group                 CS      NOp   2
 Largest Abelian subgroup         CS      NOp   2
 Largest concise Abelian subgroup C1      NOp   1
                         Standard orientation:                         
 ---------------------------------------------------------------------
 Center     Atomic      Atomic             Coordinates (Angstroms)
 Number     Number       Type             X           Y           Z
 ---------------------------------------------------------------------
      1          8           0        0.003735   -2.266017    0.000000
      2          1           0       -0.795917   -2.837035    0.000000
      3          1           0        0.803225   -2.837262    0.000000
      4          8           0        0.003735    2.266260    0.000000
      5          1           0        0.764330    2.888356    0.000000
      6          1           0       -0.831404    2.783994    0.000000
 ---------------------------------------------------------------------
 Rotational constants (GHZ):         196.3143073           2.5689737           2.5357903
 Leave Link  202 at Sun Dec 10 06:29:24 2023, MaxMem=   536870912 cpu:               0.0 elap:               0.0
 (Enter /usr/site/hpc/x86_64/glibc-2.17/broadwell/gaussian/g16_a.03/pgi-16.5/g16/l301.exe)
 Standard basis: CEP-31G (6D, 10F)
 Ernie: Thresh=  0.10000D-02 Tol=  0.10000D-05 Strict=F.
 There are    20 symmetry adapted cartesian basis functions of A'  symmetry.
 There are     4 symmetry adapted cartesian basis functions of A"  symmetry.
 There are    20 symmetry adapted basis functions of A'  symmetry.
 There are     4 symmetry adapted basis functions of A"  symmetry.
    24 basis functions,    48 primitive gaussians,    24 cartesian basis functions
     8 alpha electrons        8 beta electrons
       nuclear repulsion energy        20.6153427334 Hartrees.
 IExCor=    0 DFT=F Ex=HF Corr=None ExCW=0 ScaHFX=  1.000000
 ScaDFX=  1.000000  1.000000  1.000000  1.000000 ScalE2=  1.000000  1.000000
 IRadAn=      5 IRanWt=     -1 IRanGd=            0 ICorTp=0 IEmpDi=  4
 NAtoms=    6 NActive=    6 NUniq=    6 SFac= 1.00D+00 NAtFMM=   60 NAOKFM=F Big=F
 Integral buffers will be    131072 words long.
 Raffenetti 1 integral format.
 Two-electron integral symmetry is turned on.
 Leave Link  301 at Sun Dec 10 06:29:24 2023, MaxMem=   536870912 cpu:               0.2 elap:               0.1
 (Enter /usr/site/hpc/x86_64/glibc-2.17/broadwell/gaussian/g16_a.03/pgi-16.5/g16/l302.exe)
 NPDir=0 NMtPBC=     1 NCelOv=     1 NCel=       1 NClECP=     1 NCelD=      1
         NCelK=      1 NCelE2=     1 NClLst=     1 CellRange=     0.0.
 One-electron integrals computed using PRISM.
 One-electron integral symmetry used in STVInt
   2 Symmetry operations used in ECPInt.
 ECPInt:  NShTT=      78 NPrTT=     318 LenC2=      79 LenP2D=     256.
 LDataN:  DoStor=T MaxTD1= 2 Len=   12
 NBasis=    24 RedAO= T EigKep=  3.85D-02  NBF=    20     4
 NBsUse=    24 1.00D-06 EigRej= -1.00D+00 NBFU=    20     4
 Leave Link  302 at Sun Dec 10 06:29:24 2023, MaxMem=   536870912 cpu:               0.3 elap:               0.1
 (Enter /usr/site/hpc/x86_64/glibc-2.17/broadwell/gaussian/g16_a.03/pgi-16.5/g16/l303.exe)
 DipDrv:  MaxL=1.
 Leave Link  303 at Sun Dec 10 06:29:24 2023, MaxMem=   536870912 cpu:               0.1 elap:               0.0
 (Enter /usr/site/hpc/x86_64/glibc-2.17/broadwell/gaussian/g16_a.03/pgi-16.5/g16/l401.exe)
 ExpMin= 1.78D-01 ExpMax= 1.92D+01 ExpMxC= 1.92D+01 IAcc=3 IRadAn=         5 AccDes= 0.00D+00
 Harris functional with IExCor=  205 and IRadAn=       5 diagonalized for initial guess.
 HarFok:  IExCor=  205 AccDes= 0.00D+00 IRadAn=         5 IDoV= 1 UseB2=F ITyADJ=14
 ICtDFT=  3500011 ScaDFX=  1.000000  1.000000  1.000000  1.000000
 FoFCou: FMM=F IPFlag=           0 FMFlag=      100000 FMFlg1=           0
         NFxFlg=           0 DoJE=T BraDBF=F KetDBF=T FulRan=T
         wScrn=  0.000000 ICntrl=       500 IOpCl=  0 I1Cent=   200000004 NGrid=           0
         NMat0=    1 NMatS0=      1 NMatT0=    0 NMatD0=    1 NMtDS0=    0 NMtDT0=    0
 Petite list used in FoFCou.
 Harris En= -34.4763983564418    
 JPrj=0 DoOrth=F DoCkMO=F.
 Initial guess orbital symmetries:
       Occupied  (A') (A') (A') (A') (A') (A') (A") (A")
       Virtual   (A') (A') (A') (A') (A') (A") (A") (A') (A') (A')
                 (A') (A') (A') (A') (A') (A')
 The electronic state of the initial guess is 1-A'.
 Leave Link  401 at Sun Dec 10 06:29:24 2023, MaxMem=   536870912 cpu:               0.4 elap:               0.1
 (Enter /usr/site/hpc/x86_64/glibc-2.17/broadwell/gaussian/g16_a.03/pgi-16.5/g16/l502.exe)
 Keep R1 ints in memory in symmetry-blocked form, NReq=852026.
 FoFCou: FMM=F IPFlag=           0 FMFlag=           0 FMFlg1=           0
         NFxFlg=           0 DoJE=F BraDBF=F KetDBF=F FulRan=T
         wScrn=  0.000000 ICntrl=       600 IOpCl=  0 I1Cent=           0 NGrid=           0
         NMat0=    1 NMatS0=    300 NMatT0=    0 NMatD0=    1 NMtDS0=    0 NMtDT0=    0
 Petite list used in FoFCou.
 Closed shell SCF:
 Using DIIS extrapolation, IDIIS=  1040.
 NGot=   536870912 LenX=   536840576 LenY=   536839559
 Requested convergence on RMS density matrix=1.00D-08 within 128 cycles.
 Requested convergence on MAX density matrix=1.00D-06.
 Requested convergence on             energy=1.00D-06.
 No special actions if energy rises.

 Cycle   1  Pass 1  IDiag  1:
 E= -33.5525101209168    
 DIIS: error= 6.97D-02 at cycle   1 NSaved=   1.
 NSaved= 1 IEnMin= 1 EnMin= -33.5525101209168     IErMin= 1 ErrMin= 6.97D-02
 ErrMax= 6.97D-02  0.00D+00 EMaxC= 1.00D-01 BMatC= 1.03D-01 BMatP= 1.03D-01
 IDIUse=3 WtCom= 3.03D-01 WtEn= 6.97D-01
 Coeff-Com:  0.100D+01
 Coeff-En:   0.100D+01
 Coeff:      0.100D+01
 Gap=     0.601 Goal=   None    Shift=    0.000
 GapD=    0.601 DampG=2.000 DampE=0.500 DampFc=1.0000 IDamp=-1.
 RMSDP=1.51D-02 MaxDP=1.18D-01              OVMax= 1.01D-01

 Cycle   2  Pass 1  IDiag  1:
 E= -33.6164923006944     Delta-E=       -0.063982179778 Rises=F Damp=F
 DIIS: error= 3.77D-02 at cycle   2 NSaved=   2.
 NSaved= 2 IEnMin= 2 EnMin= -33.6164923006944     IErMin= 2 ErrMin= 3.77D-02
 ErrMax= 3.77D-02  0.00D+00 EMaxC= 1.00D-01 BMatC= 3.90D-02 BMatP= 1.03D-01
 IDIUse=3 WtCom= 6.23D-01 WtEn= 3.77D-01
 Coeff-Com:  0.378D+00 0.622D+00
 Coeff-En:   0.107D+00 0.893D+00
 Coeff:      0.276D+00 0.724D+00
 Gap=     0.706 Goal=   None    Shift=    0.000
 RMSDP=6.49D-03 MaxDP=5.49D-02 DE=-6.40D-02 OVMax= 3.64D-02

 Cycle   3  Pass 1  IDiag  1:
 E= -33.6475893028619     Delta-E=       -0.031097002167 Rises=F Damp=F
 DIIS: error= 7.40D-03 at cycle   3 NSaved=   3.
 NSaved= 3 IEnMin= 3 EnMin= -33.6475893028619     IErMin= 3 ErrMin= 7.40D-03
 ErrMax= 7.40D-03  0.00D+00 EMaxC= 1.00D-01 BMatC= 9.53D-04 BMatP= 3.90D-02
 IDIUse=3 WtCom= 9.26D-01 WtEn= 7.40D-02
 Coeff-Com: -0.115D+00-0.136D-01 0.113D+01
 Coeff-En:   0.000D+00 0.000D+00 0.100D+01
 Coeff:     -0.106D+00-0.126D-01 0.112D+01
 Gap=     0.698 Goal=   None    Shift=    0.000
 RMSDP=1.14D-03 MaxDP=9.55D-03 DE=-3.11D-02 OVMax= 8.38D-03

 Cycle   4  Pass 1  IDiag  1:
 E= -33.6485465555996     Delta-E=       -0.000957252738 Rises=F Damp=F
 DIIS: error= 7.89D-04 at cycle   4 NSaved=   4.
 NSaved= 4 IEnMin= 4 EnMin= -33.6485465555996     IErMin= 4 ErrMin= 7.89D-04
 ErrMax= 7.89D-04  0.00D+00 EMaxC= 1.00D-01 BMatC= 6.43D-06 BMatP= 9.53D-04
 IDIUse=3 WtCom= 9.92D-01 WtEn= 7.89D-03
 Coeff-Com:  0.434D-01-0.188D-01-0.514D+00 0.149D+01
 Coeff-En:   0.000D+00 0.000D+00 0.000D+00 0.100D+01
 Coeff:      0.430D-01-0.187D-01-0.510D+00 0.149D+01
 Gap=     0.700 Goal=   None    Shift=    0.000
 RMSDP=2.41D-04 MaxDP=2.08D-03 DE=-9.57D-04 OVMax= 9.80D-04

 Cycle   5  Pass 1  IDiag  1:
 E= -33.6485605003691     Delta-E=       -0.000013944769 Rises=F Damp=F
 DIIS: error= 5.50D-05 at cycle   5 NSaved=   5.
 NSaved= 5 IEnMin= 5 EnMin= -33.6485605003691     IErMin= 5 ErrMin= 5.50D-05
 ErrMax= 5.50D-05  0.00D+00 EMaxC= 1.00D-01 BMatC= 4.69D-08 BMatP= 6.43D-06
 IDIUse=1 WtCom= 1.00D+00 WtEn= 0.00D+00
 Coeff-Com: -0.728D-02 0.350D-02 0.866D-01-0.304D+00 0.122D+01
 Coeff:     -0.728D-02 0.350D-02 0.866D-01-0.304D+00 0.122D+01
 Gap=     0.700 Goal=   None    Shift=    0.000
 RMSDP=1.74D-05 MaxDP=1.66D-04 DE=-1.39D-05 OVMax= 1.15D-04

 Cycle   6  Pass 1  IDiag  1:
 E= -33.6485606181619     Delta-E=       -0.000000117793 Rises=F Damp=F
 DIIS: error= 1.18D-05 at cycle   6 NSaved=   6.
 NSaved= 6 IEnMin= 6 EnMin= -33.6485606181619     IErMin= 6 ErrMin= 1.18D-05
 ErrMax= 1.18D-05  0.00D+00 EMaxC= 1.00D-01 BMatC= 2.54D-09 BMatP= 4.69D-08
 IDIUse=1 WtCom= 1.00D+00 WtEn= 0.00D+00
 Coeff-Com:  0.132D-02-0.489D-03-0.150D-01 0.603D-01-0.420D+00 0.137D+01
 Coeff:      0.132D-02-0.489D-03-0.150D-01 0.603D-01-0.420D+00 0.137D+01
 Gap=     0.700 Goal=   None    Shift=    0.000
 RMSDP=4.25D-06 MaxDP=4.26D-05 DE=-1.18D-07 OVMax= 3.67D-05

 Cycle   7  Pass 1  IDiag  1:
 E= -33.6485606252000     Delta-E=       -0.000000007038 Rises=F Damp=F
 DIIS: error= 2.24D-06 at cycle   7 NSaved=   7.
 NSaved= 7 IEnMin= 7 EnMin= -33.6485606252000     IErMin= 7 ErrMin= 2.24D-06
 ErrMax= 2.24D-06  0.00D+00 EMaxC= 1.00D-01 BMatC= 1.06D-10 BMatP= 2.54D-09
 IDIUse=1 WtCom= 1.00D+00 WtEn= 0.00D+00
 Coeff-Com:  0.315D-04-0.846D-04-0.655D-03-0.877D-03 0.746D-01-0.446D+00
 Coeff-Com:  0.137D+01
 Coeff:      0.315D-04-0.846D-04-0.655D-03-0.877D-03 0.746D-01-0.446D+00
 Coeff:      0.137D+01
 Gap=     0.700 Goal=   None    Shift=    0.000
 RMSDP=1.16D-06 MaxDP=8.26D-06 DE=-7.04D-09 OVMax= 8.68D-06

 Cycle   8  Pass 1  IDiag  1:
 E= -33.6485606255080     Delta-E=       -0.000000000308 Rises=F Damp=F
 DIIS: error= 3.69D-07 at cycle   8 NSaved=   8.
 NSaved= 8 IEnMin= 8 EnMin= -33.6485606255080     IErMin= 8 ErrMin= 3.69D-07
 ErrMax= 3.69D-07  0.00D+00 EMaxC= 1.00D-01 BMatC= 2.99D-12 BMatP= 1.06D-10
 IDIUse=1 WtCom= 1.00D+00 WtEn= 0.00D+00
 Coeff-Com:  0.513D-05 0.225D-04 0.614D-04 0.925D-03-0.305D-01 0.177D+00
 Coeff-Com: -0.607D+00 0.146D+01
 Coeff:      0.513D-05 0.225D-04 0.614D-04 0.925D-03-0.305D-01 0.177D+00
 Coeff:     -0.607D+00 0.146D+01
 Gap=     0.700 Goal=   None    Shift=    0.000
 RMSDP=2.58D-07 MaxDP=1.20D-06 DE=-3.08D-10 OVMax= 1.73D-06

 Cycle   9  Pass 1  IDiag  1:
 E= -33.6485606255163     Delta-E=       -0.000000000008 Rises=F Damp=F
 DIIS: error= 4.11D-08 at cycle   9 NSaved=   9.
 NSaved= 9 IEnMin= 9 EnMin= -33.6485606255163     IErMin= 9 ErrMin= 4.11D-08
 ErrMax= 4.11D-08  0.00D+00 EMaxC= 1.00D-01 BMatC= 6.56D-14 BMatP= 2.99D-12
 IDIUse=1 WtCom= 1.00D+00 WtEn= 0.00D+00
 Coeff-Com:  0.246D-05 0.634D-05 0.615D-05 0.310D-03-0.901D-02 0.515D-01
 Coeff-Com: -0.173D+00 0.353D+00 0.778D+00
 Coeff:      0.246D-05 0.634D-05 0.615D-05 0.310D-03-0.901D-02 0.515D-01
 Coeff:     -0.173D+00 0.353D+00 0.778D+00
 Gap=     0.700 Goal=   None    Shift=    0.000
 RMSDP=2.02D-08 MaxDP=9.44D-08 DE=-8.37D-12 OVMax= 1.20D-07

 Cycle  10  Pass 1  IDiag  1:
 E= -33.6485606255164     Delta-E=       -0.000000000000 Rises=F Damp=F
 DIIS: error= 8.10D-09 at cycle  10 NSaved=  10.
 NSaved=10 IEnMin=10 EnMin= -33.6485606255164     IErMin=10 ErrMin= 8.10D-09
 ErrMax= 8.10D-09  0.00D+00 EMaxC= 1.00D-01 BMatC= 3.73D-15 BMatP= 6.56D-14
 IDIUse=1 WtCom= 1.00D+00 WtEn= 0.00D+00
 Coeff-Com:  0.130D-06-0.228D-05-0.129D-04-0.616D-04 0.276D-02-0.165D-01
 Coeff-Com:  0.564D-01-0.147D+00 0.409D-01 0.106D+01
 Coeff:      0.130D-06-0.228D-05-0.129D-04-0.616D-04 0.276D-02-0.165D-01
 Coeff:      0.564D-01-0.147D+00 0.409D-01 0.106D+01
 Gap=     0.700 Goal=   None    Shift=    0.000
 RMSDP=9.48D-09 MaxDP=4.39D-08 DE=-4.97D-14 OVMax= 5.37D-08

 SCF Done:  E(RHF) =  -33.6485606255     A.U. after   10 cycles
            NFock= 10  Conv=0.95D-08     -V/T= 2.2571
 KE= 2.676764671847D+01 PE=-1.229975170657D+02 EE= 4.196596698834D+01
 Leave Link  502 at Sun Dec 10 06:29:25 2023, MaxMem=   536870912 cpu:               0.3 elap:               0.1
 (Enter /usr/site/hpc/x86_64/glibc-2.17/broadwell/gaussian/g16_a.03/pgi-16.5/g16/l801.exe)
 Windowed orbitals will be sorted by symmetry type.
 Range of M.O.s used for correlation:     1    24
 NBasis=    24 NAE=     8 NBE=     8 NFC=     0 NFV=     0
 NROrb=     24 NOA=     8 NOB=     8 NVA=    16 NVB=    16
 Leave Link  801 at Sun Dec 10 06:29:25 2023, MaxMem=   536870912 cpu:               0.1 elap:               0.0
 (Enter /usr/site/hpc/x86_64/glibc-2.17/broadwell/gaussian/g16_a.03/pgi-16.5/g16/l804.exe)
 Closed-shell transformation, MDV=   536870912 ITran=4 ISComp=2.
 Unit  1 TFree=       1025975 TCopy=        210600.
 Semi-Direct transformation.
 ModeAB=           2 MOrb=             8 LenV=     536742350
 LASXX=        22470 LTotXX=       22470 LenRXX=       22470
 LTotAB=       26208 MaxLAS=       57600 LenRXY=       57600
 NonZer=       58368 LenScr=      524288 LnRSAI=           0
 LnScr1=           0 LExtra=           0 Total=       604358
 MaxDsk=          -1 SrtSym=           F ITran=            4
 DoSDTr:  NPSUse=  4
 JobTyp=0 Pass  1:  I=   1 to   8.
 (rs|ai) integrals will be sorted in core.
 Complete sort for first half transformation.
 First half transformation complete.
 Complete sort for second half transformation.
 Second half transformation complete.
 Spin components of T(2) and E(2):
     alpha-alpha T2 =       0.9078964241D-02 E2=     -0.2589505574D-01
     alpha-beta  T2 =       0.6009053971D-01 E2=     -0.1767810614D+00
     beta-beta   T2 =       0.9078964241D-02 E2=     -0.2589505574D-01
 ANorm=    0.1038387436D+01
 E2 =    -0.2285711729D+00 EUMP2 =    -0.33877131798435D+02
 Leave Link  804 at Sun Dec 10 06:29:25 2023, MaxMem=   536870912 cpu:               0.2 elap:               0.1
 (Enter /usr/site/hpc/x86_64/glibc-2.17/broadwell/gaussian/g16_a.03/pgi-16.5/g16/l913.exe)
 CIDS:  MDV=   536870912.
 IFCWin=0 IBDFC=1 NFBD=     0     0 NFCmp=     0     0 NFFFC=     0     0
 Using DD3R+UMP44R for 1st iteration.
 Using DD4RQ for 2nd and later iterations.
 Keep R2 and R3 ints in memory in symmetry-blocked form, NReq=864634.
 FoFCou: FMM=F IPFlag=           0 FMFlag=           0 FMFlg1=           0
         NFxFlg=           0 DoJE=F BraDBF=F KetDBF=F FulRan=T
         wScrn=  0.000000 ICntrl=       600 IOpCl=  0 I1Cent=           0 NGrid=           0
         NMat0=    1 NMatS0=    300 NMatT0=    0 NMatD0=    1 NMtDS0=    0 NMtDT0=    0
 Petite list used in FoFCou.
 CIDS: In Core Option IDoMem=           1.
 CCSD(T)
 =======
 Iterations=  50 Convergence= 0.100D-06
 Produce multiple copies of IABC intergrals
 Iteration Nr.   1
 **********************
 DD1Dir will call FoFMem   1 times, MxPair=        72
 NAB=    36 NAA=     0 NBB=     0.
 MP4(R+Q)= -0.72438693D-03
 Maximum subspace dimension=  5
 A-vector RMS=  5.7833229D-03 Max=  1.3204030D-02 conv= 1.00D-05.
 RLE energy=       -0.2346786710
 E3=       -0.54992226D-02        EUMP3=      -0.33882631021D+02
 E4(DQ)=   -0.59231234D-02        UMP4(DQ)=   -0.33888554145D+02
 E4(SDQ)=  -0.79606103D-02        UMP4(SDQ)=  -0.33890591631D+02
 VARIATIONAL ENERGIES WITH THE FIRST-ORDER WAVEFUNCTION:
 DE(Corr)= -0.23452006     E(Corr)=     -33.883080689    
 NORM(A)=   0.10418589D+01
 Iteration Nr.   2
 **********************
 DD1Dir will call FoFMem   1 times, MxPair=        72
 NAB=    36 NAA=     0 NBB=     0.
 A-vector RMS=  9.8831962D-04 Max=  1.9321168D-03 conv= 1.00D-05.
 RLE energy=       -0.2424921340
 DE(Corr)= -0.24053963     E(CORR)=     -33.889100255     Delta=-6.02D-03
 NORM(A)=   0.10456867D+01
 Iteration Nr.   3
 **********************
 DD1Dir will call FoFMem   1 times, MxPair=        72
 NAB=    36 NAA=     0 NBB=     0.
 A-vector RMS=  3.9368497D-04 Max=  1.2336882D-03 conv= 1.00D-05.
 RLE energy=       -0.2430453854
 DE(Corr)= -0.24259379     E(CORR)=     -33.891154411     Delta=-2.05D-03
 NORM(A)=   0.10462575D+01
 Iteration Nr.   4
 **********************
 DD1Dir will call FoFMem   1 times, MxPair=        72
 NAB=    36 NAA=     0 NBB=     0.
 A-vector RMS=  9.5770353D-05 Max=  2.7472400D-04 conv= 1.00D-05.
 RLE energy=       -0.2430933077
 DE(Corr)= -0.24305663     E(CORR)=     -33.891617253     Delta=-4.63D-04
 NORM(A)=   0.10463351D+01
 Iteration Nr.   5
 **********************
 DD1Dir will call FoFMem   1 times, MxPair=        72
 NAB=    36 NAA=     0 NBB=     0.
 A-vector RMS=  4.3410265D-05 Max=  1.6490369D-04 conv= 1.00D-05.
 RLE energy=       -0.2430914884
 DE(Corr)= -0.24308935     E(CORR)=     -33.891649971     Delta=-3.27D-05
 NORM(A)=   0.10463468D+01
 Iteration Nr.   6
 **********************
 DD1Dir will call FoFMem   1 times, MxPair=        72
 NAB=    36 NAA=     0 NBB=     0.
 A-vector RMS=  1.1853578D-05 Max=  4.6054219D-05 conv= 1.00D-05.
 RLE energy=       -0.2430905204
 DE(Corr)= -0.24309161     E(CORR)=     -33.891652236     Delta=-2.26D-06
 NORM(A)=   0.10463505D+01
 Iteration Nr.   7
 **********************
 DD1Dir will call FoFMem   1 times, MxPair=        72
 NAB=    36 NAA=     0 NBB=     0.
 A-vector RMS=  3.4730253D-06 Max=  1.4393822D-05 conv= 1.00D-05.
 RLE energy=       -0.2430914745
 DE(Corr)= -0.24309094     E(CORR)=     -33.891651570     Delta= 6.66D-07
 NORM(A)=   0.10463520D+01
 Iteration Nr.   8
 **********************
 DD1Dir will call FoFMem   1 times, MxPair=        72
 NAB=    36 NAA=     0 NBB=     0.
 A-vector RMS=  6.7701021D-07 Max=  3.0422583D-06 conv= 1.00D-05.
 RLE energy=       -0.2430909609
 DE(Corr)= -0.24309099     E(CORR)=     -33.891651612     Delta=-4.25D-08
 NORM(A)=   0.10463521D+01
 CI/CC converged in    8 iterations to DelEn=-4.25D-08 Conv= 1.00D-07 ErrA1= 6.77D-07 Conv= 1.00D-05
 Wavefunction amplitudes converged. E(Corr)=     -33.891651612    
 Largest amplitude= 2.94D-02
 IPart=  2 IA=    2   12.50% done.
 IPart=  3 IA=    3   24.17% done.
 IPart=  4 IA=    4   35.00% done.
 IPart=  4 IA=    5   45.00% done.
 IPart=  3 IA=    6   54.17% done.
 IPart=  2 IA=    7   62.50% done.
 IPart=  1 IA=    8   70.00% done.
 IPart=  2 IA=   10   82.50% done.
 IPart=  1 IA=   12   91.67% done.
 Time for triples=        0.26 seconds.
 T4(CCSD)= -0.31026945D-02
 T5(CCSD)=  0.52886782D-03
 CCSD(T)= -0.33894225439D+02
 Discarding MO integrals.
 Leave Link  913 at Sun Dec 10 06:29:25 2023, MaxMem=   536870912 cpu:               0.8 elap:               0.2
 (Enter /usr/site/hpc/x86_64/glibc-2.17/broadwell/gaussian/g16_a.03/pgi-16.5/g16/l601.exe)
 Copying SCF densities to generalized density rwf, IOpCl= 0 IROHF=0.

 **********************************************************************

            Population analysis using the SCF density.

 **********************************************************************

 Orbital symmetries:
       Occupied  (A') (A') (A') (A') (A') (A') (A") (A")
       Virtual   (A') (A') (A') (A') (A") (A") (A') (A') (A') (A')
                 (A') (A') (A') (A') (A') (A')
 The electronic state is 1-A'.
 Alpha  occ. eigenvalues --   -1.34442  -1.34437  -0.70064  -0.70059  -0.54060
 Alpha  occ. eigenvalues --   -0.53909  -0.48971  -0.48955
 Alpha virt. eigenvalues --    0.21033   0.21279   0.31353   0.31414   0.81457
 Alpha virt. eigenvalues --    0.81715   0.82893   0.87082   0.87625   0.88204
 Alpha virt. eigenvalues --    1.18326   1.18329   1.22775   1.22856   2.58361
 Alpha virt. eigenvalues --    2.58486
          Condensed to atoms (all electrons):
               1          2          3          4          5          6
     1  O    6.207602   0.260996   0.261267   0.000024   0.000000   0.000000
     2  H    0.260996   0.398110  -0.023807   0.000000  -0.000000  -0.000000
     3  H    0.261267  -0.023807   0.397351   0.000000  -0.000000  -0.000000
     4  O    0.000024   0.000000   0.000000   6.207594   0.260903   0.261353
     5  H    0.000000  -0.000000  -0.000000   0.260903   0.398272  -0.023809
     6  H    0.000000  -0.000000  -0.000000   0.261353  -0.023809   0.397213
 Mulliken charges:
               1
     1  O   -0.729889
     2  H    0.364700
     3  H    0.365189
     4  O   -0.729876
     5  H    0.364633
     6  H    0.365242
 Sum of Mulliken charges =   0.00000
 Mulliken charges with hydrogens summed into heavy atoms:
               1
     1  O    0.000000
     4  O   -0.000000
 Electronic spatial extent (au):  <R**2>=            352.4534
 Charge=              0.0000 electrons
 Dipole moment (field-independent basis, Debye):
    X=             -0.1714    Y=             -0.0058    Z=              0.0000  Tot=              0.1715
 Quadrupole moment (field-independent basis, Debye-Ang):
   XX=             -8.0795   YY=             11.8917   ZZ=            -14.9849
   XY=             -0.2790   XZ=              0.0000   YZ=              0.0000
 Traceless Quadrupole moment (field-independent basis, Debye-Ang):
   XX=             -4.3553   YY=             15.6160   ZZ=            -11.2607
   XY=             -0.2790   XZ=              0.0000   YZ=              0.0000
 Octapole moment (field-independent basis, Debye-Ang**2):
  XXX=             -0.2719  YYY=             -0.0186  ZZZ=              0.0000  XYY=             -0.1441
  XXY=             -0.0363  XXZ=              0.0000  XZZ=             -0.0320  YZZ=             -0.0011
  YYZ=              0.0000  XYZ=              0.0000
 Hexadecapole moment (field-independent basis, Debye-Ang**3):
 XXXX=            -12.0700 YYYY=           -140.8824 ZZZZ=            -12.2146 XXXY=             -0.4970
 XXXZ=              0.0000 YYYX=              0.8893 YYYZ=              0.0000 ZZZX=              0.0000
 ZZZY=              0.0000 XXYY=            -36.5020 XXZZ=             -4.6264 YYZZ=            -84.7508
 XXYZ=              0.0000 YYXZ=              0.0000 ZZXY=              0.0453
 N-N= 2.061534273339D+01 E-N=-1.229975169853D+02  KE= 2.676764671847D+01
 Symmetry A'   KE= 1.788047962954D+01
 Symmetry A"   KE= 8.887167088928D+00
 Leave Link  601 at Sun Dec 10 06:29:25 2023, MaxMem=   536870912 cpu:               0.1 elap:               0.0
 (Enter /usr/site/hpc/x86_64/glibc-2.17/broadwell/gaussian/g16_a.03/pgi-16.5/g16/l9999.exe)
 1\1\GINC-N045\SP\RCCSD(T)-FC\CEP-31G\H4O2\ROOT\10-Dec-2023\0\\#p CCSD(
 T)/CEP-31G\\H2O_H2O_2751\\0,1\O,0,0.,-0.009833,0.\H,0,-0.799571,-0.580
 965,0.\H,0,0.799571,-0.580965,0.\O,0,-0.000643,4.522444,0.\H,0,0.75986
 3,5.144648,0.\H,0,-0.835856,5.040059,0.\\Version=ES64L-G16RevA.03\Stat
 e=1-A'\HF=-33.6485606\MP2=-33.8771318\MP3=-33.882631\MP4D=-33.8878298\
 MP4DQ=-33.8885541\MP4SDQ=-33.8905916\CCSD=-33.8916516\CCSD(T)=-33.8942
 254\RMSD=9.476e-09\PG=CS [SG(H4O2)]\\@


 I DO NOT KNOW WHAT I MAY APPEAR TO THE WORLD; BUT TO MYSELF
 I SEEM TO HAVE BEEN ONLY LIKE A BOY PLAYING ON THE SEASHORE,
 AND DIVERTING MYSELF IN NOW AND THEN FINDING A SMOOTHER PEBBLE
 OR A PRETTIER SHELL THAN ORDINARY, WHILST THE GREAT OCEAN OF
 TRUTH LAY ALL UNDISCOVERED BEFORE ME.
                                          -- NEWTON (1642-1726)
 Job cpu time:       0 days  0 hours  0 minutes  3.3 seconds.
 Elapsed time:       0 days  0 hours  0 minutes  1.0 seconds.
 File lengths (MBytes):  RWF=     72 Int=      0 D2E=      0 Chk=      8 Scr=      8
 Normal termination of Gaussian 16 at Sun Dec 10 06:29:25 2023.
