 Entering Gaussian System, Link 0=g16
 Input=H2O_H2O_4266.com
 Output=H2O_H2O_4266.log
 Initial command:
 /usr/site/hpc/x86_64/glibc-2.17/broadwell/gaussian/g16_a.03/pgi-16.5/g16/l1.exe "/gpfs/gpfs1/scratch/c7441090/OO Coord/Gau-1807860.inp" -scrdir="/gpfs/gpfs1/scratch/c7441090/OO Coord/"
 Entering Link 1 = /usr/site/hpc/x86_64/glibc-2.17/broadwell/gaussian/g16_a.03/pgi-16.5/g16/l1.exe PID=   1807861.
  
 Copyright (c) 1988,1990,1992,1993,1995,1998,2003,2009,2016,
            Gaussian, Inc.  All Rights Reserved.
  
 This is part of the Gaussian(R) 16 program.  It is based on
 the Gaussian(R) 09 system (copyright 2009, Gaussian, Inc.),
 the Gaussian(R) 03 system (copyright 2003, Gaussian, Inc.),
 the Gaussian(R) 98 system (copyright 1998, Gaussian, Inc.),
 the Gaussian(R) 94 system (copyright 1995, Gaussian, Inc.),
 the Gaussian 92(TM) system (copyright 1992, Gaussian, Inc.),
 the Gaussian 90(TM) system (copyright 1990, Gaussian, Inc.),
 the Gaussian 88(TM) system (copyright 1988, Gaussian, Inc.),
 the Gaussian 86(TM) system (copyright 1986, Carnegie Mellon
 University), and the Gaussian 82(TM) system (copyright 1983,
 Carnegie Mellon University). Gaussian is a federally registered
 trademark of Gaussian, Inc.
  
 This software contains proprietary and confidential information,
 including trade secrets, belonging to Gaussian, Inc.
  
 This software is provided under written license and may be
 used, copied, transmitted, or stored only in accord with that
 written license.
  
 The following legend is applicable only to US Government
 contracts under FAR:
  
                    RESTRICTED RIGHTS LEGEND
  
 Use, reproduction and disclosure by the US Government is
 subject to restrictions as set forth in subparagraphs (a)
 and (c) of the Commercial Computer Software - Restricted
 Rights clause in FAR 52.227-19.
  
 Gaussian, Inc.
 340 Quinnipiac St., Bldg. 40, Wallingford CT 06492
  
  
 ---------------------------------------------------------------
 Warning -- This program may not be used in any manner that
 competes with the business of Gaussian, Inc. or will provide
 assistance to any competitor of Gaussian, Inc.  The licensee
 of this program is prohibited from giving any competitor of
 Gaussian, Inc. access to this program.  By using this program,
 the user acknowledges that Gaussian, Inc. is engaged in the
 business of creating and licensing software in the field of
 computational chemistry and represents and warrants to the
 licensee that it is not a competitor of Gaussian, Inc. and that
 it will not use this program in any manner prohibited above.
 ---------------------------------------------------------------
  

 Cite this work as:
 Gaussian 16, Revision A.03,
 M. J. Frisch, G. W. Trucks, H. B. Schlegel, G. E. Scuseria, 
 M. A. Robb, J. R. Cheeseman, G. Scalmani, V. Barone, 
 G. A. Petersson, H. Nakatsuji, X. Li, M. Caricato, A. V. Marenich, 
 J. Bloino, B. G. Janesko, R. Gomperts, B. Mennucci, H. P. Hratchian, 
 J. V. Ortiz, A. F. Izmaylov, J. L. Sonnenberg, D. Williams-Young, 
 F. Ding, F. Lipparini, F. Egidi, J. Goings, B. Peng, A. Petrone, 
 T. Henderson, D. Ranasinghe, V. G. Zakrzewski, J. Gao, N. Rega, 
 G. Zheng, W. Liang, M. Hada, M. Ehara, K. Toyota, R. Fukuda, 
 J. Hasegawa, M. Ishida, T. Nakajima, Y. Honda, O. Kitao, H. Nakai, 
 T. Vreven, K. Throssell, J. A. Montgomery, Jr., J. E. Peralta, 
 F. Ogliaro, M. J. Bearpark, J. J. Heyd, E. N. Brothers, K. N. Kudin, 
 V. N. Staroverov, T. A. Keith, R. Kobayashi, J. Normand, 
 K. Raghavachari, A. P. Rendell, J. C. Burant, S. S. Iyengar, 
 J. Tomasi, M. Cossi, J. M. Millam, M. Klene, C. Adamo, R. Cammi, 
 J. W. Ochterski, R. L. Martin, K. Morokuma, O. Farkas, 
 J. B. Foresman, and D. J. Fox, Gaussian, Inc., Wallingford CT, 2016.
 
 ******************************************
 Gaussian 16:  ES64L-G16RevA.03 25-Dec-2016
                10-Dec-2023 
 ******************************************
 %NProcShared=4
 Will use up to    4 processors via shared memory.
 %Mem=4GB
 %Chk=H2O_H2O_4266.chk
 ------------------
 #p CCSD(T)/CEP-31G
 ------------------
 1/38=1,172=1/1;
 2/12=2,17=6,18=5,40=1/2;
 3/5=9,6=1,11=9,25=1,30=1/1,2,3;
 4//1;
 5/5=2,38=5/2;
 8/6=4,9=120000,10=1/1,4;
 9/5=7,14=2/13;
 6/7=2,8=2,9=2,10=2/1;
 99/5=1,9=1/99;
 Leave Link    1 at Sun Dec 10 06:56:51 2023, MaxMem=   536870912 cpu:               0.2 elap:               0.1
 (Enter /usr/site/hpc/x86_64/glibc-2.17/broadwell/gaussian/g16_a.03/pgi-16.5/g16/l101.exe)
 ------------
 H2O_H2O_4266
 ------------
 Symbolic Z-matrix:
 Charge =  0 Multiplicity = 1
 O                     0.       -0.00983   0. 
 H                    -0.79957  -0.58097   0. 
 H                     0.79957  -0.58097   0. 
 O                    -0.00852   6.11306   0. 
 H                    -0.10335   7.09107   0. 
 H                    -0.90292   5.70617   0. 
 
 ITRead=  0  0  0  0  0  0
 MicOpt= -1 -1 -1 -1 -1 -1
 NAtoms=      6 NQM=        6 NQMF=       0 NMMI=      0 NMMIF=      0
                NMic=       0 NMicF=      0.
                    Isotopes and Nuclear Properties:
 (Nuclear quadrupole moments (NQMom) in fm**2, nuclear magnetic moments (NMagM)
  in nuclear magnetons)

  Atom         1           2           3           4           5           6
 IAtWgt=          16           1           1          16           1           1
 AtmWgt=  15.9949146   1.0078250   1.0078250  15.9949146   1.0078250   1.0078250
 NucSpn=           0           1           1           0           1           1
 AtZEff=  -0.0000000  -0.0000000  -0.0000000  -0.0000000  -0.0000000  -0.0000000
 NQMom=    0.0000000   0.0000000   0.0000000   0.0000000   0.0000000   0.0000000
 NMagM=    0.0000000   2.7928460   2.7928460   0.0000000   2.7928460   2.7928460
 AtZNuc=   8.0000000   1.0000000   1.0000000   8.0000000   1.0000000   1.0000000
 Leave Link  101 at Sun Dec 10 06:56:51 2023, MaxMem=   536870912 cpu:               0.3 elap:               0.1
 (Enter /usr/site/hpc/x86_64/glibc-2.17/broadwell/gaussian/g16_a.03/pgi-16.5/g16/l202.exe)
                          Input orientation:                          
 ---------------------------------------------------------------------
 Center     Atomic      Atomic             Coordinates (Angstroms)
 Number     Number       Type             X           Y           Z
 ---------------------------------------------------------------------
      1          8           0        0.000000   -0.009833    0.000000
      2          1           0       -0.799571   -0.580965    0.000000
      3          1           0        0.799571   -0.580965    0.000000
      4          8           0       -0.008516    6.113057    0.000000
      5          1           0       -0.103345    7.091072    0.000000
      6          1           0       -0.902916    5.706174    0.000000
 ---------------------------------------------------------------------
                    Distance matrix (angstroms):
                    1          2          3          4          5
     1  O    0.000000
     2  H    0.982601   0.000000
     3  H    0.982601   1.599142   0.000000
     4  O    6.122896   6.740601   6.742621   0.000000
     5  H    7.101657   7.703563   7.724986   0.982602   0.000000
     6  H    5.786881   6.287988   6.513569   0.982601   1.599142
                    6
     6  H    0.000000
 Stoichiometry    H4O2
 Framework group  CS[SG(H4O2)]
 Deg. of freedom     9
 Full point group                 CS      NOp   2
 Largest Abelian subgroup         CS      NOp   2
 Largest concise Abelian subgroup C1      NOp   1
                         Standard orientation:                         
 ---------------------------------------------------------------------
 Center     Atomic      Atomic             Coordinates (Angstroms)
 Number     Number       Type             X           Y           Z
 ---------------------------------------------------------------------
      1          8           0        0.049501   -3.032960    0.000000
      2          1           0       -0.750863   -3.602980    0.000000
      3          1           0        0.848277   -3.605204    0.000000
      4          8           0        0.049501    3.089936    0.000000
      5          1           0       -0.043968    4.068082    0.000000
      6          1           0       -0.845464    2.684297    0.000000
 ---------------------------------------------------------------------
 Rotational constants (GHZ):         245.9637411           1.4439854           1.4355576
 Leave Link  202 at Sun Dec 10 06:56:51 2023, MaxMem=   536870912 cpu:               0.0 elap:               0.0
 (Enter /usr/site/hpc/x86_64/glibc-2.17/broadwell/gaussian/g16_a.03/pgi-16.5/g16/l301.exe)
 Standard basis: CEP-31G (6D, 10F)
 Ernie: Thresh=  0.10000D-02 Tol=  0.10000D-05 Strict=F.
 There are    20 symmetry adapted cartesian basis functions of A'  symmetry.
 There are     4 symmetry adapted cartesian basis functions of A"  symmetry.
 There are    20 symmetry adapted basis functions of A'  symmetry.
 There are     4 symmetry adapted basis functions of A"  symmetry.
    24 basis functions,    48 primitive gaussians,    24 cartesian basis functions
     8 alpha electrons        8 beta electrons
       nuclear repulsion energy        18.9385706255 Hartrees.
 IExCor=    0 DFT=F Ex=HF Corr=None ExCW=0 ScaHFX=  1.000000
 ScaDFX=  1.000000  1.000000  1.000000  1.000000 ScalE2=  1.000000  1.000000
 IRadAn=      5 IRanWt=     -1 IRanGd=            0 ICorTp=0 IEmpDi=  4
 NAtoms=    6 NActive=    6 NUniq=    6 SFac= 1.00D+00 NAtFMM=   60 NAOKFM=F Big=F
 Integral buffers will be    131072 words long.
 Raffenetti 1 integral format.
 Two-electron integral symmetry is turned on.
 Leave Link  301 at Sun Dec 10 06:56:51 2023, MaxMem=   536870912 cpu:               0.2 elap:               0.1
 (Enter /usr/site/hpc/x86_64/glibc-2.17/broadwell/gaussian/g16_a.03/pgi-16.5/g16/l302.exe)
 NPDir=0 NMtPBC=     1 NCelOv=     1 NCel=       1 NClECP=     1 NCelD=      1
         NCelK=      1 NCelE2=     1 NClLst=     1 CellRange=     0.0.
 One-electron integrals computed using PRISM.
 One-electron integral symmetry used in STVInt
   2 Symmetry operations used in ECPInt.
 ECPInt:  NShTT=      78 NPrTT=     318 LenC2=      76 LenP2D=     241.
 LDataN:  DoStor=T MaxTD1= 2 Len=   12
 NBasis=    24 RedAO= T EigKep=  3.86D-02  NBF=    20     4
 NBsUse=    24 1.00D-06 EigRej= -1.00D+00 NBFU=    20     4
 Leave Link  302 at Sun Dec 10 06:56:51 2023, MaxMem=   536870912 cpu:               0.3 elap:               0.1
 (Enter /usr/site/hpc/x86_64/glibc-2.17/broadwell/gaussian/g16_a.03/pgi-16.5/g16/l303.exe)
 DipDrv:  MaxL=1.
 Leave Link  303 at Sun Dec 10 06:56:51 2023, MaxMem=   536870912 cpu:               0.1 elap:               0.0
 (Enter /usr/site/hpc/x86_64/glibc-2.17/broadwell/gaussian/g16_a.03/pgi-16.5/g16/l401.exe)
 ExpMin= 1.78D-01 ExpMax= 1.92D+01 ExpMxC= 1.92D+01 IAcc=3 IRadAn=         5 AccDes= 0.00D+00
 Harris functional with IExCor=  205 and IRadAn=       5 diagonalized for initial guess.
 HarFok:  IExCor=  205 AccDes= 0.00D+00 IRadAn=         5 IDoV= 1 UseB2=F ITyADJ=14
 ICtDFT=  3500011 ScaDFX=  1.000000  1.000000  1.000000  1.000000
 FoFCou: FMM=F IPFlag=           0 FMFlag=      100000 FMFlg1=           0
         NFxFlg=           0 DoJE=T BraDBF=F KetDBF=T FulRan=T
         wScrn=  0.000000 ICntrl=       500 IOpCl=  0 I1Cent=   200000004 NGrid=           0
         NMat0=    1 NMatS0=      1 NMatT0=    0 NMatD0=    1 NMtDS0=    0 NMtDT0=    0
 Petite list used in FoFCou.
 Harris En= -34.4763702181084    
 JPrj=0 DoOrth=F DoCkMO=F.
 Initial guess orbital symmetries:
       Occupied  (A') (A') (A') (A') (A') (A') (A") (A")
       Virtual   (A') (A') (A') (A') (A") (A") (A') (A') (A') (A')
                 (A') (A') (A') (A') (A') (A')
 The electronic state of the initial guess is 1-A'.
 Leave Link  401 at Sun Dec 10 06:56:52 2023, MaxMem=   536870912 cpu:               0.4 elap:               0.1
 (Enter /usr/site/hpc/x86_64/glibc-2.17/broadwell/gaussian/g16_a.03/pgi-16.5/g16/l502.exe)
 Keep R1 ints in memory in symmetry-blocked form, NReq=851752.
 FoFCou: FMM=F IPFlag=           0 FMFlag=           0 FMFlg1=           0
         NFxFlg=           0 DoJE=F BraDBF=F KetDBF=F FulRan=T
         wScrn=  0.000000 ICntrl=       600 IOpCl=  0 I1Cent=           0 NGrid=           0
         NMat0=    1 NMatS0=    300 NMatT0=    0 NMatD0=    1 NMtDS0=    0 NMtDT0=    0
 Petite list used in FoFCou.
 Closed shell SCF:
 Using DIIS extrapolation, IDIIS=  1040.
 NGot=   536870912 LenX=   536840576 LenY=   536839559
 Requested convergence on RMS density matrix=1.00D-08 within 128 cycles.
 Requested convergence on MAX density matrix=1.00D-06.
 Requested convergence on             energy=1.00D-06.
 No special actions if energy rises.

 Cycle   1  Pass 1  IDiag  1:
 E= -33.5567058829885    
 DIIS: error= 6.89D-02 at cycle   1 NSaved=   1.
 NSaved= 1 IEnMin= 1 EnMin= -33.5567058829885     IErMin= 1 ErrMin= 6.89D-02
 ErrMax= 6.89D-02  0.00D+00 EMaxC= 1.00D-01 BMatC= 1.02D-01 BMatP= 1.02D-01
 IDIUse=3 WtCom= 3.11D-01 WtEn= 6.89D-01
 Coeff-Com:  0.100D+01
 Coeff-En:   0.100D+01
 Coeff:      0.100D+01
 Gap=     0.606 Goal=   None    Shift=    0.000
 GapD=    0.606 DampG=2.000 DampE=0.500 DampFc=1.0000 IDamp=-1.
 RMSDP=1.49D-02 MaxDP=1.17D-01              OVMax= 9.95D-02

 Cycle   2  Pass 1  IDiag  1:
 E= -33.6197455371600     Delta-E=       -0.063039654172 Rises=F Damp=F
 DIIS: error= 3.74D-02 at cycle   2 NSaved=   2.
 NSaved= 2 IEnMin= 2 EnMin= -33.6197455371600     IErMin= 2 ErrMin= 3.74D-02
 ErrMax= 3.74D-02  0.00D+00 EMaxC= 1.00D-01 BMatC= 3.84D-02 BMatP= 1.02D-01
 IDIUse=3 WtCom= 6.26D-01 WtEn= 3.74D-01
 Coeff-Com:  0.377D+00 0.623D+00
 Coeff-En:   0.109D+00 0.891D+00
 Coeff:      0.277D+00 0.723D+00
 Gap=     0.704 Goal=   None    Shift=    0.000
 RMSDP=6.42D-03 MaxDP=5.44D-02 DE=-6.30D-02 OVMax= 3.58D-02

 Cycle   3  Pass 1  IDiag  1:
 E= -33.6504143316533     Delta-E=       -0.030668794493 Rises=F Damp=F
 DIIS: error= 7.20D-03 at cycle   3 NSaved=   3.
 NSaved= 3 IEnMin= 3 EnMin= -33.6504143316533     IErMin= 3 ErrMin= 7.20D-03
 ErrMax= 7.20D-03  0.00D+00 EMaxC= 1.00D-01 BMatC= 9.10D-04 BMatP= 3.84D-02
 IDIUse=3 WtCom= 9.28D-01 WtEn= 7.20D-02
 Coeff-Com: -0.114D+00-0.157D-01 0.113D+01
 Coeff-En:   0.000D+00 0.000D+00 0.100D+01
 Coeff:     -0.106D+00-0.146D-01 0.112D+01
 Gap=     0.697 Goal=   None    Shift=    0.000
 RMSDP=1.09D-03 MaxDP=9.31D-03 DE=-3.07D-02 OVMax= 8.12D-03

 Cycle   4  Pass 1  IDiag  1:
 E= -33.6513238374522     Delta-E=       -0.000909505799 Rises=F Damp=F
 DIIS: error= 7.60D-04 at cycle   4 NSaved=   4.
 NSaved= 4 IEnMin= 4 EnMin= -33.6513238374522     IErMin= 4 ErrMin= 7.60D-04
 ErrMax= 7.60D-04  0.00D+00 EMaxC= 1.00D-01 BMatC= 5.98D-06 BMatP= 9.10D-04
 IDIUse=3 WtCom= 9.92D-01 WtEn= 7.60D-03
 Coeff-Com:  0.438D-01-0.178D-01-0.524D+00 0.150D+01
 Coeff-En:   0.000D+00 0.000D+00 0.000D+00 0.100D+01
 Coeff:      0.434D-01-0.177D-01-0.520D+00 0.149D+01
 Gap=     0.698 Goal=   None    Shift=    0.000
 RMSDP=2.36D-04 MaxDP=2.04D-03 DE=-9.10D-04 OVMax= 9.64D-04

 Cycle   5  Pass 1  IDiag  1:
 E= -33.6513370804267     Delta-E=       -0.000013242975 Rises=F Damp=F
 DIIS: error= 5.08D-05 at cycle   5 NSaved=   5.
 NSaved= 5 IEnMin= 5 EnMin= -33.6513370804267     IErMin= 5 ErrMin= 5.08D-05
 ErrMax= 5.08D-05  0.00D+00 EMaxC= 1.00D-01 BMatC= 3.98D-08 BMatP= 5.98D-06
 IDIUse=1 WtCom= 1.00D+00 WtEn= 0.00D+00
 Coeff-Com: -0.709D-02 0.323D-02 0.859D-01-0.294D+00 0.121D+01
 Coeff:     -0.709D-02 0.323D-02 0.859D-01-0.294D+00 0.121D+01
 Gap=     0.699 Goal=   None    Shift=    0.000
 RMSDP=1.61D-05 MaxDP=1.53D-04 DE=-1.32D-05 OVMax= 1.05D-04

 Cycle   6  Pass 1  IDiag  1:
 E= -33.6513371791956     Delta-E=       -0.000000098769 Rises=F Damp=F
 DIIS: error= 1.10D-05 at cycle   6 NSaved=   6.
 NSaved= 6 IEnMin= 6 EnMin= -33.6513371791956     IErMin= 6 ErrMin= 1.10D-05
 ErrMax= 1.10D-05  0.00D+00 EMaxC= 1.00D-01 BMatC= 2.24D-09 BMatP= 3.98D-08
 IDIUse=1 WtCom= 1.00D+00 WtEn= 0.00D+00
 Coeff-Com:  0.118D-02-0.416D-03-0.138D-01 0.538D-01-0.394D+00 0.135D+01
 Coeff:      0.118D-02-0.416D-03-0.138D-01 0.538D-01-0.394D+00 0.135D+01
 Gap=     0.699 Goal=   None    Shift=    0.000
 RMSDP=3.95D-06 MaxDP=4.13D-05 DE=-9.88D-08 OVMax= 3.56D-05

 Cycle   7  Pass 1  IDiag  1:
 E= -33.6513371852979     Delta-E=       -0.000000006102 Rises=F Damp=F
 DIIS: error= 2.28D-06 at cycle   7 NSaved=   7.
 NSaved= 7 IEnMin= 7 EnMin= -33.6513371852979     IErMin= 7 ErrMin= 2.28D-06
 ErrMax= 2.28D-06  0.00D+00 EMaxC= 1.00D-01 BMatC= 1.42D-10 BMatP= 2.24D-09
 IDIUse=1 WtCom= 1.00D+00 WtEn= 0.00D+00
 Coeff-Com:  0.407D-03-0.202D-03-0.496D-02 0.164D-01-0.527D-01-0.386D-01
 Coeff-Com:  0.108D+01
 Coeff:      0.407D-03-0.202D-03-0.496D-02 0.164D-01-0.527D-01-0.386D-01
 Coeff:      0.108D+01
 Gap=     0.699 Goal=   None    Shift=    0.000
 RMSDP=9.46D-07 MaxDP=6.41D-06 DE=-6.10D-09 OVMax= 8.59D-06

 Cycle   8  Pass 1  IDiag  1:
 E= -33.6513371856000     Delta-E=       -0.000000000302 Rises=F Damp=F
 DIIS: error= 7.35D-07 at cycle   8 NSaved=   8.
 NSaved= 8 IEnMin= 8 EnMin= -33.6513371856000     IErMin= 8 ErrMin= 7.35D-07
 ErrMax= 7.35D-07  0.00D+00 EMaxC= 1.00D-01 BMatC= 2.41D-11 BMatP= 1.42D-10
 IDIUse=1 WtCom= 1.00D+00 WtEn= 0.00D+00
 Coeff-Com: -0.287D-06-0.252D-04-0.745D-04-0.841D-03 0.313D-01-0.177D+00
 Coeff-Com:  0.283D+00 0.864D+00
 Coeff:     -0.287D-06-0.252D-04-0.745D-04-0.841D-03 0.313D-01-0.177D+00
 Coeff:      0.283D+00 0.864D+00
 Gap=     0.699 Goal=   None    Shift=    0.000
 RMSDP=3.48D-07 MaxDP=2.68D-06 DE=-3.02D-10 OVMax= 2.85D-06

 Cycle   9  Pass 1  IDiag  1:
 E= -33.6513371856373     Delta-E=       -0.000000000037 Rises=F Damp=F
 DIIS: error= 1.87D-07 at cycle   9 NSaved=   9.
 NSaved= 9 IEnMin= 9 EnMin= -33.6513371856373     IErMin= 9 ErrMin= 1.87D-07
 ErrMax= 1.87D-07  0.00D+00 EMaxC= 1.00D-01 BMatC= 7.26D-13 BMatP= 2.41D-11
 IDIUse=1 WtCom= 1.00D+00 WtEn= 0.00D+00
 Coeff-Com:  0.354D-05 0.757D-05-0.457D-05 0.412D-03-0.125D-01 0.732D-01
 Coeff-Com: -0.157D+00-0.327D+00 0.142D+01
 Coeff:      0.354D-05 0.757D-05-0.457D-05 0.412D-03-0.125D-01 0.732D-01
 Coeff:     -0.157D+00-0.327D+00 0.142D+01
 Gap=     0.699 Goal=   None    Shift=    0.000
 RMSDP=1.28D-07 MaxDP=5.94D-07 DE=-3.73D-11 OVMax= 8.64D-07

 Cycle  10  Pass 1  IDiag  1:
 E= -33.6513371856393     Delta-E=       -0.000000000002 Rises=F Damp=F
 DIIS: error= 8.62D-09 at cycle  10 NSaved=  10.
 NSaved=10 IEnMin=10 EnMin= -33.6513371856393     IErMin=10 ErrMin= 8.62D-09
 ErrMax= 8.62D-09  0.00D+00 EMaxC= 1.00D-01 BMatC= 2.78D-15 BMatP= 7.26D-13
 IDIUse=1 WtCom= 1.00D+00 WtEn= 0.00D+00
 Coeff-Com:  0.841D-07-0.199D-05-0.991D-05-0.577D-04 0.274D-02-0.168D-01
 Coeff-Com:  0.366D-01 0.730D-01-0.372D+00 0.128D+01
 Coeff:      0.841D-07-0.199D-05-0.991D-05-0.577D-04 0.274D-02-0.168D-01
 Coeff:      0.366D-01 0.730D-01-0.372D+00 0.128D+01
 Gap=     0.699 Goal=   None    Shift=    0.000
 RMSDP=1.18D-08 MaxDP=5.54D-08 DE=-1.96D-12 OVMax= 6.76D-08

 Cycle  11  Pass 1  IDiag  1:
 E= -33.6513371856393     Delta-E=       -0.000000000000 Rises=F Damp=F
 DIIS: error= 3.63D-10 at cycle  11 NSaved=  11.
 NSaved=11 IEnMin=11 EnMin= -33.6513371856393     IErMin=11 ErrMin= 3.63D-10
 ErrMax= 3.63D-10  0.00D+00 EMaxC= 1.00D-01 BMatC= 3.63D-18 BMatP= 2.78D-15
 IDIUse=1 WtCom= 1.00D+00 WtEn= 0.00D+00
 Coeff-Com: -0.774D-07 0.348D-06 0.237D-05 0.744D-05-0.458D-03 0.284D-02
 Coeff-Com: -0.627D-02-0.124D-01 0.644D-01-0.240D+00 0.119D+01
 Coeff:     -0.774D-07 0.348D-06 0.237D-05 0.744D-05-0.458D-03 0.284D-02
 Coeff:     -0.627D-02-0.124D-01 0.644D-01-0.240D+00 0.119D+01
 Gap=     0.699 Goal=   None    Shift=    0.000
 RMSDP=2.16D-10 MaxDP=1.11D-09 DE=-7.82D-14 OVMax= 8.32D-10

 SCF Done:  E(RHF) =  -33.6513371856     A.U. after   11 cycles
            NFock= 11  Conv=0.22D-09     -V/T= 2.2570
 KE= 2.677207732192D+01 PE=-1.195337762780D+02 EE= 4.017179114500D+01
 Leave Link  502 at Sun Dec 10 06:56:52 2023, MaxMem=   536870912 cpu:               0.3 elap:               0.1
 (Enter /usr/site/hpc/x86_64/glibc-2.17/broadwell/gaussian/g16_a.03/pgi-16.5/g16/l801.exe)
 Windowed orbitals will be sorted by symmetry type.
 Range of M.O.s used for correlation:     1    24
 NBasis=    24 NAE=     8 NBE=     8 NFC=     0 NFV=     0
 NROrb=     24 NOA=     8 NOB=     8 NVA=    16 NVB=    16
 Leave Link  801 at Sun Dec 10 06:56:52 2023, MaxMem=   536870912 cpu:               0.1 elap:               0.0
 (Enter /usr/site/hpc/x86_64/glibc-2.17/broadwell/gaussian/g16_a.03/pgi-16.5/g16/l804.exe)
 Closed-shell transformation, MDV=   536870912 ITran=4 ISComp=2.
 Unit  1 TFree=       1025975 TCopy=        210600.
 Semi-Direct transformation.
 ModeAB=           4 MOrb=             8 LenV=     536742773
 LASXX=        22470 LTotXX=       22470 LenRXX=       48678
 LTotAB=       26208 MaxLAS=       54528 LenRXY=           0
 NonZer=       71148 LenScr=      524288 LnRSAI=       54528
 LnScr1=      524288 LExtra=           0 Total=      1151782
 MaxDsk=          -1 SrtSym=           T ITran=            4
 DoSDTr:  NPSUse=  4
 JobTyp=0 Pass  1:  I=   1 to   8.
 (rs|ai) integrals will be sorted in core.
 Complete sort for first half transformation.
 First half transformation complete.
 Complete sort for second half transformation.
 Second half transformation complete.
 Spin components of T(2) and E(2):
     alpha-alpha T2 =       0.9068889751D-02 E2=     -0.2589125225D-01
     alpha-beta  T2 =       0.5996193659D-01 E2=     -0.1766294895D+00
     beta-beta   T2 =       0.9068889751D-02 E2=     -0.2589125225D-01
 ANorm=    0.1038315807D+01
 E2 =    -0.2284119941D+00 EUMP2 =    -0.33879749179692D+02
 Leave Link  804 at Sun Dec 10 06:56:52 2023, MaxMem=   536870912 cpu:               0.2 elap:               0.1
 (Enter /usr/site/hpc/x86_64/glibc-2.17/broadwell/gaussian/g16_a.03/pgi-16.5/g16/l913.exe)
 CIDS:  MDV=   536870912.
 IFCWin=0 IBDFC=1 NFBD=     0     0 NFCmp=     0     0 NFFFC=     0     0
 Using DD3R+UMP44R for 1st iteration.
 Using DD4RQ for 2nd and later iterations.
 Keep R2 and R3 ints in memory in symmetry-blocked form, NReq=864360.
 FoFCou: FMM=F IPFlag=           0 FMFlag=           0 FMFlg1=           0
         NFxFlg=           0 DoJE=F BraDBF=F KetDBF=F FulRan=T
         wScrn=  0.000000 ICntrl=       600 IOpCl=  0 I1Cent=           0 NGrid=           0
         NMat0=    1 NMatS0=    300 NMatT0=    0 NMatD0=    1 NMtDS0=    0 NMtDT0=    0
 Petite list used in FoFCou.
 CIDS: In Core Option IDoMem=           1.
 CCSD(T)
 =======
 Iterations=  50 Convergence= 0.100D-06
 Produce multiple copies of IABC intergrals
 Iteration Nr.   1
 **********************
 DD1Dir will call FoFMem   1 times, MxPair=        72
 NAB=    36 NAA=     0 NBB=     0.
 MP4(R+Q)= -0.73827124D-03
 Maximum subspace dimension=  5
 A-vector RMS=  5.7619941D-03 Max=  1.3218703D-02 conv= 1.00D-05.
 RLE energy=       -0.2344842023
 E3=       -0.54515296D-02        EUMP3=      -0.33885200709D+02
 E4(DQ)=   -0.59140253D-02        UMP4(DQ)=   -0.33891114735D+02
 E4(SDQ)=  -0.79429792D-02        UMP4(SDQ)=  -0.33893143688D+02
 VARIATIONAL ENERGIES WITH THE FIRST-ORDER WAVEFUNCTION:
 DE(Corr)= -0.23432730     E(Corr)=     -33.885664481    
 NORM(A)=   0.10417592D+01
 Iteration Nr.   2
 **********************
 DD1Dir will call FoFMem   1 times, MxPair=        72
 NAB=    36 NAA=     0 NBB=     0.
 A-vector RMS=  9.8393258D-04 Max=  2.7380631D-03 conv= 1.00D-05.
 RLE energy=       -0.2422665814
 DE(Corr)= -0.24032042     E(CORR)=     -33.891657610     Delta=-5.99D-03
 NORM(A)=   0.10455609D+01
 Iteration Nr.   3
 **********************
 DD1Dir will call FoFMem   1 times, MxPair=        72
 NAB=    36 NAA=     0 NBB=     0.
 A-vector RMS=  3.8526180D-04 Max=  1.1638679D-03 conv= 1.00D-05.
 RLE energy=       -0.2428176366
 DE(Corr)= -0.24236916     E(CORR)=     -33.893706343     Delta=-2.05D-03
 NORM(A)=   0.10461243D+01
 Iteration Nr.   4
 **********************
 DD1Dir will call FoFMem   1 times, MxPair=        72
 NAB=    36 NAA=     0 NBB=     0.
 A-vector RMS=  9.2967498D-05 Max=  2.5077287D-04 conv= 1.00D-05.
 RLE energy=       -0.2428646931
 DE(Corr)= -0.24282860     E(CORR)=     -33.894165789     Delta=-4.59D-04
 NORM(A)=   0.10461993D+01
 Iteration Nr.   5
 **********************
 DD1Dir will call FoFMem   1 times, MxPair=        72
 NAB=    36 NAA=     0 NBB=     0.
 A-vector RMS=  4.1880422D-05 Max=  1.5327084D-04 conv= 1.00D-05.
 RLE energy=       -0.2428629016
 DE(Corr)= -0.24286087     E(CORR)=     -33.894198056     Delta=-3.23D-05
 NORM(A)=   0.10462101D+01
 Iteration Nr.   6
 **********************
 DD1Dir will call FoFMem   1 times, MxPair=        72
 NAB=    36 NAA=     0 NBB=     0.
 A-vector RMS=  1.1402958D-05 Max=  4.0636505D-05 conv= 1.00D-05.
 RLE energy=       -0.2428620460
 DE(Corr)= -0.24286305     E(CORR)=     -33.894200237     Delta=-2.18D-06
 NORM(A)=   0.10462137D+01
 Iteration Nr.   7
 **********************
 DD1Dir will call FoFMem   1 times, MxPair=        72
 NAB=    36 NAA=     0 NBB=     0.
 A-vector RMS=  3.3419157D-06 Max=  1.1984411D-05 conv= 1.00D-05.
 RLE energy=       -0.2428629667
 DE(Corr)= -0.24286242     E(CORR)=     -33.894199609     Delta= 6.28D-07
 NORM(A)=   0.10462151D+01
 Iteration Nr.   8
 **********************
 DD1Dir will call FoFMem   1 times, MxPair=        72
 NAB=    36 NAA=     0 NBB=     0.
 A-vector RMS=  5.5459124D-07 Max=  1.7540182D-06 conv= 1.00D-05.
 RLE energy=       -0.2428624756
 DE(Corr)= -0.24286248     E(CORR)=     -33.894199665     Delta=-5.56D-08
 NORM(A)=   0.10462152D+01
 CI/CC converged in    8 iterations to DelEn=-5.56D-08 Conv= 1.00D-07 ErrA1= 5.55D-07 Conv= 1.00D-05
 Wavefunction amplitudes converged. E(Corr)=     -33.894199665    
 Largest amplitude= 5.86D-02
 IPart=  3 IA=    2   12.50% done.
 IPart=  2 IA=    3   24.17% done.
 IPart=  4 IA=    4   35.00% done.
 IPart=  4 IA=    5   45.00% done.
 IPart=  2 IA=    6   54.17% done.
 IPart=  3 IA=    7   62.50% done.
 IPart=  1 IA=    8   70.00% done.
 IPart=  3 IA=   10   82.50% done.
 IPart=  1 IA=   12   91.67% done.
 Time for triples=        0.23 seconds.
 T4(CCSD)= -0.30894137D-02
 T5(CCSD)=  0.52667888D-03
 CCSD(T)= -0.33896762400D+02
 Discarding MO integrals.
 Leave Link  913 at Sun Dec 10 06:56:52 2023, MaxMem=   536870912 cpu:               0.8 elap:               0.2
 (Enter /usr/site/hpc/x86_64/glibc-2.17/broadwell/gaussian/g16_a.03/pgi-16.5/g16/l601.exe)
 Copying SCF densities to generalized density rwf, IOpCl= 0 IROHF=0.

 **********************************************************************

            Population analysis using the SCF density.

 **********************************************************************

 Orbital symmetries:
       Occupied  (A') (A') (A') (A') (A') (A') (A") (A")
       Virtual   (A') (A') (A') (A') (A") (A") (A') (A') (A') (A')
                 (A') (A') (A') (A') (A') (A')
 The electronic state is 1-A'.
 Alpha  occ. eigenvalues --   -1.35366  -1.34911  -0.70997  -0.70531  -0.55076
 Alpha  occ. eigenvalues --   -0.54617  -0.49931  -0.49476
 Alpha virt. eigenvalues --    0.20380   0.20846   0.30617   0.31072   0.80622
 Alpha virt. eigenvalues --    0.81070   0.83688   0.84143   0.86784   0.87297
 Alpha virt. eigenvalues --    1.17516   1.17968   1.21978   1.22435   2.57544
 Alpha virt. eigenvalues --    2.57994
          Condensed to atoms (all electrons):
               1          2          3          4          5          6
     1  O    6.213373   0.262429   0.263730   0.000000   0.000000   0.000000
     2  H    0.262429   0.392763  -0.023587   0.000000  -0.000000  -0.000000
     3  H    0.263730  -0.023587   0.388720   0.000000  -0.000000  -0.000000
     4  O    0.000000   0.000000   0.000000   6.213304   0.261852   0.263987
     5  H    0.000000  -0.000000  -0.000000   0.261852   0.394705  -0.023635
     6  H    0.000000  -0.000000  -0.000000   0.263987  -0.023635   0.387583
 Mulliken charges:
               1
     1  O   -0.739532
     2  H    0.368395
     3  H    0.371137
     4  O   -0.739143
     5  H    0.367078
     6  H    0.372065
 Sum of Mulliken charges =  -0.00000
 Mulliken charges with hydrogens summed into heavy atoms:
               1
     1  O    0.000000
     4  O   -0.000000
 Electronic spatial extent (au):  <R**2>=            594.6194
 Charge=              0.0000 electrons
 Dipole moment (field-independent basis, Debye):
    X=             -2.2840    Y=             -1.3341    Z=              0.0000  Tot=              2.6450
 Quadrupole moment (field-independent basis, Debye-Ang):
   XX=             -9.6287   YY=             13.7236   ZZ=            -14.9880
   XY=             -6.3716   XZ=              0.0000   YZ=              0.0000
 Traceless Quadrupole moment (field-independent basis, Debye-Ang):
   XX=             -5.9977   YY=             17.3547   ZZ=            -11.3570
   XY=             -6.3716   XZ=              0.0000   YZ=              0.0000
 Octapole moment (field-independent basis, Debye-Ang**2):
  XXX=             -1.7548  YYY=            -22.2867  ZZZ=              0.0000  XYY=            -16.2118
  XXY=             -6.8309  XXZ=              0.0000  XZZ=             -0.4286  YZZ=             -0.2530
  YYZ=              0.0000  XYZ=              0.0000
 Hexadecapole moment (field-independent basis, Debye-Ang**3):
 XXXX=            -12.1895 YYYY=           -137.4069 ZZZZ=            -12.2200 XXXY=             -1.6068
 XXXZ=              0.0000 YYYX=            -47.3251 YYYZ=              0.0000 ZZZX=              0.0000
 ZZZY=              0.0000 XXYY=            -92.8029 XXZZ=             -4.5556 YYZZ=           -148.3305
 XXYZ=              0.0000 YYXZ=              0.0000 ZZXY=              0.8972
 N-N= 1.893857062545D+01 E-N=-1.195337762831D+02  KE= 2.677207732192D+01
 Symmetry A'   KE= 1.788811303892D+01
 Symmetry A"   KE= 8.883964283000D+00
 Leave Link  601 at Sun Dec 10 06:56:52 2023, MaxMem=   536870912 cpu:               0.1 elap:               0.0
 (Enter /usr/site/hpc/x86_64/glibc-2.17/broadwell/gaussian/g16_a.03/pgi-16.5/g16/l9999.exe)
 1\1\GINC-N045\SP\RCCSD(T)-FC\CEP-31G\H4O2\ROOT\10-Dec-2023\0\\#p CCSD(
 T)/CEP-31G\\H2O_H2O_4266\\0,1\O,0,0.,-0.009833,0.\H,0,-0.799571,-0.580
 965,0.\H,0,0.799571,-0.580965,0.\O,0,-0.008516,6.113057,0.\H,0,-0.1033
 45,7.091072,0.\H,0,-0.902916,5.706174,0.\\Version=ES64L-G16RevA.03\Sta
 te=1-A'\HF=-33.6513372\MP2=-33.8797492\MP3=-33.8852007\MP4D=-33.890376
 5\MP4DQ=-33.8911147\MP4SDQ=-33.8931437\CCSD=-33.8941997\CCSD(T)=-33.89
 67624\RMSD=2.158e-10\PG=CS [SG(H4O2)]\\@


 WISDOM IS KNOWING WHAT TO DO,
 SKILL IS KNOWING HOW TO DO IT,
 AND VIRTUE IS NOT DOING IT.
 Job cpu time:       0 days  0 hours  0 minutes  3.2 seconds.
 Elapsed time:       0 days  0 hours  0 minutes  1.0 seconds.
 File lengths (MBytes):  RWF=     72 Int=      0 D2E=      0 Chk=      8 Scr=      8
 Normal termination of Gaussian 16 at Sun Dec 10 06:56:52 2023.
