 Entering Gaussian System, Link 0=g16
 Input=H2O_H2O_4506.com
 Output=H2O_H2O_4506.log
 Initial command:
 /usr/site/hpc/x86_64/glibc-2.17/broadwell/gaussian/g16_a.03/pgi-16.5/g16/l1.exe "/gpfs/gpfs1/scratch/c7441090/OO Coord/Gau-1819040.inp" -scrdir="/gpfs/gpfs1/scratch/c7441090/OO Coord/"
 Entering Link 1 = /usr/site/hpc/x86_64/glibc-2.17/broadwell/gaussian/g16_a.03/pgi-16.5/g16/l1.exe PID=   1819041.
  
 Copyright (c) 1988,1990,1992,1993,1995,1998,2003,2009,2016,
            Gaussian, Inc.  All Rights Reserved.
  
 This is part of the Gaussian(R) 16 program.  It is based on
 the Gaussian(R) 09 system (copyright 2009, Gaussian, Inc.),
 the Gaussian(R) 03 system (copyright 2003, Gaussian, Inc.),
 the Gaussian(R) 98 system (copyright 1998, Gaussian, Inc.),
 the Gaussian(R) 94 system (copyright 1995, Gaussian, Inc.),
 the Gaussian 92(TM) system (copyright 1992, Gaussian, Inc.),
 the Gaussian 90(TM) system (copyright 1990, Gaussian, Inc.),
 the Gaussian 88(TM) system (copyright 1988, Gaussian, Inc.),
 the Gaussian 86(TM) system (copyright 1986, Carnegie Mellon
 University), and the Gaussian 82(TM) system (copyright 1983,
 Carnegie Mellon University). Gaussian is a federally registered
 trademark of Gaussian, Inc.
  
 This software contains proprietary and confidential information,
 including trade secrets, belonging to Gaussian, Inc.
  
 This software is provided under written license and may be
 used, copied, transmitted, or stored only in accord with that
 written license.
  
 The following legend is applicable only to US Government
 contracts under FAR:
  
                    RESTRICTED RIGHTS LEGEND
  
 Use, reproduction and disclosure by the US Government is
 subject to restrictions as set forth in subparagraphs (a)
 and (c) of the Commercial Computer Software - Restricted
 Rights clause in FAR 52.227-19.
  
 Gaussian, Inc.
 340 Quinnipiac St., Bldg. 40, Wallingford CT 06492
  
  
 ---------------------------------------------------------------
 Warning -- This program may not be used in any manner that
 competes with the business of Gaussian, Inc. or will provide
 assistance to any competitor of Gaussian, Inc.  The licensee
 of this program is prohibited from giving any competitor of
 Gaussian, Inc. access to this program.  By using this program,
 the user acknowledges that Gaussian, Inc. is engaged in the
 business of creating and licensing software in the field of
 computational chemistry and represents and warrants to the
 licensee that it is not a competitor of Gaussian, Inc. and that
 it will not use this program in any manner prohibited above.
 ---------------------------------------------------------------
  

 Cite this work as:
 Gaussian 16, Revision A.03,
 M. J. Frisch, G. W. Trucks, H. B. Schlegel, G. E. Scuseria, 
 M. A. Robb, J. R. Cheeseman, G. Scalmani, V. Barone, 
 G. A. Petersson, H. Nakatsuji, X. Li, M. Caricato, A. V. Marenich, 
 J. Bloino, B. G. Janesko, R. Gomperts, B. Mennucci, H. P. Hratchian, 
 J. V. Ortiz, A. F. Izmaylov, J. L. Sonnenberg, D. Williams-Young, 
 F. Ding, F. Lipparini, F. Egidi, J. Goings, B. Peng, A. Petrone, 
 T. Henderson, D. Ranasinghe, V. G. Zakrzewski, J. Gao, N. Rega, 
 G. Zheng, W. Liang, M. Hada, M. Ehara, K. Toyota, R. Fukuda, 
 J. Hasegawa, M. Ishida, T. Nakajima, Y. Honda, O. Kitao, H. Nakai, 
 T. Vreven, K. Throssell, J. A. Montgomery, Jr., J. E. Peralta, 
 F. Ogliaro, M. J. Bearpark, J. J. Heyd, E. N. Brothers, K. N. Kudin, 
 V. N. Staroverov, T. A. Keith, R. Kobayashi, J. Normand, 
 K. Raghavachari, A. P. Rendell, J. C. Burant, S. S. Iyengar, 
 J. Tomasi, M. Cossi, J. M. Millam, M. Klene, C. Adamo, R. Cammi, 
 J. W. Ochterski, R. L. Martin, K. Morokuma, O. Farkas, 
 J. B. Foresman, and D. J. Fox, Gaussian, Inc., Wallingford CT, 2016.
 
 ******************************************
 Gaussian 16:  ES64L-G16RevA.03 25-Dec-2016
                10-Dec-2023 
 ******************************************
 %NProcShared=4
 Will use up to    4 processors via shared memory.
 %Mem=4GB
 %Chk=H2O_H2O_4506.chk
 ------------------
 #p CCSD(T)/CEP-31G
 ------------------
 1/38=1,172=1/1;
 2/12=2,17=6,18=5,40=1/2;
 3/5=9,6=1,11=9,25=1,30=1/1,2,3;
 4//1;
 5/5=2,38=5/2;
 8/6=4,9=120000,10=1/1,4;
 9/5=7,14=2/13;
 6/7=2,8=2,9=2,10=2/1;
 99/5=1,9=1/99;
 Leave Link    1 at Sun Dec 10 07:02:03 2023, MaxMem=   536870912 cpu:               6.4 elap:               2.1
 (Enter /usr/site/hpc/x86_64/glibc-2.17/broadwell/gaussian/g16_a.03/pgi-16.5/g16/l101.exe)
 ------------
 H2O_H2O_4506
 ------------
 Symbolic Z-matrix:
 Charge =  0 Multiplicity = 1
 O                     0.       -0.00983   0. 
 H                    -0.79957  -0.58097   0. 
 H                     0.79957  -0.58097   0. 
 O                    -0.00376   6.38314   0. 
 H                     0.51638   7.21678   0. 
 H                    -0.96103   6.60482   0. 
 
 ITRead=  0  0  0  0  0  0
 MicOpt= -1 -1 -1 -1 -1 -1
 NAtoms=      6 NQM=        6 NQMF=       0 NMMI=      0 NMMIF=      0
                NMic=       0 NMicF=      0.
                    Isotopes and Nuclear Properties:
 (Nuclear quadrupole moments (NQMom) in fm**2, nuclear magnetic moments (NMagM)
  in nuclear magnetons)

  Atom         1           2           3           4           5           6
 IAtWgt=          16           1           1          16           1           1
 AtmWgt=  15.9949146   1.0078250   1.0078250  15.9949146   1.0078250   1.0078250
 NucSpn=           0           1           1           0           1           1
 AtZEff=  -0.0000000  -0.0000000  -0.0000000  -0.0000000  -0.0000000  -0.0000000
 NQMom=    0.0000000   0.0000000   0.0000000   0.0000000   0.0000000   0.0000000
 NMagM=    0.0000000   2.7928460   2.7928460   0.0000000   2.7928460   2.7928460
 AtZNuc=   8.0000000   1.0000000   1.0000000   8.0000000   1.0000000   1.0000000
 Leave Link  101 at Sun Dec 10 07:02:03 2023, MaxMem=   536870912 cpu:               0.3 elap:               0.1
 (Enter /usr/site/hpc/x86_64/glibc-2.17/broadwell/gaussian/g16_a.03/pgi-16.5/g16/l202.exe)
                          Input orientation:                          
 ---------------------------------------------------------------------
 Center     Atomic      Atomic             Coordinates (Angstroms)
 Number     Number       Type             X           Y           Z
 ---------------------------------------------------------------------
      1          8           0        0.000000   -0.009833    0.000000
      2          1           0       -0.799571   -0.580965    0.000000
      3          1           0        0.799571   -0.580965    0.000000
      4          8           0       -0.003763    6.383144    0.000000
      5          1           0        0.516382    7.216784    0.000000
      6          1           0       -0.961033    6.604818    0.000000
 ---------------------------------------------------------------------
                    Distance matrix (angstroms):
                    1          2          3          4          5
     1  O    0.000000
     2  H    0.982601   0.000000
     3  H    0.982601   1.599142   0.000000
     4  O    6.392978   7.009431   7.010290   0.000000
     5  H    7.245043   7.908010   7.802890   0.982602   0.000000
     6  H    6.684100   7.187597   7.398324   0.982601   1.599143
                    6
     6  H    0.000000
 Stoichiometry    H4O2
 Framework group  CS[SG(H4O2)]
 Deg. of freedom     9
 Full point group                 CS      NOp   2
 Largest Abelian subgroup         CS      NOp   2
 Largest concise Abelian subgroup C1      NOp   1
                         Standard orientation:                         
 ---------------------------------------------------------------------
 Center     Atomic      Atomic             Coordinates (Angstroms)
 Number     Number       Type             X           Y           Z
 ---------------------------------------------------------------------
      1          8           0        0.021859   -3.192154    0.000000
      2          1           0       -0.778048   -3.762816    0.000000
      3          1           0        0.821093   -3.763757    0.000000
      4          8           0        0.021859    3.200824    0.000000
      5          1           0        0.542494    4.034157    0.000000
      6          1           0       -0.935281    3.423061    0.000000
 ---------------------------------------------------------------------
 Rotational constants (GHZ):         204.1076901           1.3173994           1.3089509
 Leave Link  202 at Sun Dec 10 07:02:03 2023, MaxMem=   536870912 cpu:               0.1 elap:               0.0
 (Enter /usr/site/hpc/x86_64/glibc-2.17/broadwell/gaussian/g16_a.03/pgi-16.5/g16/l301.exe)
 Standard basis: CEP-31G (6D, 10F)
 Ernie: Thresh=  0.10000D-02 Tol=  0.10000D-05 Strict=F.
 There are    20 symmetry adapted cartesian basis functions of A'  symmetry.
 There are     4 symmetry adapted cartesian basis functions of A"  symmetry.
 There are    20 symmetry adapted basis functions of A'  symmetry.
 There are     4 symmetry adapted basis functions of A"  symmetry.
    24 basis functions,    48 primitive gaussians,    24 cartesian basis functions
     8 alpha electrons        8 beta electrons
       nuclear repulsion energy        18.6658752097 Hartrees.
 IExCor=    0 DFT=F Ex=HF Corr=None ExCW=0 ScaHFX=  1.000000
 ScaDFX=  1.000000  1.000000  1.000000  1.000000 ScalE2=  1.000000  1.000000
 IRadAn=      5 IRanWt=     -1 IRanGd=            0 ICorTp=0 IEmpDi=  4
 NAtoms=    6 NActive=    6 NUniq=    6 SFac= 1.00D+00 NAtFMM=   60 NAOKFM=F Big=F
 Integral buffers will be    131072 words long.
 Raffenetti 1 integral format.
 Two-electron integral symmetry is turned on.
 Leave Link  301 at Sun Dec 10 07:02:03 2023, MaxMem=   536870912 cpu:               0.2 elap:               0.1
 (Enter /usr/site/hpc/x86_64/glibc-2.17/broadwell/gaussian/g16_a.03/pgi-16.5/g16/l302.exe)
 NPDir=0 NMtPBC=     1 NCelOv=     1 NCel=       1 NClECP=     1 NCelD=      1
         NCelK=      1 NCelE2=     1 NClLst=     1 CellRange=     0.0.
 One-electron integrals computed using PRISM.
 One-electron integral symmetry used in STVInt
   2 Symmetry operations used in ECPInt.
 ECPInt:  NShTT=      78 NPrTT=     318 LenC2=      72 LenP2D=     237.
 LDataN:  DoStor=T MaxTD1= 2 Len=   12
 NBasis=    24 RedAO= T EigKep=  3.86D-02  NBF=    20     4
 NBsUse=    24 1.00D-06 EigRej= -1.00D+00 NBFU=    20     4
 Leave Link  302 at Sun Dec 10 07:02:03 2023, MaxMem=   536870912 cpu:               0.3 elap:               0.1
 (Enter /usr/site/hpc/x86_64/glibc-2.17/broadwell/gaussian/g16_a.03/pgi-16.5/g16/l303.exe)
 DipDrv:  MaxL=1.
 Leave Link  303 at Sun Dec 10 07:02:03 2023, MaxMem=   536870912 cpu:               0.1 elap:               0.0
 (Enter /usr/site/hpc/x86_64/glibc-2.17/broadwell/gaussian/g16_a.03/pgi-16.5/g16/l401.exe)
 ExpMin= 1.78D-01 ExpMax= 1.92D+01 ExpMxC= 1.92D+01 IAcc=3 IRadAn=         5 AccDes= 0.00D+00
 Harris functional with IExCor=  205 and IRadAn=       5 diagonalized for initial guess.
 HarFok:  IExCor=  205 AccDes= 0.00D+00 IRadAn=         5 IDoV= 1 UseB2=F ITyADJ=14
 ICtDFT=  3500011 ScaDFX=  1.000000  1.000000  1.000000  1.000000
 FoFCou: FMM=F IPFlag=           0 FMFlag=      100000 FMFlg1=           0
         NFxFlg=           0 DoJE=T BraDBF=F KetDBF=T FulRan=T
         wScrn=  0.000000 ICntrl=       500 IOpCl=  0 I1Cent=   200000004 NGrid=           0
         NMat0=    1 NMatS0=      1 NMatT0=    0 NMatD0=    1 NMtDS0=    0 NMtDT0=    0
 Petite list used in FoFCou.
 Harris En= -34.4763723756398    
 JPrj=0 DoOrth=F DoCkMO=F.
 Initial guess orbital symmetries:
       Occupied  (A') (A') (A') (A') (A') (A') (A") (A")
       Virtual   (A') (A') (A') (A') (A") (A") (A') (A') (A') (A')
                 (A') (A') (A') (A') (A') (A')
 The electronic state of the initial guess is 1-A'.
 Leave Link  401 at Sun Dec 10 07:02:03 2023, MaxMem=   536870912 cpu:               0.4 elap:               0.1
 (Enter /usr/site/hpc/x86_64/glibc-2.17/broadwell/gaussian/g16_a.03/pgi-16.5/g16/l502.exe)
 Keep R1 ints in memory in symmetry-blocked form, NReq=851638.
 FoFCou: FMM=F IPFlag=           0 FMFlag=           0 FMFlg1=           0
         NFxFlg=           0 DoJE=F BraDBF=F KetDBF=F FulRan=T
         wScrn=  0.000000 ICntrl=       600 IOpCl=  0 I1Cent=           0 NGrid=           0
         NMat0=    1 NMatS0=    300 NMatT0=    0 NMatD0=    1 NMtDS0=    0 NMtDT0=    0
 Petite list used in FoFCou.
 Closed shell SCF:
 Using DIIS extrapolation, IDIIS=  1040.
 NGot=   536870912 LenX=   536840576 LenY=   536839559
 Requested convergence on RMS density matrix=1.00D-08 within 128 cycles.
 Requested convergence on MAX density matrix=1.00D-06.
 Requested convergence on             energy=1.00D-06.
 No special actions if energy rises.

 Cycle   1  Pass 1  IDiag  1:
 E= -33.5558431411475    
 DIIS: error= 6.90D-02 at cycle   1 NSaved=   1.
 NSaved= 1 IEnMin= 1 EnMin= -33.5558431411475     IErMin= 1 ErrMin= 6.90D-02
 ErrMax= 6.90D-02  0.00D+00 EMaxC= 1.00D-01 BMatC= 1.02D-01 BMatP= 1.02D-01
 IDIUse=3 WtCom= 3.10D-01 WtEn= 6.90D-01
 Coeff-Com:  0.100D+01
 Coeff-En:   0.100D+01
 Coeff:      0.100D+01
 Gap=     0.606 Goal=   None    Shift=    0.000
 GapD=    0.606 DampG=2.000 DampE=0.500 DampFc=1.0000 IDamp=-1.
 RMSDP=1.49D-02 MaxDP=1.17D-01              OVMax= 9.98D-02

 Cycle   2  Pass 1  IDiag  1:
 E= -33.6190699083078     Delta-E=       -0.063226767160 Rises=F Damp=F
 DIIS: error= 3.75D-02 at cycle   2 NSaved=   2.
 NSaved= 2 IEnMin= 2 EnMin= -33.6190699083078     IErMin= 2 ErrMin= 3.75D-02
 ErrMax= 3.75D-02  0.00D+00 EMaxC= 1.00D-01 BMatC= 3.85D-02 BMatP= 1.02D-01
 IDIUse=3 WtCom= 6.25D-01 WtEn= 3.75D-01
 Coeff-Com:  0.377D+00 0.623D+00
 Coeff-En:   0.109D+00 0.891D+00
 Coeff:      0.277D+00 0.723D+00
 Gap=     0.708 Goal=   None    Shift=    0.000
 RMSDP=6.43D-03 MaxDP=5.45D-02 DE=-6.32D-02 OVMax= 3.59D-02

 Cycle   3  Pass 1  IDiag  1:
 E= -33.6498208677796     Delta-E=       -0.030750959472 Rises=F Damp=F
 DIIS: error= 7.24D-03 at cycle   3 NSaved=   3.
 NSaved= 3 IEnMin= 3 EnMin= -33.6498208677796     IErMin= 3 ErrMin= 7.24D-03
 ErrMax= 7.24D-03  0.00D+00 EMaxC= 1.00D-01 BMatC= 9.19D-04 BMatP= 3.85D-02
 IDIUse=3 WtCom= 9.28D-01 WtEn= 7.24D-02
 Coeff-Com: -0.114D+00-0.155D-01 0.113D+01
 Coeff-En:   0.000D+00 0.000D+00 0.100D+01
 Coeff:     -0.106D+00-0.144D-01 0.112D+01
 Gap=     0.700 Goal=   None    Shift=    0.000
 RMSDP=1.10D-03 MaxDP=9.36D-03 DE=-3.08D-02 OVMax= 8.18D-03

 Cycle   4  Pass 1  IDiag  1:
 E= -33.6507399226166     Delta-E=       -0.000919054837 Rises=F Damp=F
 DIIS: error= 7.66D-04 at cycle   4 NSaved=   4.
 NSaved= 4 IEnMin= 4 EnMin= -33.6507399226166     IErMin= 4 ErrMin= 7.66D-04
 ErrMax= 7.66D-04  0.00D+00 EMaxC= 1.00D-01 BMatC= 6.07D-06 BMatP= 9.19D-04
 IDIUse=3 WtCom= 9.92D-01 WtEn= 7.66D-03
 Coeff-Com:  0.437D-01-0.180D-01-0.522D+00 0.150D+01
 Coeff-En:   0.000D+00 0.000D+00 0.000D+00 0.100D+01
 Coeff:      0.433D-01-0.178D-01-0.518D+00 0.149D+01
 Gap=     0.702 Goal=   None    Shift=    0.000
 RMSDP=2.37D-04 MaxDP=2.04D-03 DE=-9.19D-04 OVMax= 9.66D-04

 Cycle   5  Pass 1  IDiag  1:
 E= -33.6507533057914     Delta-E=       -0.000013383175 Rises=F Damp=F
 DIIS: error= 5.16D-05 at cycle   5 NSaved=   5.
 NSaved= 5 IEnMin= 5 EnMin= -33.6507533057914     IErMin= 5 ErrMin= 5.16D-05
 ErrMax= 5.16D-05  0.00D+00 EMaxC= 1.00D-01 BMatC= 4.10D-08 BMatP= 6.07D-06
 IDIUse=1 WtCom= 1.00D+00 WtEn= 0.00D+00
 Coeff-Com: -0.715D-02 0.328D-02 0.862D-01-0.297D+00 0.121D+01
 Coeff:     -0.715D-02 0.328D-02 0.862D-01-0.297D+00 0.121D+01
 Gap=     0.702 Goal=   None    Shift=    0.000
 RMSDP=1.63D-05 MaxDP=1.54D-04 DE=-1.34D-05 OVMax= 1.05D-04

 Cycle   6  Pass 1  IDiag  1:
 E= -33.6507534080183     Delta-E=       -0.000000102227 Rises=F Damp=F
 DIIS: error= 1.11D-05 at cycle   6 NSaved=   6.
 NSaved= 6 IEnMin= 6 EnMin= -33.6507534080183     IErMin= 6 ErrMin= 1.11D-05
 ErrMax= 1.11D-05  0.00D+00 EMaxC= 1.00D-01 BMatC= 2.27D-09 BMatP= 4.10D-08
 IDIUse=1 WtCom= 1.00D+00 WtEn= 0.00D+00
 Coeff-Com:  0.132D-02-0.477D-03-0.153D-01 0.596D-01-0.418D+00 0.137D+01
 Coeff:      0.132D-02-0.477D-03-0.153D-01 0.596D-01-0.418D+00 0.137D+01
 Gap=     0.702 Goal=   None    Shift=    0.000
 RMSDP=4.04D-06 MaxDP=4.05D-05 DE=-1.02D-07 OVMax= 3.50D-05

 Cycle   7  Pass 1  IDiag  1:
 E= -33.6507534143272     Delta-E=       -0.000000006309 Rises=F Damp=F
 DIIS: error= 2.26D-06 at cycle   7 NSaved=   7.
 NSaved= 7 IEnMin= 7 EnMin= -33.6507534143272     IErMin= 7 ErrMin= 2.26D-06
 ErrMax= 2.26D-06  0.00D+00 EMaxC= 1.00D-01 BMatC= 9.92D-11 BMatP= 2.27D-09
 IDIUse=1 WtCom= 1.00D+00 WtEn= 0.00D+00
 Coeff-Com:  0.511D-04-0.831D-04-0.824D-03 0.200D-03 0.654D-01-0.422D+00
 Coeff-Com:  0.136D+01
 Coeff:      0.511D-04-0.831D-04-0.824D-03 0.200D-03 0.654D-01-0.422D+00
 Coeff:      0.136D+01
 Gap=     0.702 Goal=   None    Shift=    0.000
 RMSDP=1.09D-06 MaxDP=7.43D-06 DE=-6.31D-09 OVMax= 8.58D-06

 Cycle   8  Pass 1  IDiag  1:
 E= -33.6507534146096     Delta-E=       -0.000000000282 Rises=F Damp=F
 DIIS: error= 4.83D-07 at cycle   8 NSaved=   8.
 NSaved= 8 IEnMin= 8 EnMin= -33.6507534146096     IErMin= 8 ErrMin= 4.83D-07
 ErrMax= 4.83D-07  0.00D+00 EMaxC= 1.00D-01 BMatC= 4.52D-12 BMatP= 9.92D-11
 IDIUse=1 WtCom= 1.00D+00 WtEn= 0.00D+00
 Coeff-Com:  0.204D-05-0.101D-04-0.447D-04-0.247D-03 0.103D-01-0.552D-01
 Coeff-Com:  0.910D-01 0.954D+00
 Coeff:      0.204D-05-0.101D-04-0.447D-04-0.247D-03 0.103D-01-0.552D-01
 Coeff:      0.910D-01 0.954D+00
 Gap=     0.702 Goal=   None    Shift=    0.000
 RMSDP=1.78D-07 MaxDP=9.00D-07 DE=-2.82D-10 OVMax= 1.33D-06

 Cycle   9  Pass 1  IDiag  1:
 E= -33.6507534146175     Delta-E=       -0.000000000008 Rises=F Damp=F
 DIIS: error= 1.80D-07 at cycle   9 NSaved=   9.
 NSaved= 9 IEnMin= 9 EnMin= -33.6507534146175     IErMin= 9 ErrMin= 1.80D-07
 ErrMax= 1.80D-07  0.00D+00 EMaxC= 1.00D-01 BMatC= 7.31D-13 BMatP= 4.52D-12
 IDIUse=1 WtCom= 1.00D+00 WtEn= 0.00D+00
 Coeff-Com:  0.346D-05 0.779D-05-0.154D-05 0.418D-03-0.126D-01 0.740D-01
 Coeff-Com: -0.242D+00 0.166D+00 0.101D+01
 Coeff:      0.346D-05 0.779D-05-0.154D-05 0.418D-03-0.126D-01 0.740D-01
 Coeff:     -0.242D+00 0.166D+00 0.101D+01
 Gap=     0.702 Goal=   None    Shift=    0.000
 RMSDP=9.30D-08 MaxDP=4.14D-07 DE=-7.83D-12 OVMax= 6.51D-07

 Cycle  10  Pass 1  IDiag  1:
 E= -33.6507534146188     Delta-E=       -0.000000000001 Rises=F Damp=F
 DIIS: error= 8.61D-09 at cycle  10 NSaved=  10.
 NSaved=10 IEnMin=10 EnMin= -33.6507534146188     IErMin=10 ErrMin= 8.61D-09
 ErrMax= 8.61D-09  0.00D+00 EMaxC= 1.00D-01 BMatC= 2.76D-15 BMatP= 7.31D-13
 IDIUse=1 WtCom= 1.00D+00 WtEn= 0.00D+00
 Coeff-Com:  0.737D-07-0.206D-05-0.103D-04-0.612D-04 0.280D-02-0.172D-01
 Coeff-Com:  0.570D-01-0.567D-01-0.257D+00 0.127D+01
 Coeff:      0.737D-07-0.206D-05-0.103D-04-0.612D-04 0.280D-02-0.172D-01
 Coeff:      0.570D-01-0.567D-01-0.257D+00 0.127D+01
 Gap=     0.702 Goal=   None    Shift=    0.000
 RMSDP=1.17D-08 MaxDP=5.63D-08 DE=-1.34D-12 OVMax= 6.69D-08

 Cycle  11  Pass 1  IDiag  1:
 E= -33.6507534146188     Delta-E=        0.000000000000 Rises=F Damp=F
 DIIS: error= 3.21D-10 at cycle  11 NSaved=  11.
 NSaved=11 IEnMin=10 EnMin= -33.6507534146188     IErMin=11 ErrMin= 3.21D-10
 ErrMax= 3.21D-10  0.00D+00 EMaxC= 1.00D-01 BMatC= 3.27D-18 BMatP= 2.76D-15
 IDIUse=1 WtCom= 1.00D+00 WtEn= 0.00D+00
 Coeff-Com: -0.789D-07 0.378D-06 0.257D-05 0.849D-05-0.494D-03 0.306D-02
 Coeff-Com: -0.103D-01 0.106D-01 0.468D-01-0.249D+00 0.120D+01
 Coeff:     -0.789D-07 0.378D-06 0.257D-05 0.849D-05-0.494D-03 0.306D-02
 Coeff:     -0.103D-01 0.106D-01 0.468D-01-0.249D+00 0.120D+01
 Gap=     0.702 Goal=   None    Shift=    0.000
 RMSDP=1.92D-10 MaxDP=9.94D-10 DE= 0.00D+00 OVMax= 6.37D-10

 SCF Done:  E(RHF) =  -33.6507534146     A.U. after   11 cycles
            NFock= 11  Conv=0.19D-09     -V/T= 2.2570
 KE= 2.677136281468D+01 PE=-1.190051582994D+02 EE= 3.991716686039D+01
 Leave Link  502 at Sun Dec 10 07:02:04 2023, MaxMem=   536870912 cpu:               0.3 elap:               0.1
 (Enter /usr/site/hpc/x86_64/glibc-2.17/broadwell/gaussian/g16_a.03/pgi-16.5/g16/l801.exe)
 Windowed orbitals will be sorted by symmetry type.
 Range of M.O.s used for correlation:     1    24
 NBasis=    24 NAE=     8 NBE=     8 NFC=     0 NFV=     0
 NROrb=     24 NOA=     8 NOB=     8 NVA=    16 NVB=    16
 Leave Link  801 at Sun Dec 10 07:02:04 2023, MaxMem=   536870912 cpu:               0.1 elap:               0.0
 (Enter /usr/site/hpc/x86_64/glibc-2.17/broadwell/gaussian/g16_a.03/pgi-16.5/g16/l804.exe)
 Closed-shell transformation, MDV=   536870912 ITran=4 ISComp=2.
 Unit  1 TFree=       1025975 TCopy=        210600.
 Semi-Direct transformation.
 ModeAB=           4 MOrb=             8 LenV=     536742932
 LASXX=        22470 LTotXX=       22470 LenRXX=       48678
 LTotAB=       26208 MaxLAS=       54528 LenRXY=           0
 NonZer=       71148 LenScr=      524288 LnRSAI=       54528
 LnScr1=      524288 LExtra=           0 Total=      1151782
 MaxDsk=          -1 SrtSym=           T ITran=            4
 DoSDTr:  NPSUse=  4
 JobTyp=0 Pass  1:  I=   1 to   8.
 (rs|ai) integrals will be sorted in core.
 Complete sort for first half transformation.
 First half transformation complete.
 Complete sort for second half transformation.
 Second half transformation complete.
 Spin components of T(2) and E(2):
     alpha-alpha T2 =       0.9069971887D-02 E2=     -0.2589009497D-01
     alpha-beta  T2 =       0.5998489902D-01 E2=     -0.1766542322D+00
     beta-beta   T2 =       0.9069971887D-02 E2=     -0.2589009497D-01
 ANorm=    0.1038327907D+01
 E2 =    -0.2284344222D+00 EUMP2 =    -0.33879187836780D+02
 Leave Link  804 at Sun Dec 10 07:02:04 2023, MaxMem=   536870912 cpu:               0.2 elap:               0.1
 (Enter /usr/site/hpc/x86_64/glibc-2.17/broadwell/gaussian/g16_a.03/pgi-16.5/g16/l913.exe)
 CIDS:  MDV=   536870912.
 IFCWin=0 IBDFC=1 NFBD=     0     0 NFCmp=     0     0 NFFFC=     0     0
 Using DD3R+UMP44R for 1st iteration.
 Using DD4RQ for 2nd and later iterations.
 Keep R2 and R3 ints in memory in symmetry-blocked form, NReq=864246.
 FoFCou: FMM=F IPFlag=           0 FMFlag=           0 FMFlg1=           0
         NFxFlg=           0 DoJE=F BraDBF=F KetDBF=F FulRan=T
         wScrn=  0.000000 ICntrl=       600 IOpCl=  0 I1Cent=           0 NGrid=           0
         NMat0=    1 NMatS0=    300 NMatT0=    0 NMatD0=    1 NMtDS0=    0 NMtDT0=    0
 Petite list used in FoFCou.
 CIDS: In Core Option IDoMem=           1.
 CCSD(T)
 =======
 Iterations=  50 Convergence= 0.100D-06
 Produce multiple copies of IABC intergrals
 Iteration Nr.   1
 **********************
 DD1Dir will call FoFMem   1 times, MxPair=        72
 NAB=    36 NAA=     0 NBB=     0.
 MP4(R+Q)= -0.73566170D-03
 Maximum subspace dimension=  5
 A-vector RMS=  5.7656457D-03 Max=  1.3222854D-02 conv= 1.00D-05.
 RLE energy=       -0.2345150765
 E3=       -0.54621113D-02        EUMP3=      -0.33884649948D+02
 E4(DQ)=   -0.59158345D-02        UMP4(DQ)=   -0.33890565783D+02
 E4(SDQ)=  -0.79462709D-02        UMP4(SDQ)=  -0.33892596219D+02
 VARIATIONAL ENERGIES WITH THE FIRST-ORDER WAVEFUNCTION:
 DE(Corr)= -0.23435775     E(Corr)=     -33.885111167    
 NORM(A)=   0.10417772D+01
 Iteration Nr.   2
 **********************
 DD1Dir will call FoFMem   1 times, MxPair=        72
 NAB=    36 NAA=     0 NBB=     0.
 A-vector RMS=  9.8497050D-04 Max=  2.7386959D-03 conv= 1.00D-05.
 RLE energy=       -0.2423037200
 DE(Corr)= -0.24035601     E(CORR)=     -33.891109423     Delta=-6.00D-03
 NORM(A)=   0.10455842D+01
 Iteration Nr.   3
 **********************
 DD1Dir will call FoFMem   1 times, MxPair=        72
 NAB=    36 NAA=     0 NBB=     0.
 A-vector RMS=  3.8687678D-04 Max=  1.1710263D-03 conv= 1.00D-05.
 RLE energy=       -0.2428551788
 DE(Corr)= -0.24240613     E(CORR)=     -33.893159543     Delta=-2.05D-03
 NORM(A)=   0.10461491D+01
 Iteration Nr.   4
 **********************
 DD1Dir will call FoFMem   1 times, MxPair=        72
 NAB=    36 NAA=     0 NBB=     0.
 A-vector RMS=  9.3505402D-05 Max=  2.5249102D-04 conv= 1.00D-05.
 RLE energy=       -0.2429023889
 DE(Corr)= -0.24286619     E(CORR)=     -33.893619603     Delta=-4.60D-04
 NORM(A)=   0.10462246D+01
 Iteration Nr.   5
 **********************
 DD1Dir will call FoFMem   1 times, MxPair=        72
 NAB=    36 NAA=     0 NBB=     0.
 A-vector RMS=  4.2191846D-05 Max=  1.5443215D-04 conv= 1.00D-05.
 RLE energy=       -0.2429005887
 DE(Corr)= -0.24289854     E(CORR)=     -33.893651954     Delta=-3.24D-05
 NORM(A)=   0.10462356D+01
 Iteration Nr.   6
 **********************
 DD1Dir will call FoFMem   1 times, MxPair=        72
 NAB=    36 NAA=     0 NBB=     0.
 A-vector RMS=  1.1474427D-05 Max=  4.0875834D-05 conv= 1.00D-05.
 RLE energy=       -0.2428997203
 DE(Corr)= -0.24290074     E(CORR)=     -33.893654150     Delta=-2.20D-06
 NORM(A)=   0.10462392D+01
 Iteration Nr.   7
 **********************
 DD1Dir will call FoFMem   1 times, MxPair=        72
 NAB=    36 NAA=     0 NBB=     0.
 A-vector RMS=  3.3552128D-06 Max=  1.2029316D-05 conv= 1.00D-05.
 RLE energy=       -0.2429006452
 DE(Corr)= -0.24290010     E(CORR)=     -33.893653514     Delta= 6.36D-07
 NORM(A)=   0.10462406D+01
 Iteration Nr.   8
 **********************
 DD1Dir will call FoFMem   1 times, MxPair=        72
 NAB=    36 NAA=     0 NBB=     0.
 A-vector RMS=  5.5540072D-07 Max=  1.7530217D-06 conv= 1.00D-05.
 RLE energy=       -0.2429001515
 DE(Corr)= -0.24290016     E(CORR)=     -33.893653570     Delta=-5.55D-08
 NORM(A)=   0.10462407D+01
 CI/CC converged in    8 iterations to DelEn=-5.55D-08 Conv= 1.00D-07 ErrA1= 5.55D-07 Conv= 1.00D-05
 Wavefunction amplitudes converged. E(Corr)=     -33.893653570    
 Largest amplitude= 5.86D-02
 IPart=  2 IA=    2   12.50% done.
 IPart=  3 IA=    3   24.17% done.
 IPart=  4 IA=    4   35.00% done.
 IPart=  4 IA=    5   45.00% done.
 IPart=  3 IA=    6   54.17% done.
 IPart=  2 IA=    7   62.50% done.
 IPart=  1 IA=    8   70.00% done.
 IPart=  3 IA=   10   82.50% done.
 IPart=  2 IA=   12   91.67% done.
 Time for triples=        0.24 seconds.
 T4(CCSD)= -0.30913960D-02
 T5(CCSD)=  0.52697491D-03
 CCSD(T)= -0.33896217991D+02
 Discarding MO integrals.
 Leave Link  913 at Sun Dec 10 07:02:04 2023, MaxMem=   536870912 cpu:               0.8 elap:               0.2
 (Enter /usr/site/hpc/x86_64/glibc-2.17/broadwell/gaussian/g16_a.03/pgi-16.5/g16/l601.exe)
 Copying SCF densities to generalized density rwf, IOpCl= 0 IROHF=0.

 **********************************************************************

            Population analysis using the SCF density.

 **********************************************************************

 Orbital symmetries:
       Occupied  (A') (A') (A') (A') (A') (A') (A") (A")
       Virtual   (A') (A') (A') (A') (A") (A") (A') (A') (A') (A')
                 (A') (A') (A') (A') (A') (A')
 The electronic state is 1-A'.
 Alpha  occ. eigenvalues --   -1.35063  -1.35000  -0.70691  -0.70626  -0.54741
 Alpha  occ. eigenvalues --   -0.54677  -0.49619  -0.49556
 Alpha virt. eigenvalues --    0.20651   0.20715   0.30883   0.30945   0.80935
 Alpha virt. eigenvalues --    0.80997   0.84059   0.84122   0.87133   0.87208
 Alpha virt. eigenvalues --    1.17794   1.17857   1.22260   1.22324   2.57836
 Alpha virt. eigenvalues --    2.57899
          Condensed to atoms (all electrons):
               1          2          3          4          5          6
     1  O    6.212074   0.262421   0.262938   0.000000   0.000000   0.000000
     2  H    0.262421   0.393065  -0.023649   0.000000  -0.000000  -0.000000
     3  H    0.262938  -0.023649   0.391441   0.000000  -0.000000  -0.000000
     4  O    0.000000   0.000000   0.000000   6.212029   0.262223   0.263089
     5  H    0.000000  -0.000000  -0.000000   0.262223   0.393569  -0.023662
     6  H    0.000000  -0.000000  -0.000000   0.263089  -0.023662   0.391101
 Mulliken charges:
               1
     1  O   -0.737433
     2  H    0.368163
     3  H    0.369270
     4  O   -0.737341
     5  H    0.367870
     6  H    0.369472
 Sum of Mulliken charges =  -0.00000
 Mulliken charges with hydrogens summed into heavy atoms:
               1
     1  O    0.000000
     4  O   -0.000000
 Electronic spatial extent (au):  <R**2>=            649.5346
 Charge=             -0.0000 electrons
 Dipole moment (field-independent basis, Debye):
    X=             -1.0091    Y=             -0.2027    Z=              0.0000  Tot=              1.0292
 Quadrupole moment (field-independent basis, Debye-Ang):
   XX=             -8.3475   YY=             20.9006   ZZ=            -14.9870
   XY=             -2.6069   XZ=              0.0000   YZ=              0.0000
 Traceless Quadrupole moment (field-independent basis, Debye-Ang):
   XX=             -7.5362   YY=             21.7119   ZZ=            -14.1757
   XY=             -2.6069   XZ=              0.0000   YZ=              0.0000
 Octapole moment (field-independent basis, Debye-Ang**2):
  XXX=             -1.4529  YYY=             -2.9082  ZZZ=              0.0000  XYY=             -4.9962
  XXY=             -1.5211  XXZ=              0.0000  XZZ=             -0.1893  YZZ=             -0.0384
  YYZ=              0.0000  XYZ=              0.0000
 Hexadecapole moment (field-independent basis, Debye-Ang**3):
 XXXX=            -11.8279 YYYY=            -59.5542 ZZZZ=            -12.2180 XXXY=             -3.2688
 XXXZ=              0.0000 YYYX=             -6.2318 YYYZ=              0.0000 ZZZX=              0.0000
 ZZZY=              0.0000 XXYY=            -79.9121 XXZZ=             -4.6060 YYZZ=           -162.0526
 XXYZ=              0.0000 YYXZ=              0.0000 ZZXY=              0.4013
 N-N= 1.866587520972D+01 E-N=-1.190051583052D+02  KE= 2.677136281468D+01
 Symmetry A'   KE= 1.788628600306D+01
 Symmetry A"   KE= 8.885076811615D+00
 Leave Link  601 at Sun Dec 10 07:02:04 2023, MaxMem=   536870912 cpu:               0.1 elap:               0.0
 (Enter /usr/site/hpc/x86_64/glibc-2.17/broadwell/gaussian/g16_a.03/pgi-16.5/g16/l9999.exe)
 1\1\GINC-N045\SP\RCCSD(T)-FC\CEP-31G\H4O2\ROOT\10-Dec-2023\0\\#p CCSD(
 T)/CEP-31G\\H2O_H2O_4506\\0,1\O,0,0.,-0.009833,0.\H,0,-0.799571,-0.580
 965,0.\H,0,0.799571,-0.580965,0.\O,0,-0.003763,6.383144,0.\H,0,0.51638
 2,7.216784,0.\H,0,-0.961033,6.604818,0.\\Version=ES64L-G16RevA.03\Stat
 e=1-A'\HF=-33.6507534\MP2=-33.8791878\MP3=-33.8846499\MP4D=-33.8898301
 \MP4DQ=-33.8905658\MP4SDQ=-33.8925962\CCSD=-33.8936536\CCSD(T)=-33.896
 218\RMSD=1.922e-10\PG=CS [SG(H4O2)]\\@


 IN THE LONG RUN, DIGGING FOR TRUTH HAS ALWAYS PROVED NOT ONLY 
 MORE INTERESTING BUT MORE PROFITABLE THAN DIGGING FOR GOLD.

                             -- GEORGE R. HARRISON
 Job cpu time:       0 days  0 hours  0 minutes  9.4 seconds.
 Elapsed time:       0 days  0 hours  0 minutes  3.1 seconds.
 File lengths (MBytes):  RWF=     72 Int=      0 D2E=      0 Chk=      8 Scr=      8
 Normal termination of Gaussian 16 at Sun Dec 10 07:02:04 2023.
