 Entering Gaussian System, Link 0=g16
 Input=H2O_H2O_161.com
 Output=H2O_H2O_161.log
 Initial command:
 /usr/site/hpc/x86_64/glibc-2.17/broadwell/gaussian/g16_a.03/pgi-16.5/g16/l1.exe "/gpfs/gpfs1/scratch/c7441090/OO Coord/Gau-1173242.inp" -scrdir="/gpfs/gpfs1/scratch/c7441090/OO Coord/"
 Entering Link 1 = /usr/site/hpc/x86_64/glibc-2.17/broadwell/gaussian/g16_a.03/pgi-16.5/g16/l1.exe PID=   1173246.
  
 Copyright (c) 1988,1990,1992,1993,1995,1998,2003,2009,2016,
            Gaussian, Inc.  All Rights Reserved.
  
 This is part of the Gaussian(R) 16 program.  It is based on
 the Gaussian(R) 09 system (copyright 2009, Gaussian, Inc.),
 the Gaussian(R) 03 system (copyright 2003, Gaussian, Inc.),
 the Gaussian(R) 98 system (copyright 1998, Gaussian, Inc.),
 the Gaussian(R) 94 system (copyright 1995, Gaussian, Inc.),
 the Gaussian 92(TM) system (copyright 1992, Gaussian, Inc.),
 the Gaussian 90(TM) system (copyright 1990, Gaussian, Inc.),
 the Gaussian 88(TM) system (copyright 1988, Gaussian, Inc.),
 the Gaussian 86(TM) system (copyright 1986, Carnegie Mellon
 University), and the Gaussian 82(TM) system (copyright 1983,
 Carnegie Mellon University). Gaussian is a federally registered
 trademark of Gaussian, Inc.
  
 This software contains proprietary and confidential information,
 including trade secrets, belonging to Gaussian, Inc.
  
 This software is provided under written license and may be
 used, copied, transmitted, or stored only in accord with that
 written license.
  
 The following legend is applicable only to US Government
 contracts under FAR:
  
                    RESTRICTED RIGHTS LEGEND
  
 Use, reproduction and disclosure by the US Government is
 subject to restrictions as set forth in subparagraphs (a)
 and (c) of the Commercial Computer Software - Restricted
 Rights clause in FAR 52.227-19.
  
 Gaussian, Inc.
 340 Quinnipiac St., Bldg. 40, Wallingford CT 06492
  
  
 ---------------------------------------------------------------
 Warning -- This program may not be used in any manner that
 competes with the business of Gaussian, Inc. or will provide
 assistance to any competitor of Gaussian, Inc.  The licensee
 of this program is prohibited from giving any competitor of
 Gaussian, Inc. access to this program.  By using this program,
 the user acknowledges that Gaussian, Inc. is engaged in the
 business of creating and licensing software in the field of
 computational chemistry and represents and warrants to the
 licensee that it is not a competitor of Gaussian, Inc. and that
 it will not use this program in any manner prohibited above.
 ---------------------------------------------------------------
  

 Cite this work as:
 Gaussian 16, Revision A.03,
 M. J. Frisch, G. W. Trucks, H. B. Schlegel, G. E. Scuseria, 
 M. A. Robb, J. R. Cheeseman, G. Scalmani, V. Barone, 
 G. A. Petersson, H. Nakatsuji, X. Li, M. Caricato, A. V. Marenich, 
 J. Bloino, B. G. Janesko, R. Gomperts, B. Mennucci, H. P. Hratchian, 
 J. V. Ortiz, A. F. Izmaylov, J. L. Sonnenberg, D. Williams-Young, 
 F. Ding, F. Lipparini, F. Egidi, J. Goings, B. Peng, A. Petrone, 
 T. Henderson, D. Ranasinghe, V. G. Zakrzewski, J. Gao, N. Rega, 
 G. Zheng, W. Liang, M. Hada, M. Ehara, K. Toyota, R. Fukuda, 
 J. Hasegawa, M. Ishida, T. Nakajima, Y. Honda, O. Kitao, H. Nakai, 
 T. Vreven, K. Throssell, J. A. Montgomery, Jr., J. E. Peralta, 
 F. Ogliaro, M. J. Bearpark, J. J. Heyd, E. N. Brothers, K. N. Kudin, 
 V. N. Staroverov, T. A. Keith, R. Kobayashi, J. Normand, 
 K. Raghavachari, A. P. Rendell, J. C. Burant, S. S. Iyengar, 
 J. Tomasi, M. Cossi, J. M. Millam, M. Klene, C. Adamo, R. Cammi, 
 J. W. Ochterski, R. L. Martin, K. Morokuma, O. Farkas, 
 J. B. Foresman, and D. J. Fox, Gaussian, Inc., Wallingford CT, 2016.
 
 ******************************************
 Gaussian 16:  ES64L-G16RevA.03 25-Dec-2016
                10-Dec-2023 
 ******************************************
 %NProcShared=4
 Will use up to    4 processors via shared memory.
 %Mem=4GB
 %Chk=H2O_H2O_161.chk
 ------------------
 #p CCSD(T)/CEP-31G
 ------------------
 1/38=1,172=1/1;
 2/12=2,17=6,18=5,40=1/2;
 3/5=9,6=1,11=9,25=1,30=1/1,2,3;
 4//1;
 5/5=2,38=5/2;
 8/6=4,9=120000,10=1/1,4;
 9/5=7,14=2/13;
 6/7=2,8=2,9=2,10=2/1;
 99/5=1,9=1/99;
 Leave Link    1 at Sun Dec 10 06:27:44 2023, MaxMem=   536870912 cpu:               0.2 elap:               0.1
 (Enter /usr/site/hpc/x86_64/glibc-2.17/broadwell/gaussian/g16_a.03/pgi-16.5/g16/l101.exe)
 -----------
 H2O_H2O_161
 -----------
 Symbolic Z-matrix:
 Charge =  0 Multiplicity = 1
 O                     0.       -0.00983   0. 
 H                    -0.79957  -0.58097   0. 
 H                     0.79957  -0.58097   0. 
 O                    -0.00648   1.75448   0. 
 H                     0.21809   2.71107   0. 
 H                    -0.98421   1.65668   0. 
 
 ITRead=  0  0  0  0  0  0
 MicOpt= -1 -1 -1 -1 -1 -1
 NAtoms=      6 NQM=        6 NQMF=       0 NMMI=      0 NMMIF=      0
                NMic=       0 NMicF=      0.
                    Isotopes and Nuclear Properties:
 (Nuclear quadrupole moments (NQMom) in fm**2, nuclear magnetic moments (NMagM)
  in nuclear magnetons)

  Atom         1           2           3           4           5           6
 IAtWgt=          16           1           1          16           1           1
 AtmWgt=  15.9949146   1.0078250   1.0078250  15.9949146   1.0078250   1.0078250
 NucSpn=           0           1           1           0           1           1
 AtZEff=  -0.0000000  -0.0000000  -0.0000000  -0.0000000  -0.0000000  -0.0000000
 NQMom=    0.0000000   0.0000000   0.0000000   0.0000000   0.0000000   0.0000000
 NMagM=    0.0000000   2.7928460   2.7928460   0.0000000   2.7928460   2.7928460
 AtZNuc=   8.0000000   1.0000000   1.0000000   8.0000000   1.0000000   1.0000000
 Leave Link  101 at Sun Dec 10 06:27:44 2023, MaxMem=   536870912 cpu:               0.3 elap:               0.1
 (Enter /usr/site/hpc/x86_64/glibc-2.17/broadwell/gaussian/g16_a.03/pgi-16.5/g16/l202.exe)
                          Input orientation:                          
 ---------------------------------------------------------------------
 Center     Atomic      Atomic             Coordinates (Angstroms)
 Number     Number       Type             X           Y           Z
 ---------------------------------------------------------------------
      1          8           0        0.000000   -0.009833    0.000000
      2          1           0       -0.799571   -0.580965    0.000000
      3          1           0        0.799571   -0.580965    0.000000
      4          8           0       -0.006483    1.754475    0.000000
      5          1           0        0.218093    2.711069    0.000000
      6          1           0       -0.984207    1.656681    0.000000
 ---------------------------------------------------------------------
                    Distance matrix (angstroms):
                    1          2          3          4          5
     1  O    0.000000
     2  H    0.982601   0.000000
     3  H    0.982601   1.599142   0.000000
     4  O    1.764320   2.466428   2.470628   0.000000
     5  H    2.729629   3.445741   3.342993   0.982602   0.000000
     6  H    1.935441   2.245251   2.861630   0.982603   1.599143
                    6
     6  H    0.000000
 Stoichiometry    H4O2
 Framework group  CS[SG(H4O2)]
 Deg. of freedom     9
 Full point group                 CS      NOp   2
 Largest Abelian subgroup         CS      NOp   2
 Largest concise Abelian subgroup C1      NOp   1
                         Standard orientation:                         
 ---------------------------------------------------------------------
 Center     Atomic      Atomic             Coordinates (Angstroms)
 Number     Number       Type             X           Y           Z
 ---------------------------------------------------------------------
      1          8           0        0.037709   -0.868125    0.000000
      2          1           0       -0.763955   -1.436315    0.000000
      3          1           0        0.835176   -1.442191    0.000000
      4          8           0        0.037709    0.896195    0.000000
      5          1           0        0.265799    1.851957    0.000000
      6          1           0       -0.940368    0.801994    0.000000
 ---------------------------------------------------------------------
 Rotational constants (GHZ):         221.1752501          15.2296352          14.2485143
 Leave Link  202 at Sun Dec 10 06:27:44 2023, MaxMem=   536870912 cpu:               0.1 elap:               0.0
 (Enter /usr/site/hpc/x86_64/glibc-2.17/broadwell/gaussian/g16_a.03/pgi-16.5/g16/l301.exe)
 Standard basis: CEP-31G (6D, 10F)
 Ernie: Thresh=  0.10000D-02 Tol=  0.10000D-05 Strict=F.
 There are    20 symmetry adapted cartesian basis functions of A'  symmetry.
 There are     4 symmetry adapted cartesian basis functions of A"  symmetry.
 There are    20 symmetry adapted basis functions of A'  symmetry.
 There are     4 symmetry adapted basis functions of A"  symmetry.
    24 basis functions,    48 primitive gaussians,    24 cartesian basis functions
     8 alpha electrons        8 beta electrons
       nuclear repulsion energy        30.4931140132 Hartrees.
 IExCor=    0 DFT=F Ex=HF Corr=None ExCW=0 ScaHFX=  1.000000
 ScaDFX=  1.000000  1.000000  1.000000  1.000000 ScalE2=  1.000000  1.000000
 IRadAn=      5 IRanWt=     -1 IRanGd=            0 ICorTp=0 IEmpDi=  4
 NAtoms=    6 NActive=    6 NUniq=    6 SFac= 1.00D+00 NAtFMM=   60 NAOKFM=F Big=F
 Integral buffers will be    131072 words long.
 Raffenetti 1 integral format.
 Two-electron integral symmetry is turned on.
 Leave Link  301 at Sun Dec 10 06:27:44 2023, MaxMem=   536870912 cpu:               0.2 elap:               0.1
 (Enter /usr/site/hpc/x86_64/glibc-2.17/broadwell/gaussian/g16_a.03/pgi-16.5/g16/l302.exe)
 NPDir=0 NMtPBC=     1 NCelOv=     1 NCel=       1 NClECP=     1 NCelD=      1
         NCelK=      1 NCelE2=     1 NClLst=     1 CellRange=     0.0.
 One-electron integrals computed using PRISM.
 One-electron integral symmetry used in STVInt
   2 Symmetry operations used in ECPInt.
 ECPInt:  NShTT=      78 NPrTT=     318 LenC2=      79 LenP2D=     299.
 LDataN:  DoStor=T MaxTD1= 2 Len=   12
 NBasis=    24 RedAO= T EigKep=  2.94D-02  NBF=    20     4
 NBsUse=    24 1.00D-06 EigRej= -1.00D+00 NBFU=    20     4
 Leave Link  302 at Sun Dec 10 06:27:44 2023, MaxMem=   536870912 cpu:               0.3 elap:               0.1
 (Enter /usr/site/hpc/x86_64/glibc-2.17/broadwell/gaussian/g16_a.03/pgi-16.5/g16/l303.exe)
 DipDrv:  MaxL=1.
 Leave Link  303 at Sun Dec 10 06:27:44 2023, MaxMem=   536870912 cpu:               0.1 elap:               0.0
 (Enter /usr/site/hpc/x86_64/glibc-2.17/broadwell/gaussian/g16_a.03/pgi-16.5/g16/l401.exe)
 ExpMin= 1.78D-01 ExpMax= 1.92D+01 ExpMxC= 1.92D+01 IAcc=3 IRadAn=         5 AccDes= 0.00D+00
 Harris functional with IExCor=  205 and IRadAn=       5 diagonalized for initial guess.
 HarFok:  IExCor=  205 AccDes= 0.00D+00 IRadAn=         5 IDoV= 1 UseB2=F ITyADJ=14
 ICtDFT=  3500011 ScaDFX=  1.000000  1.000000  1.000000  1.000000
 FoFCou: FMM=F IPFlag=           0 FMFlag=      100000 FMFlg1=           0
         NFxFlg=           0 DoJE=T BraDBF=F KetDBF=T FulRan=T
         wScrn=  0.000000 ICntrl=       500 IOpCl=  0 I1Cent=   200000004 NGrid=           0
         NMat0=    1 NMatS0=      1 NMatT0=    0 NMatD0=    1 NMtDS0=    0 NMtDT0=    0
 Petite list used in FoFCou.
 Harris En= -34.3998459759860    
 JPrj=0 DoOrth=F DoCkMO=F.
 Initial guess orbital symmetries:
       Occupied  (A') (A') (A') (A') (A') (A") (A") (A')
       Virtual   (A') (A') (A') (A') (A") (A') (A") (A') (A') (A')
                 (A') (A') (A') (A') (A') (A')
 The electronic state of the initial guess is 1-A'.
 Leave Link  401 at Sun Dec 10 06:27:44 2023, MaxMem=   536870912 cpu:               0.4 elap:               0.1
 (Enter /usr/site/hpc/x86_64/glibc-2.17/broadwell/gaussian/g16_a.03/pgi-16.5/g16/l502.exe)
 Keep R1 ints in memory in symmetry-blocked form, NReq=852760.
 FoFCou: FMM=F IPFlag=           0 FMFlag=           0 FMFlg1=           0
         NFxFlg=           0 DoJE=F BraDBF=F KetDBF=F FulRan=T
         wScrn=  0.000000 ICntrl=       600 IOpCl=  0 I1Cent=           0 NGrid=           0
         NMat0=    1 NMatS0=    300 NMatT0=    0 NMatD0=    1 NMtDS0=    0 NMtDT0=    0
 Petite list used in FoFCou.
 Closed shell SCF:
 Using DIIS extrapolation, IDIIS=  1040.
 NGot=   536870912 LenX=   536840576 LenY=   536839559
 Requested convergence on RMS density matrix=1.00D-08 within 128 cycles.
 Requested convergence on MAX density matrix=1.00D-06.
 Requested convergence on             energy=1.00D-06.
 No special actions if energy rises.

 Cycle   1  Pass 1  IDiag  1:
 E= -33.4194687411282    
 DIIS: error= 6.83D-02 at cycle   1 NSaved=   1.
 NSaved= 1 IEnMin= 1 EnMin= -33.4194687411282     IErMin= 1 ErrMin= 6.83D-02
 ErrMax= 6.83D-02  0.00D+00 EMaxC= 1.00D-01 BMatC= 1.31D-01 BMatP= 1.31D-01
 IDIUse=3 WtCom= 3.17D-01 WtEn= 6.83D-01
 Coeff-Com:  0.100D+01
 Coeff-En:   0.100D+01
 Coeff:      0.100D+01
 Gap=     0.462 Goal=   None    Shift=    0.000
 GapD=    0.462 DampG=2.000 DampE=0.500 DampFc=1.0000 IDamp=-1.
 RMSDP=2.46D-02 MaxDP=1.44D-01              OVMax= 1.44D-01

 Cycle   2  Pass 1  IDiag  1:
 E= -33.4903450026464     Delta-E=       -0.070876261518 Rises=F Damp=F
 DIIS: error= 4.88D-02 at cycle   2 NSaved=   2.
 NSaved= 2 IEnMin= 2 EnMin= -33.4903450026464     IErMin= 2 ErrMin= 4.88D-02
 ErrMax= 4.88D-02  0.00D+00 EMaxC= 1.00D-01 BMatC= 6.27D-02 BMatP= 1.31D-01
 IDIUse=3 WtCom= 5.12D-01 WtEn= 4.88D-01
 Coeff-Com:  0.407D+00 0.593D+00
 Coeff-En:   0.206D+00 0.794D+00
 Coeff:      0.309D+00 0.691D+00
 Gap=     0.596 Goal=   None    Shift=    0.000
 RMSDP=1.18D-02 MaxDP=6.70D-02 DE=-7.09D-02 OVMax= 6.27D-02

 Cycle   3  Pass 1  IDiag  1:
 E= -33.5395738418969     Delta-E=       -0.049228839251 Rises=F Damp=F
 DIIS: error= 7.79D-03 at cycle   3 NSaved=   3.
 NSaved= 3 IEnMin= 3 EnMin= -33.5395738418969     IErMin= 3 ErrMin= 7.79D-03
 ErrMax= 7.79D-03  0.00D+00 EMaxC= 1.00D-01 BMatC= 1.51D-03 BMatP= 6.27D-02
 IDIUse=3 WtCom= 9.22D-01 WtEn= 7.79D-02
 Coeff-Com: -0.115D+00 0.328D-02 0.111D+01
 Coeff-En:   0.000D+00 0.000D+00 0.100D+01
 Coeff:     -0.106D+00 0.302D-02 0.110D+01
 Gap=     0.585 Goal=   None    Shift=    0.000
 RMSDP=1.66D-03 MaxDP=1.10D-02 DE=-4.92D-02 OVMax= 9.89D-03

 Cycle   4  Pass 1  IDiag  1:
 E= -33.5410017741197     Delta-E=       -0.001427932223 Rises=F Damp=F
 DIIS: error= 9.96D-04 at cycle   4 NSaved=   4.
 NSaved= 4 IEnMin= 4 EnMin= -33.5410017741197     IErMin= 4 ErrMin= 9.96D-04
 ErrMax= 9.96D-04  0.00D+00 EMaxC= 1.00D-01 BMatC= 9.34D-06 BMatP= 1.51D-03
 IDIUse=3 WtCom= 9.90D-01 WtEn= 9.96D-03
 Coeff-Com:  0.353D-01-0.235D-01-0.421D+00 0.141D+01
 Coeff-En:   0.000D+00 0.000D+00 0.000D+00 0.100D+01
 Coeff:      0.349D-01-0.233D-01-0.417D+00 0.141D+01
 Gap=     0.585 Goal=   None    Shift=    0.000
 RMSDP=2.65D-04 MaxDP=2.44D-03 DE=-1.43D-03 OVMax= 1.20D-03

 Cycle   5  Pass 1  IDiag  1:
 E= -33.5410197917932     Delta-E=       -0.000018017674 Rises=F Damp=F
 DIIS: error= 9.95D-05 at cycle   5 NSaved=   5.
 NSaved= 5 IEnMin= 5 EnMin= -33.5410197917932     IErMin= 5 ErrMin= 9.95D-05
 ErrMax= 9.95D-05  0.00D+00 EMaxC= 1.00D-01 BMatC= 3.04D-07 BMatP= 9.34D-06
 IDIUse=1 WtCom= 1.00D+00 WtEn= 0.00D+00
 Coeff-Com:  0.103D-01-0.531D-02-0.117D+00 0.270D+00 0.842D+00
 Coeff:      0.103D-01-0.531D-02-0.117D+00 0.270D+00 0.842D+00
 Gap=     0.585 Goal=   None    Shift=    0.000
 RMSDP=3.94D-05 MaxDP=3.51D-04 DE=-1.80D-05 OVMax= 2.25D-04

 Cycle   6  Pass 1  IDiag  1:
 E= -33.5410202267561     Delta-E=       -0.000000434963 Rises=F Damp=F
 DIIS: error= 3.27D-05 at cycle   6 NSaved=   6.
 NSaved= 6 IEnMin= 6 EnMin= -33.5410202267561     IErMin= 6 ErrMin= 3.27D-05
 ErrMax= 3.27D-05  0.00D+00 EMaxC= 1.00D-01 BMatC= 2.95D-08 BMatP= 3.04D-07
 IDIUse=1 WtCom= 1.00D+00 WtEn= 0.00D+00
 Coeff-Com: -0.310D-02 0.197D-02 0.373D-01-0.138D+00 0.618D-01 0.104D+01
 Coeff:     -0.310D-02 0.197D-02 0.373D-01-0.138D+00 0.618D-01 0.104D+01
 Gap=     0.585 Goal=   None    Shift=    0.000
 RMSDP=1.91D-05 MaxDP=1.16D-04 DE=-4.35D-07 OVMax= 1.25D-04

 Cycle   7  Pass 1  IDiag  1:
 E= -33.5410202835091     Delta-E=       -0.000000056753 Rises=F Damp=F
 DIIS: error= 1.10D-05 at cycle   7 NSaved=   7.
 NSaved= 7 IEnMin= 7 EnMin= -33.5410202835091     IErMin= 7 ErrMin= 1.10D-05
 ErrMax= 1.10D-05  0.00D+00 EMaxC= 1.00D-01 BMatC= 1.34D-09 BMatP= 2.95D-08
 IDIUse=1 WtCom= 1.00D+00 WtEn= 0.00D+00
 Coeff-Com:  0.856D-03-0.500D-03-0.981D-02 0.398D-01-0.505D-01-0.366D+00
 Coeff-Com:  0.139D+01
 Coeff:      0.856D-03-0.500D-03-0.981D-02 0.398D-01-0.505D-01-0.366D+00
 Coeff:      0.139D+01
 Gap=     0.585 Goal=   None    Shift=    0.000
 RMSDP=6.93D-06 MaxDP=4.06D-05 DE=-5.68D-08 OVMax= 5.11D-05

 Cycle   8  Pass 1  IDiag  1:
 E= -33.5410202883048     Delta-E=       -0.000000004796 Rises=F Damp=F
 DIIS: error= 2.15D-06 at cycle   8 NSaved=   8.
 NSaved= 8 IEnMin= 8 EnMin= -33.5410202883048     IErMin= 8 ErrMin= 2.15D-06
 ErrMax= 2.15D-06  0.00D+00 EMaxC= 1.00D-01 BMatC= 9.76D-11 BMatP= 1.34D-09
 IDIUse=1 WtCom= 1.00D+00 WtEn= 0.00D+00
 Coeff-Com: -0.144D-04-0.151D-04 0.245D-04-0.210D-02 0.166D-01 0.438D-01
 Coeff-Com: -0.491D+00 0.143D+01
 Coeff:     -0.144D-04-0.151D-04 0.245D-04-0.210D-02 0.166D-01 0.438D-01
 Coeff:     -0.491D+00 0.143D+01
 Gap=     0.585 Goal=   None    Shift=    0.000
 RMSDP=2.00D-06 MaxDP=1.28D-05 DE=-4.80D-09 OVMax= 1.41D-05

 Cycle   9  Pass 1  IDiag  1:
 E= -33.5410202886599     Delta-E=       -0.000000000355 Rises=F Damp=F
 DIIS: error= 2.63D-07 at cycle   9 NSaved=   9.
 NSaved= 9 IEnMin= 9 EnMin= -33.5410202886599     IErMin= 9 ErrMin= 2.63D-07
 ErrMax= 2.63D-07  0.00D+00 EMaxC= 1.00D-01 BMatC= 1.82D-12 BMatP= 9.76D-11
 IDIUse=1 WtCom= 1.00D+00 WtEn= 0.00D+00
 Coeff-Com:  0.903D-05 0.286D-05-0.624D-04 0.411D-03-0.265D-02-0.727D-02
 Coeff-Com:  0.982D-01-0.392D+00 0.130D+01
 Coeff:      0.903D-05 0.286D-05-0.624D-04 0.411D-03-0.265D-02-0.727D-02
 Coeff:      0.982D-01-0.392D+00 0.130D+01
 Gap=     0.585 Goal=   None    Shift=    0.000
 RMSDP=2.58D-07 MaxDP=1.57D-06 DE=-3.55D-10 OVMax= 1.45D-06

 Cycle  10  Pass 1  IDiag  1:
 E= -33.5410202886660     Delta-E=       -0.000000000006 Rises=F Damp=F
 DIIS: error= 4.11D-08 at cycle  10 NSaved=  10.
 NSaved=10 IEnMin=10 EnMin= -33.5410202886660     IErMin=10 ErrMin= 4.11D-08
 ErrMax= 4.11D-08  0.00D+00 EMaxC= 1.00D-01 BMatC= 3.26D-14 BMatP= 1.82D-12
 IDIUse=1 WtCom= 1.00D+00 WtEn= 0.00D+00
 Coeff-Com: -0.127D-05-0.147D-05 0.413D-05-0.360D-04 0.532D-03 0.892D-03
 Coeff-Com: -0.202D-01 0.919D-01-0.389D+00 0.132D+01
 Coeff:     -0.127D-05-0.147D-05 0.413D-05-0.360D-04 0.532D-03 0.892D-03
 Coeff:     -0.202D-01 0.919D-01-0.389D+00 0.132D+01
 Gap=     0.585 Goal=   None    Shift=    0.000
 RMSDP=3.18D-08 MaxDP=1.71D-07 DE=-6.10D-12 OVMax= 2.03D-07

 Cycle  11  Pass 1  IDiag  1:
 E= -33.5410202886661     Delta-E=       -0.000000000000 Rises=F Damp=F
 DIIS: error= 1.10D-08 at cycle  11 NSaved=  11.
 NSaved=11 IEnMin=11 EnMin= -33.5410202886661     IErMin=11 ErrMin= 1.10D-08
 ErrMax= 1.10D-08  0.00D+00 EMaxC= 1.00D-01 BMatC= 2.31D-15 BMatP= 3.26D-14
 IDIUse=1 WtCom= 1.00D+00 WtEn= 0.00D+00
 Coeff-Com: -0.322D-06 0.937D-06 0.696D-05-0.249D-04-0.109D-03 0.232D-04
 Coeff-Com:  0.520D-02-0.280D-01 0.141D+00-0.679D+00 0.156D+01
 Coeff:     -0.322D-06 0.937D-06 0.696D-05-0.249D-04-0.109D-03 0.232D-04
 Coeff:      0.520D-02-0.280D-01 0.141D+00-0.679D+00 0.156D+01
 Gap=     0.585 Goal=   None    Shift=    0.000
 RMSDP=1.00D-08 MaxDP=5.70D-08 DE=-7.11D-14 OVMax= 7.30D-08

 SCF Done:  E(RHF) =  -33.5410202887     A.U. after   11 cycles
            NFock= 11  Conv=0.10D-07     -V/T= 2.2423
 KE= 2.699946626937D+01 PE=-1.431312834282D+02 EE= 5.209768285696D+01
 Leave Link  502 at Sun Dec 10 06:27:45 2023, MaxMem=   536870912 cpu:               0.3 elap:               0.1
 (Enter /usr/site/hpc/x86_64/glibc-2.17/broadwell/gaussian/g16_a.03/pgi-16.5/g16/l801.exe)
 Windowed orbitals will be sorted by symmetry type.
 Range of M.O.s used for correlation:     1    24
 NBasis=    24 NAE=     8 NBE=     8 NFC=     0 NFV=     0
 NROrb=     24 NOA=     8 NOB=     8 NVA=    16 NVB=    16
 Leave Link  801 at Sun Dec 10 06:27:45 2023, MaxMem=   536870912 cpu:               0.1 elap:               0.0
 (Enter /usr/site/hpc/x86_64/glibc-2.17/broadwell/gaussian/g16_a.03/pgi-16.5/g16/l804.exe)
 Closed-shell transformation, MDV=   536870912 ITran=4 ISComp=2.
 Unit  1 TFree=       1025975 TCopy=        210600.
 Semi-Direct transformation.
 ModeAB=           2 MOrb=             8 LenV=     536741446
 LASXX=        22470 LTotXX=       22470 LenRXX=       22470
 LTotAB=       26208 MaxLAS=       57600 LenRXY=       57600
 NonZer=       62208 LenScr=      524288 LnRSAI=           0
 LnScr1=           0 LExtra=           0 Total=       604358
 MaxDsk=          -1 SrtSym=           F ITran=            4
 DoSDTr:  NPSUse=  4
 JobTyp=0 Pass  1:  I=   1 to   8.
 (rs|ai) integrals will be sorted in core.
 Complete sort for first half transformation.
 First half transformation complete.
 Complete sort for second half transformation.
 Second half transformation complete.
 Spin components of T(2) and E(2):
     alpha-alpha T2 =       0.9694822985D-02 E2=     -0.2743601721D-01
     alpha-beta  T2 =       0.6214318302D-01 E2=     -0.1803802487D+00
     beta-beta   T2 =       0.9694822985D-02 E2=     -0.2743601721D-01
 ANorm=    0.1039967706D+01
 E2 =    -0.2352522831D+00 EUMP2 =    -0.33776272571750D+02
 Leave Link  804 at Sun Dec 10 06:27:45 2023, MaxMem=   536870912 cpu:               0.2 elap:               0.1
 (Enter /usr/site/hpc/x86_64/glibc-2.17/broadwell/gaussian/g16_a.03/pgi-16.5/g16/l913.exe)
 CIDS:  MDV=   536870912.
 IFCWin=0 IBDFC=1 NFBD=     0     0 NFCmp=     0     0 NFFFC=     0     0
 Using DD3R+UMP44R for 1st iteration.
 Using DD4RQ for 2nd and later iterations.
 Keep R2 and R3 ints in memory in symmetry-blocked form, NReq=865368.
 FoFCou: FMM=F IPFlag=           0 FMFlag=           0 FMFlg1=           0
         NFxFlg=           0 DoJE=F BraDBF=F KetDBF=F FulRan=T
         wScrn=  0.000000 ICntrl=       600 IOpCl=  0 I1Cent=           0 NGrid=           0
         NMat0=    1 NMatS0=    300 NMatT0=    0 NMatD0=    1 NMtDS0=    0 NMtDT0=    0
 Petite list used in FoFCou.
 CIDS: In Core Option IDoMem=           1.
 CCSD(T)
 =======
 Iterations=  50 Convergence= 0.100D-06
 Produce multiple copies of IABC intergrals
 Iteration Nr.   1
 **********************
 DD1Dir will call FoFMem   1 times, MxPair=        72
 NAB=    36 NAA=     0 NBB=     0.
 MP4(R+Q)= -0.31863172D-03
 Maximum subspace dimension=  5
 A-vector RMS=  6.9725803D-03 Max=  2.2084752D-02 conv= 1.00D-05.
 RLE energy=       -0.2397581904
 E3=       -0.44308587D-02        EUMP3=      -0.33780703430D+02
 E4(DQ)=   -0.59193224D-02        UMP4(DQ)=   -0.33786622753D+02
 E4(SDQ)=  -0.84853905D-02        UMP4(SDQ)=  -0.33789188821D+02
 VARIATIONAL ENERGIES WITH THE FIRST-ORDER WAVEFUNCTION:
 DE(Corr)= -0.23967398     E(Corr)=     -33.780694264    
 NORM(A)=   0.10433970D+01
 Iteration Nr.   2
 **********************
 DD1Dir will call FoFMem   1 times, MxPair=        72
 NAB=    36 NAA=     0 NBB=     0.
 A-vector RMS=  1.1981823D-03 Max=  3.1529183D-03 conv= 1.00D-05.
 RLE energy=       -0.2481598262
 DE(Corr)= -0.24632728     E(CORR)=     -33.787347567     Delta=-6.65D-03
 NORM(A)=   0.10477353D+01
 Iteration Nr.   3
 **********************
 DD1Dir will call FoFMem   1 times, MxPair=        72
 NAB=    36 NAA=     0 NBB=     0.
 A-vector RMS=  8.7437240D-04 Max=  4.0696528D-03 conv= 1.00D-05.
 RLE energy=       -0.2488565703
 DE(Corr)= -0.24822024     E(CORR)=     -33.789240530     Delta=-1.89D-03
 NORM(A)=   0.10487124D+01
 Iteration Nr.   4
 **********************
 DD1Dir will call FoFMem   1 times, MxPair=        72
 NAB=    36 NAA=     0 NBB=     0.
 A-vector RMS=  2.0121712D-04 Max=  6.1173824D-04 conv= 1.00D-05.
 RLE energy=       -0.2489419318
 DE(Corr)= -0.24887749     E(CORR)=     -33.789897781     Delta=-6.57D-04
 NORM(A)=   0.10489340D+01
 Iteration Nr.   5
 **********************
 DD1Dir will call FoFMem   1 times, MxPair=        72
 NAB=    36 NAA=     0 NBB=     0.
 A-vector RMS=  1.0474569D-04 Max=  4.9561101D-04 conv= 1.00D-05.
 RLE energy=       -0.2489424934
 DE(Corr)= -0.24893288     E(CORR)=     -33.789953165     Delta=-5.54D-05
 NORM(A)=   0.10489937D+01
 Iteration Nr.   6
 **********************
 DD1Dir will call FoFMem   1 times, MxPair=        72
 NAB=    36 NAA=     0 NBB=     0.
 A-vector RMS=  3.6000527D-05 Max=  1.4469722D-04 conv= 1.00D-05.
 RLE energy=       -0.2489309566
 DE(Corr)= -0.24893932     E(CORR)=     -33.789959609     Delta=-6.44D-06
 NORM(A)=   0.10490106D+01
 Iteration Nr.   7
 **********************
 DD1Dir will call FoFMem   1 times, MxPair=        72
 NAB=    36 NAA=     0 NBB=     0.
 A-vector RMS=  9.3922032D-06 Max=  3.5952893D-05 conv= 1.00D-05.
 RLE energy=       -0.2489359327
 DE(Corr)= -0.24893839     E(CORR)=     -33.789958679     Delta= 9.30D-07
 NORM(A)=   0.10490171D+01
 Iteration Nr.   8
 **********************
 DD1Dir will call FoFMem   1 times, MxPair=        72
 NAB=    36 NAA=     0 NBB=     0.
 A-vector RMS=  3.3960443D-06 Max=  1.4111162D-05 conv= 1.00D-05.
 RLE energy=       -0.2489364885
 DE(Corr)= -0.24893682     E(CORR)=     -33.789957109     Delta= 1.57D-06
 NORM(A)=   0.10490189D+01
 Iteration Nr.   9
 **********************
 DD1Dir will call FoFMem   1 times, MxPair=        72
 NAB=    36 NAA=     0 NBB=     0.
 A-vector RMS=  9.7844390D-07 Max=  3.6941535D-06 conv= 1.00D-05.
 RLE energy=       -0.2489374245
 DE(Corr)= -0.24893735     E(CORR)=     -33.789957638     Delta=-5.29D-07
 NORM(A)=   0.10490196D+01
 Iteration Nr.  10
 **********************
 DD1Dir will call FoFMem   1 times, MxPair=        72
 NAB=    36 NAA=     0 NBB=     0.
 A-vector RMS=  5.1897492D-07 Max=  2.1305002D-06 conv= 1.00D-05.
 RLE energy=       -0.2489375891
 DE(Corr)= -0.24893749     E(CORR)=     -33.789957782     Delta=-1.44D-07
 NORM(A)=   0.10490198D+01
 Iteration Nr.  11
 **********************
 DD1Dir will call FoFMem   1 times, MxPair=        72
 NAB=    36 NAA=     0 NBB=     0.
 A-vector RMS=  2.0386762D-07 Max=  9.4282656D-07 conv= 1.00D-05.
 RLE energy=       -0.2489376759
 DE(Corr)= -0.24893764     E(CORR)=     -33.789957925     Delta=-1.43D-07
 NORM(A)=   0.10490199D+01
 Iteration Nr.  12
 **********************
 DD1Dir will call FoFMem   1 times, MxPair=        72
 NAB=    36 NAA=     0 NBB=     0.
 A-vector RMS=  8.7296110D-08 Max=  3.9278391D-07 conv= 1.00D-05.
 RLE energy=       -0.2489376901
 DE(Corr)= -0.24893767     E(CORR)=     -33.789957962     Delta=-3.68D-08
 NORM(A)=   0.10490200D+01
 CI/CC converged in   12 iterations to DelEn=-3.68D-08 Conv= 1.00D-07 ErrA1= 8.73D-08 Conv= 1.00D-05
 Wavefunction amplitudes converged. E(Corr)=     -33.789957962    
 Largest amplitude= 3.36D-02
 IPart=  2 IA=    2   12.50% done.
 IPart=  3 IA=    3   24.17% done.
 IPart=  4 IA=    4   35.00% done.
 IPart=  4 IA=    5   45.00% done.
 IPart=  3 IA=    6   54.17% done.
 IPart=  2 IA=    7   62.50% done.
 IPart=  1 IA=    8   70.00% done.
 IPart=  3 IA=   10   82.50% done.
 IPart=  4 IA=   12   91.67% done.
 Time for triples=        0.24 seconds.
 T4(CCSD)= -0.39802158D-02
 T5(CCSD)=  0.72661796D-03
 CCSD(T)= -0.33793211560D+02
 Discarding MO integrals.
 Leave Link  913 at Sun Dec 10 06:27:45 2023, MaxMem=   536870912 cpu:               1.0 elap:               0.3
 (Enter /usr/site/hpc/x86_64/glibc-2.17/broadwell/gaussian/g16_a.03/pgi-16.5/g16/l601.exe)
 Copying SCF densities to generalized density rwf, IOpCl= 0 IROHF=0.

 **********************************************************************

            Population analysis using the SCF density.

 **********************************************************************

 Orbital symmetries:
       Occupied  (A') (A') (A') (A') (A') (A") (A") (A')
       Virtual   (A') (A') (A') (A') (A") (A') (A") (A') (A') (A')
                 (A') (A') (A') (A') (A') (A')
 The electronic state is 1-A'.
 Alpha  occ. eigenvalues --   -1.36322  -1.29444  -0.71525  -0.67990  -0.59365
 Alpha  occ. eigenvalues --   -0.50905  -0.43261  -0.38010
 Alpha virt. eigenvalues --    0.20522   0.28050   0.31492   0.33484   0.81271
 Alpha virt. eigenvalues --    0.84407   0.89539   0.93951   0.98785   1.19637
 Alpha virt. eigenvalues --    1.20787   1.25512   1.26841   1.35495   2.53449
 Alpha virt. eigenvalues --    3.38132
          Condensed to atoms (all electrons):
               1          2          3          4          5          6
     1  O    6.995579   0.206260   0.239767  -0.742131   0.030407   0.012505
     2  H    0.206260   0.437657  -0.012467   0.033609  -0.000634  -0.002932
     3  H    0.239767  -0.012467   0.354687   0.033638  -0.000894  -0.000336
     4  O   -0.742131   0.033609   0.033638   6.880661   0.211891   0.242934
     5  H    0.030407  -0.000634  -0.000894   0.211891   0.438721  -0.014712
     6  H    0.012505  -0.002932  -0.000336   0.242934  -0.014712   0.418887
 Mulliken charges:
               1
     1  O   -0.742388
     2  H    0.338508
     3  H    0.385605
     4  O   -0.660601
     5  H    0.335222
     6  H    0.343654
 Sum of Mulliken charges =   0.00000
 Mulliken charges with hydrogens summed into heavy atoms:
               1
     1  O   -0.018274
     4  O    0.018274
 Electronic spatial extent (au):  <R**2>=             93.4517
 Charge=              0.0000 electrons
 Dipole moment (field-independent basis, Debye):
    X=             -1.3912    Y=             -0.7159    Z=              0.0000  Tot=              1.5646
 Quadrupole moment (field-independent basis, Debye-Ang):
   XX=             -9.1824   YY=             -6.3757   ZZ=            -14.9870
   XY=             -0.9684   XZ=              0.0000   YZ=              0.0000
 Traceless Quadrupole moment (field-independent basis, Debye-Ang):
   XX=              0.9993   YY=              3.8060   ZZ=             -4.8053
   XY=             -0.9684   XZ=              0.0000   YZ=              0.0000
 Octapole moment (field-independent basis, Debye-Ang**2):
  XXX=             -1.3842  YYY=              0.6732  ZZZ=              0.0000  XYY=              1.1088
  XXY=             -2.1765  XXZ=              0.0000  XZZ=             -0.2178  YZZ=             -0.1131
  YYZ=              0.0000  XYZ=              0.0000
 Hexadecapole moment (field-independent basis, Debye-Ang**3):
 XXXX=            -12.3694 YYYY=            -66.5017 ZZZZ=            -12.2079 XXXY=             -1.2699
 XXXZ=              0.0000 YYYX=              1.7860 YYYZ=              0.0000 ZZZX=              0.0000
 ZZZY=              0.0000 XXYY=            -11.4702 XXZZ=             -4.6547 YYZZ=            -18.5227
 XXYZ=              0.0000 YYXZ=              0.0000 ZZXY=              0.1003
 N-N= 3.049311401321D+01 E-N=-1.431312834375D+02  KE= 2.699946626937D+01
 Symmetry A'   KE= 1.809559324202D+01
 Symmetry A"   KE= 8.903873027345D+00
 Leave Link  601 at Sun Dec 10 06:27:45 2023, MaxMem=   536870912 cpu:               0.1 elap:               0.0
 (Enter /usr/site/hpc/x86_64/glibc-2.17/broadwell/gaussian/g16_a.03/pgi-16.5/g16/l9999.exe)
 1\1\GINC-N033\SP\RCCSD(T)-FC\CEP-31G\H4O2\ROOT\10-Dec-2023\0\\#p CCSD(
 T)/CEP-31G\\H2O_H2O_161\\0,1\O,0,0.,-0.009833,0.\H,0,-0.799571,-0.5809
 65,0.\H,0,0.799571,-0.580965,0.\O,0,-0.006483,1.754475,0.\H,0,0.218093
 ,2.711069,0.\H,0,-0.984207,1.656681,0.\\Version=ES64L-G16RevA.03\State
 =1-A'\HF=-33.5410203\MP2=-33.7762726\MP3=-33.7807034\MP4D=-33.7863041\
 MP4DQ=-33.7866228\MP4SDQ=-33.7891888\CCSD=-33.789958\CCSD(T)=-33.79321
 16\RMSD=9.996e-09\PG=CS [SG(H4O2)]\\@


 CURIOUSER AND CURIOUSER

                  -- ALICE, IN WONDERLAND
 Job cpu time:       0 days  0 hours  0 minutes  3.4 seconds.
 Elapsed time:       0 days  0 hours  0 minutes  1.1 seconds.
 File lengths (MBytes):  RWF=     72 Int=      0 D2E=      0 Chk=      8 Scr=      8
 Normal termination of Gaussian 16 at Sun Dec 10 06:27:45 2023.
