 Entering Gaussian System, Link 0=g16
 Input=H2O_H2O_1310.com
 Output=H2O_H2O_1310.log
 Initial command:
 /usr/site/hpc/x86_64/glibc-2.17/broadwell/gaussian/g16_a.03/pgi-16.5/g16/l1.exe "/gpfs/gpfs1/scratch/c7441090/OO Coord/Gau-1276339.inp" -scrdir="/gpfs/gpfs1/scratch/c7441090/OO Coord/"
 Entering Link 1 = /usr/site/hpc/x86_64/glibc-2.17/broadwell/gaussian/g16_a.03/pgi-16.5/g16/l1.exe PID=   1276340.
  
 Copyright (c) 1988,1990,1992,1993,1995,1998,2003,2009,2016,
            Gaussian, Inc.  All Rights Reserved.
  
 This is part of the Gaussian(R) 16 program.  It is based on
 the Gaussian(R) 09 system (copyright 2009, Gaussian, Inc.),
 the Gaussian(R) 03 system (copyright 2003, Gaussian, Inc.),
 the Gaussian(R) 98 system (copyright 1998, Gaussian, Inc.),
 the Gaussian(R) 94 system (copyright 1995, Gaussian, Inc.),
 the Gaussian 92(TM) system (copyright 1992, Gaussian, Inc.),
 the Gaussian 90(TM) system (copyright 1990, Gaussian, Inc.),
 the Gaussian 88(TM) system (copyright 1988, Gaussian, Inc.),
 the Gaussian 86(TM) system (copyright 1986, Carnegie Mellon
 University), and the Gaussian 82(TM) system (copyright 1983,
 Carnegie Mellon University). Gaussian is a federally registered
 trademark of Gaussian, Inc.
  
 This software contains proprietary and confidential information,
 including trade secrets, belonging to Gaussian, Inc.
  
 This software is provided under written license and may be
 used, copied, transmitted, or stored only in accord with that
 written license.
  
 The following legend is applicable only to US Government
 contracts under FAR:
  
                    RESTRICTED RIGHTS LEGEND
  
 Use, reproduction and disclosure by the US Government is
 subject to restrictions as set forth in subparagraphs (a)
 and (c) of the Commercial Computer Software - Restricted
 Rights clause in FAR 52.227-19.
  
 Gaussian, Inc.
 340 Quinnipiac St., Bldg. 40, Wallingford CT 06492
  
  
 ---------------------------------------------------------------
 Warning -- This program may not be used in any manner that
 competes with the business of Gaussian, Inc. or will provide
 assistance to any competitor of Gaussian, Inc.  The licensee
 of this program is prohibited from giving any competitor of
 Gaussian, Inc. access to this program.  By using this program,
 the user acknowledges that Gaussian, Inc. is engaged in the
 business of creating and licensing software in the field of
 computational chemistry and represents and warrants to the
 licensee that it is not a competitor of Gaussian, Inc. and that
 it will not use this program in any manner prohibited above.
 ---------------------------------------------------------------
  

 Cite this work as:
 Gaussian 16, Revision A.03,
 M. J. Frisch, G. W. Trucks, H. B. Schlegel, G. E. Scuseria, 
 M. A. Robb, J. R. Cheeseman, G. Scalmani, V. Barone, 
 G. A. Petersson, H. Nakatsuji, X. Li, M. Caricato, A. V. Marenich, 
 J. Bloino, B. G. Janesko, R. Gomperts, B. Mennucci, H. P. Hratchian, 
 J. V. Ortiz, A. F. Izmaylov, J. L. Sonnenberg, D. Williams-Young, 
 F. Ding, F. Lipparini, F. Egidi, J. Goings, B. Peng, A. Petrone, 
 T. Henderson, D. Ranasinghe, V. G. Zakrzewski, J. Gao, N. Rega, 
 G. Zheng, W. Liang, M. Hada, M. Ehara, K. Toyota, R. Fukuda, 
 J. Hasegawa, M. Ishida, T. Nakajima, Y. Honda, O. Kitao, H. Nakai, 
 T. Vreven, K. Throssell, J. A. Montgomery, Jr., J. E. Peralta, 
 F. Ogliaro, M. J. Bearpark, J. J. Heyd, E. N. Brothers, K. N. Kudin, 
 V. N. Staroverov, T. A. Keith, R. Kobayashi, J. Normand, 
 K. Raghavachari, A. P. Rendell, J. C. Burant, S. S. Iyengar, 
 J. Tomasi, M. Cossi, J. M. Millam, M. Klene, C. Adamo, R. Cammi, 
 J. W. Ochterski, R. L. Martin, K. Morokuma, O. Farkas, 
 J. B. Foresman, and D. J. Fox, Gaussian, Inc., Wallingford CT, 2016.
 
 ******************************************
 Gaussian 16:  ES64L-G16RevA.03 25-Dec-2016
                10-Dec-2023 
 ******************************************
 %NProcShared=4
 Will use up to    4 processors via shared memory.
 %Mem=4GB
 %Chk=H2O_H2O_1310.chk
 ------------------
 #p CCSD(T)/CEP-31G
 ------------------
 1/38=1,172=1/1;
 2/12=2,17=6,18=5,40=1/2;
 3/5=9,6=1,11=9,25=1,30=1/1,2,3;
 4//1;
 5/5=2,38=5/2;
 8/6=4,9=120000,10=1/1,4;
 9/5=7,14=2/13;
 6/7=2,8=2,9=2,10=2/1;
 99/5=1,9=1/99;
 Leave Link    1 at Sun Dec 10 06:49:13 2023, MaxMem=   536870912 cpu:               0.2 elap:               0.1
 (Enter /usr/site/hpc/x86_64/glibc-2.17/broadwell/gaussian/g16_a.03/pgi-16.5/g16/l101.exe)
 ------------
 H2O_H2O_1310
 ------------
 Symbolic Z-matrix:
 Charge =  0 Multiplicity = 1
 O                     0.       -0.00983   0. 
 H                    -0.79957  -0.58097   0. 
 H                     0.79957  -0.58097   0. 
 O                    -0.00599   2.97811   0. 
 H                     0.28067   3.91797   0. 
 H                    -0.98801   2.94447   0. 
 
 ITRead=  0  0  0  0  0  0
 MicOpt= -1 -1 -1 -1 -1 -1
 NAtoms=      6 NQM=        6 NQMF=       0 NMMI=      0 NMMIF=      0
                NMic=       0 NMicF=      0.
                    Isotopes and Nuclear Properties:
 (Nuclear quadrupole moments (NQMom) in fm**2, nuclear magnetic moments (NMagM)
  in nuclear magnetons)

  Atom         1           2           3           4           5           6
 IAtWgt=          16           1           1          16           1           1
 AtmWgt=  15.9949146   1.0078250   1.0078250  15.9949146   1.0078250   1.0078250
 NucSpn=           0           1           1           0           1           1
 AtZEff=  -0.0000000  -0.0000000  -0.0000000  -0.0000000  -0.0000000  -0.0000000
 NQMom=    0.0000000   0.0000000   0.0000000   0.0000000   0.0000000   0.0000000
 NMagM=    0.0000000   2.7928460   2.7928460   0.0000000   2.7928460   2.7928460
 AtZNuc=   8.0000000   1.0000000   1.0000000   8.0000000   1.0000000   1.0000000
 Leave Link  101 at Sun Dec 10 06:49:14 2023, MaxMem=   536870912 cpu:               0.3 elap:               0.1
 (Enter /usr/site/hpc/x86_64/glibc-2.17/broadwell/gaussian/g16_a.03/pgi-16.5/g16/l202.exe)
                          Input orientation:                          
 ---------------------------------------------------------------------
 Center     Atomic      Atomic             Coordinates (Angstroms)
 Number     Number       Type             X           Y           Z
 ---------------------------------------------------------------------
      1          8           0        0.000000   -0.009833    0.000000
      2          1           0       -0.799571   -0.580965    0.000000
      3          1           0        0.799571   -0.580965    0.000000
      4          8           0       -0.005986    2.978107    0.000000
      5          1           0        0.280674    3.917965    0.000000
      6          1           0       -0.988012    2.944469    0.000000
 ---------------------------------------------------------------------
                    Distance matrix (angstroms):
                    1          2          3          4          5
     1  O    0.000000
     2  H    0.982601   0.000000
     3  H    0.982601   1.599142   0.000000
     4  O    2.987946   3.646474   3.649098   0.000000
     5  H    3.937813   4.626802   4.528755   0.982602   0.000000
     6  H    3.115135   3.530467   3.952738   0.982602   1.599143
                    6
     6  H    0.000000
 Stoichiometry    H4O2
 Framework group  CS[SG(H4O2)]
 Deg. of freedom     9
 Full point group                 CS      NOp   2
 Largest Abelian subgroup         CS      NOp   2
 Largest concise Abelian subgroup C1      NOp   1
                         Standard orientation:                         
 ---------------------------------------------------------------------
 Center     Atomic      Atomic             Coordinates (Angstroms)
 Number     Number       Type             X           Y           Z
 ---------------------------------------------------------------------
      1          8           0        0.034792   -1.482240    0.000000
      2          1           0       -0.765922   -2.051769    0.000000
      3          1           0        0.833217   -2.054973    0.000000
      4          8           0        0.034792    1.505706    0.000000
      5          1           0        0.323334    2.444987    0.000000
      6          1           0       -0.947300    1.474035    0.000000
 ---------------------------------------------------------------------
 Rotational constants (GHZ):         217.4126034           5.7349331           5.5875443
 Leave Link  202 at Sun Dec 10 06:49:14 2023, MaxMem=   536870912 cpu:               0.1 elap:               0.0
 (Enter /usr/site/hpc/x86_64/glibc-2.17/broadwell/gaussian/g16_a.03/pgi-16.5/g16/l301.exe)
 Standard basis: CEP-31G (6D, 10F)
 Ernie: Thresh=  0.10000D-02 Tol=  0.10000D-05 Strict=F.
 There are    20 symmetry adapted cartesian basis functions of A'  symmetry.
 There are     4 symmetry adapted cartesian basis functions of A"  symmetry.
 There are    20 symmetry adapted basis functions of A'  symmetry.
 There are     4 symmetry adapted basis functions of A"  symmetry.
    24 basis functions,    48 primitive gaussians,    24 cartesian basis functions
     8 alpha electrons        8 beta electrons
       nuclear repulsion energy        24.0440392601 Hartrees.
 IExCor=    0 DFT=F Ex=HF Corr=None ExCW=0 ScaHFX=  1.000000
 ScaDFX=  1.000000  1.000000  1.000000  1.000000 ScalE2=  1.000000  1.000000
 IRadAn=      5 IRanWt=     -1 IRanGd=            0 ICorTp=0 IEmpDi=  4
 NAtoms=    6 NActive=    6 NUniq=    6 SFac= 1.00D+00 NAtFMM=   60 NAOKFM=F Big=F
 Integral buffers will be    131072 words long.
 Raffenetti 1 integral format.
 Two-electron integral symmetry is turned on.
 Leave Link  301 at Sun Dec 10 06:49:14 2023, MaxMem=   536870912 cpu:               0.2 elap:               0.1
 (Enter /usr/site/hpc/x86_64/glibc-2.17/broadwell/gaussian/g16_a.03/pgi-16.5/g16/l302.exe)
 NPDir=0 NMtPBC=     1 NCelOv=     1 NCel=       1 NClECP=     1 NCelD=      1
         NCelK=      1 NCelE2=     1 NClLst=     1 CellRange=     0.0.
 One-electron integrals computed using PRISM.
 One-electron integral symmetry used in STVInt
   2 Symmetry operations used in ECPInt.
 ECPInt:  NShTT=      78 NPrTT=     318 LenC2=      79 LenP2D=     284.
 LDataN:  DoStor=T MaxTD1= 2 Len=   12
 NBasis=    24 RedAO= T EigKep=  3.78D-02  NBF=    20     4
 NBsUse=    24 1.00D-06 EigRej= -1.00D+00 NBFU=    20     4
 Leave Link  302 at Sun Dec 10 06:49:14 2023, MaxMem=   536870912 cpu:               0.3 elap:               0.1
 (Enter /usr/site/hpc/x86_64/glibc-2.17/broadwell/gaussian/g16_a.03/pgi-16.5/g16/l303.exe)
 DipDrv:  MaxL=1.
 Leave Link  303 at Sun Dec 10 06:49:14 2023, MaxMem=   536870912 cpu:               0.1 elap:               0.0
 (Enter /usr/site/hpc/x86_64/glibc-2.17/broadwell/gaussian/g16_a.03/pgi-16.5/g16/l401.exe)
 ExpMin= 1.78D-01 ExpMax= 1.92D+01 ExpMxC= 1.92D+01 IAcc=3 IRadAn=         5 AccDes= 0.00D+00
 Harris functional with IExCor=  205 and IRadAn=       5 diagonalized for initial guess.
 HarFok:  IExCor=  205 AccDes= 0.00D+00 IRadAn=         5 IDoV= 1 UseB2=F ITyADJ=14
 ICtDFT=  3500011 ScaDFX=  1.000000  1.000000  1.000000  1.000000
 FoFCou: FMM=F IPFlag=           0 FMFlag=      100000 FMFlg1=           0
         NFxFlg=           0 DoJE=T BraDBF=F KetDBF=T FulRan=T
         wScrn=  0.000000 ICntrl=       500 IOpCl=  0 I1Cent=   200000004 NGrid=           0
         NMat0=    1 NMatS0=      1 NMatT0=    0 NMatD0=    1 NMtDS0=    0 NMtDT0=    0
 Petite list used in FoFCou.
 Harris En= -34.4778231892350    
 JPrj=0 DoOrth=F DoCkMO=F.
 Initial guess orbital symmetries:
       Occupied  (A') (A') (A') (A') (A') (A') (A") (A")
       Virtual   (A') (A') (A') (A') (A') (A") (A') (A") (A') (A')
                 (A') (A') (A') (A') (A') (A')
 The electronic state of the initial guess is 1-A'.
 Leave Link  401 at Sun Dec 10 06:49:14 2023, MaxMem=   536870912 cpu:               0.4 elap:               0.1
 (Enter /usr/site/hpc/x86_64/glibc-2.17/broadwell/gaussian/g16_a.03/pgi-16.5/g16/l502.exe)
 Keep R1 ints in memory in symmetry-blocked form, NReq=852467.
 FoFCou: FMM=F IPFlag=           0 FMFlag=           0 FMFlg1=           0
         NFxFlg=           0 DoJE=F BraDBF=F KetDBF=F FulRan=T
         wScrn=  0.000000 ICntrl=       600 IOpCl=  0 I1Cent=           0 NGrid=           0
         NMat0=    1 NMatS0=    300 NMatT0=    0 NMatD0=    1 NMtDS0=    0 NMtDT0=    0
 Petite list used in FoFCou.
 Closed shell SCF:
 Using DIIS extrapolation, IDIIS=  1040.
 NGot=   536870912 LenX=   536840576 LenY=   536839559
 Requested convergence on RMS density matrix=1.00D-08 within 128 cycles.
 Requested convergence on MAX density matrix=1.00D-06.
 Requested convergence on             energy=1.00D-06.
 No special actions if energy rises.

 Cycle   1  Pass 1  IDiag  1:
 E= -33.5446260281904    
 DIIS: error= 7.07D-02 at cycle   1 NSaved=   1.
 NSaved= 1 IEnMin= 1 EnMin= -33.5446260281904     IErMin= 1 ErrMin= 7.07D-02
 ErrMax= 7.07D-02  0.00D+00 EMaxC= 1.00D-01 BMatC= 1.05D-01 BMatP= 1.05D-01
 IDIUse=3 WtCom= 2.93D-01 WtEn= 7.07D-01
 Coeff-Com:  0.100D+01
 Coeff-En:   0.100D+01
 Coeff:      0.100D+01
 Gap=     0.581 Goal=   None    Shift=    0.000
 GapD=    0.581 DampG=2.000 DampE=0.500 DampFc=1.0000 IDamp=-1.
 RMSDP=1.56D-02 MaxDP=1.18D-01              OVMax= 1.06D-01

 Cycle   2  Pass 1  IDiag  1:
 E= -33.6106306040954     Delta-E=       -0.066004575905 Rises=F Damp=F
 DIIS: error= 3.81D-02 at cycle   2 NSaved=   2.
 NSaved= 2 IEnMin= 2 EnMin= -33.6106306040954     IErMin= 2 ErrMin= 3.81D-02
 ErrMax= 3.81D-02  0.00D+00 EMaxC= 1.00D-01 BMatC= 3.98D-02 BMatP= 1.05D-01
 IDIUse=3 WtCom= 6.19D-01 WtEn= 3.81D-01
 Coeff-Com:  0.378D+00 0.622D+00
 Coeff-En:   0.984D-01 0.902D+00
 Coeff:      0.271D+00 0.729D+00
 Gap=     0.688 Goal=   None    Shift=    0.000
 RMSDP=6.64D-03 MaxDP=5.60D-02 DE=-6.60D-02 OVMax= 3.73D-02

 Cycle   3  Pass 1  IDiag  1:
 E= -33.6421529519288     Delta-E=       -0.031522347833 Rises=F Damp=F
 DIIS: error= 7.79D-03 at cycle   3 NSaved=   3.
 NSaved= 3 IEnMin= 3 EnMin= -33.6421529519288     IErMin= 3 ErrMin= 7.79D-03
 ErrMax= 7.79D-03  0.00D+00 EMaxC= 1.00D-01 BMatC= 1.07D-03 BMatP= 3.98D-02
 IDIUse=3 WtCom= 9.22D-01 WtEn= 7.79D-02
 Coeff-Com: -0.112D+00-0.207D-02 0.111D+01
 Coeff-En:   0.000D+00 0.000D+00 0.100D+01
 Coeff:     -0.103D+00-0.191D-02 0.111D+01
 Gap=     0.679 Goal=   None    Shift=    0.000
 RMSDP=1.25D-03 MaxDP=1.00D-02 DE=-3.15D-02 OVMax= 8.91D-03

 Cycle   4  Pass 1  IDiag  1:
 E= -33.6432252049100     Delta-E=       -0.001072252981 Rises=F Damp=F
 DIIS: error= 8.53D-04 at cycle   4 NSaved=   4.
 NSaved= 4 IEnMin= 4 EnMin= -33.6432252049100     IErMin= 4 ErrMin= 8.53D-04
 ErrMax= 8.53D-04  0.00D+00 EMaxC= 1.00D-01 BMatC= 7.59D-06 BMatP= 1.07D-03
 IDIUse=3 WtCom= 9.91D-01 WtEn= 8.53D-03
 Coeff-Com:  0.405D-01-0.237D-01-0.480D+00 0.146D+01
 Coeff-En:   0.000D+00 0.000D+00 0.000D+00 0.100D+01
 Coeff:      0.402D-01-0.235D-01-0.476D+00 0.146D+01
 Gap=     0.681 Goal=   None    Shift=    0.000
 RMSDP=2.50D-04 MaxDP=2.22D-03 DE=-1.07D-03 OVMax= 1.08D-03

 Cycle   5  Pass 1  IDiag  1:
 E= -33.6432406970057     Delta-E=       -0.000015492096 Rises=F Damp=F
 DIIS: error= 6.93D-05 at cycle   5 NSaved=   5.
 NSaved= 5 IEnMin= 5 EnMin= -33.6432406970057     IErMin= 5 ErrMin= 6.93D-05
 ErrMax= 6.93D-05  0.00D+00 EMaxC= 1.00D-01 BMatC= 7.51D-08 BMatP= 7.59D-06
 IDIUse=1 WtCom= 1.00D+00 WtEn= 0.00D+00
 Coeff-Com: -0.545D-02 0.351D-02 0.635D-01-0.259D+00 0.120D+01
 Coeff:     -0.545D-02 0.351D-02 0.635D-01-0.259D+00 0.120D+01
 Gap=     0.682 Goal=   None    Shift=    0.000
 RMSDP=2.18D-05 MaxDP=2.35D-04 DE=-1.55D-05 OVMax= 1.60D-04

 Cycle   6  Pass 1  IDiag  1:
 E= -33.6432408723243     Delta-E=       -0.000000175319 Rises=F Damp=F
 DIIS: error= 1.40D-05 at cycle   6 NSaved=   6.
 NSaved= 6 IEnMin= 6 EnMin= -33.6432408723243     IErMin= 6 ErrMin= 1.40D-05
 ErrMax= 1.40D-05  0.00D+00 EMaxC= 1.00D-01 BMatC= 9.03D-09 BMatP= 7.51D-08
 IDIUse=1 WtCom= 1.00D+00 WtEn= 0.00D+00
 Coeff-Com: -0.279D-02 0.179D-02 0.332D-01-0.113D+00 0.219D+00 0.862D+00
 Coeff:     -0.279D-02 0.179D-02 0.332D-01-0.113D+00 0.219D+00 0.862D+00
 Gap=     0.682 Goal=   None    Shift=    0.000
 RMSDP=4.52D-06 MaxDP=5.41D-05 DE=-1.75D-07 OVMax= 3.59D-05

 Cycle   7  Pass 1  IDiag  1:
 E= -33.6432408851331     Delta-E=       -0.000000012809 Rises=F Damp=F
 DIIS: error= 6.46D-06 at cycle   7 NSaved=   7.
 NSaved= 7 IEnMin= 7 EnMin= -33.6432408851331     IErMin= 7 ErrMin= 6.46D-06
 ErrMax= 6.46D-06  0.00D+00 EMaxC= 1.00D-01 BMatC= 1.04D-09 BMatP= 9.03D-09
 IDIUse=1 WtCom= 1.00D+00 WtEn= 0.00D+00
 Coeff-Com:  0.864D-03-0.470D-03-0.967D-02 0.391D-01-0.184D+00 0.203D-01
 Coeff-Com:  0.113D+01
 Coeff:      0.864D-03-0.470D-03-0.967D-02 0.391D-01-0.184D+00 0.203D-01
 Coeff:      0.113D+01
 Gap=     0.682 Goal=   None    Shift=    0.000
 RMSDP=2.31D-06 MaxDP=1.70D-05 DE=-1.28D-08 OVMax= 2.08D-05

 Cycle   8  Pass 1  IDiag  1:
 E= -33.6432408873567     Delta-E=       -0.000000002224 Rises=F Damp=F
 DIIS: error= 1.31D-06 at cycle   8 NSaved=   8.
 NSaved= 8 IEnMin= 8 EnMin= -33.6432408873567     IErMin= 8 ErrMin= 1.31D-06
 ErrMax= 1.31D-06  0.00D+00 EMaxC= 1.00D-01 BMatC= 3.82D-11 BMatP= 1.04D-09
 IDIUse=1 WtCom= 1.00D+00 WtEn= 0.00D+00
 Coeff-Com:  0.606D-05-0.449D-04-0.269D-03-0.686D-03 0.293D-01-0.540D-01
 Coeff-Com: -0.273D+00 0.130D+01
 Coeff:      0.606D-05-0.449D-04-0.269D-03-0.686D-03 0.293D-01-0.540D-01
 Coeff:     -0.273D+00 0.130D+01
 Gap=     0.682 Goal=   None    Shift=    0.000
 RMSDP=7.60D-07 MaxDP=4.28D-06 DE=-2.22D-09 OVMax= 5.40D-06

 Cycle   9  Pass 1  IDiag  1:
 E= -33.6432408874687     Delta-E=       -0.000000000112 Rises=F Damp=F
 DIIS: error= 2.67D-07 at cycle   9 NSaved=   9.
 NSaved= 9 IEnMin= 9 EnMin= -33.6432408874687     IErMin= 9 ErrMin= 2.67D-07
 ErrMax= 2.67D-07  0.00D+00 EMaxC= 1.00D-01 BMatC= 1.25D-12 BMatP= 3.82D-11
 IDIUse=1 WtCom= 1.00D+00 WtEn= 0.00D+00
 Coeff-Com:  0.143D-05 0.136D-04 0.631D-04 0.277D-03-0.989D-02 0.197D-01
 Coeff-Com:  0.909D-01-0.542D+00 0.144D+01
 Coeff:      0.143D-05 0.136D-04 0.631D-04 0.277D-03-0.989D-02 0.197D-01
 Coeff:      0.909D-01-0.542D+00 0.144D+01
 Gap=     0.682 Goal=   None    Shift=    0.000
 RMSDP=1.85D-07 MaxDP=8.16D-07 DE=-1.12D-10 OVMax= 1.24D-06

 Cycle  10  Pass 1  IDiag  1:
 E= -33.6432408874726     Delta-E=       -0.000000000004 Rises=F Damp=F
 DIIS: error= 1.28D-08 at cycle  10 NSaved=  10.
 NSaved=10 IEnMin=10 EnMin= -33.6432408874726     IErMin=10 ErrMin= 1.28D-08
 ErrMax= 1.28D-08  0.00D+00 EMaxC= 1.00D-01 BMatC= 5.10D-15 BMatP= 1.25D-12
 IDIUse=1 WtCom= 1.00D+00 WtEn= 0.00D+00
 Coeff-Com:  0.360D-06-0.262D-05-0.180D-04-0.174D-04 0.160D-02-0.349D-02
 Coeff-Com: -0.154D-01 0.954D-01-0.304D+00 0.123D+01
 Coeff:      0.360D-06-0.262D-05-0.180D-04-0.174D-04 0.160D-02-0.349D-02
 Coeff:     -0.154D-01 0.954D-01-0.304D+00 0.123D+01
 Gap=     0.682 Goal=   None    Shift=    0.000
 RMSDP=1.39D-08 MaxDP=7.15D-08 DE=-3.92D-12 OVMax= 8.18D-08

 Cycle  11  Pass 1  IDiag  1:
 E= -33.6432408874726     Delta-E=        0.000000000000 Rises=F Damp=F
 DIIS: error= 7.93D-10 at cycle  11 NSaved=  11.
 NSaved=11 IEnMin=10 EnMin= -33.6432408874726     IErMin=11 ErrMin= 7.93D-10
 ErrMax= 7.93D-10  0.00D+00 EMaxC= 1.00D-01 BMatC= 3.30D-17 BMatP= 5.10D-15
 IDIUse=1 WtCom= 1.00D+00 WtEn= 0.00D+00
 Coeff-Com: -0.123D-06 0.581D-06 0.439D-05 0.218D-05-0.353D-03 0.783D-03
 Coeff-Com:  0.339D-02-0.214D-01 0.696D-01-0.319D+00 0.127D+01
 Coeff:     -0.123D-06 0.581D-06 0.439D-05 0.218D-05-0.353D-03 0.783D-03
 Coeff:      0.339D-02-0.214D-01 0.696D-01-0.319D+00 0.127D+01
 Gap=     0.682 Goal=   None    Shift=    0.000
 RMSDP=7.88D-10 MaxDP=3.91D-09 DE= 1.42D-14 OVMax= 4.19D-09

 SCF Done:  E(RHF) =  -33.6432408875     A.U. after   11 cycles
            NFock= 11  Conv=0.79D-09     -V/T= 2.2571
 KE= 2.676193079967D+01 PE=-1.300112709756D+02 EE= 4.556206002836D+01
 Leave Link  502 at Sun Dec 10 06:49:14 2023, MaxMem=   536870912 cpu:               0.3 elap:               0.1
 (Enter /usr/site/hpc/x86_64/glibc-2.17/broadwell/gaussian/g16_a.03/pgi-16.5/g16/l801.exe)
 Windowed orbitals will be sorted by symmetry type.
 Range of M.O.s used for correlation:     1    24
 NBasis=    24 NAE=     8 NBE=     8 NFC=     0 NFV=     0
 NROrb=     24 NOA=     8 NOB=     8 NVA=    16 NVB=    16
 Leave Link  801 at Sun Dec 10 06:49:14 2023, MaxMem=   536870912 cpu:               0.1 elap:               0.0
 (Enter /usr/site/hpc/x86_64/glibc-2.17/broadwell/gaussian/g16_a.03/pgi-16.5/g16/l804.exe)
 Closed-shell transformation, MDV=   536870912 ITran=4 ISComp=2.
 Unit  1 TFree=       1025975 TCopy=        210600.
 Semi-Direct transformation.
 ModeAB=           2 MOrb=             8 LenV=     536741829
 LASXX=        22470 LTotXX=       22470 LenRXX=       22470
 LTotAB=       26208 MaxLAS=       57600 LenRXY=       57600
 NonZer=       62208 LenScr=      524288 LnRSAI=           0
 LnScr1=           0 LExtra=           0 Total=       604358
 MaxDsk=          -1 SrtSym=           F ITran=            4
 DoSDTr:  NPSUse=  4
 JobTyp=0 Pass  1:  I=   1 to   8.
 (rs|ai) integrals will be sorted in core.
 Complete sort for first half transformation.
 First half transformation complete.
 Complete sort for second half transformation.
 Second half transformation complete.
 Spin components of T(2) and E(2):
     alpha-alpha T2 =       0.9098961415D-02 E2=     -0.2599208416D-01
     alpha-beta  T2 =       0.6024849819D-01 E2=     -0.1773056442D+00
     beta-beta   T2 =       0.9098961415D-02 E2=     -0.2599208416D-01
 ANorm=    0.1038482750D+01
 E2 =    -0.2292898126D+00 EUMP2 =    -0.33872530700039D+02
 Leave Link  804 at Sun Dec 10 06:49:14 2023, MaxMem=   536870912 cpu:               0.2 elap:               0.1
 (Enter /usr/site/hpc/x86_64/glibc-2.17/broadwell/gaussian/g16_a.03/pgi-16.5/g16/l913.exe)
 CIDS:  MDV=   536870912.
 IFCWin=0 IBDFC=1 NFBD=     0     0 NFCmp=     0     0 NFFFC=     0     0
 Using DD3R+UMP44R for 1st iteration.
 Using DD4RQ for 2nd and later iterations.
 Keep R2 and R3 ints in memory in symmetry-blocked form, NReq=865075.
 FoFCou: FMM=F IPFlag=           0 FMFlag=           0 FMFlg1=           0
         NFxFlg=           0 DoJE=F BraDBF=F KetDBF=F FulRan=T
         wScrn=  0.000000 ICntrl=       600 IOpCl=  0 I1Cent=           0 NGrid=           0
         NMat0=    1 NMatS0=    300 NMatT0=    0 NMatD0=    1 NMtDS0=    0 NMtDT0=    0
 Petite list used in FoFCou.
 CIDS: In Core Option IDoMem=           1.
 CCSD(T)
 =======
 Iterations=  50 Convergence= 0.100D-06
 Produce multiple copies of IABC intergrals
 Iteration Nr.   1
 **********************
 DD1Dir will call FoFMem   1 times, MxPair=        72
 NAB=    36 NAA=     0 NBB=     0.
 MP4(R+Q)= -0.66763274D-03
 Maximum subspace dimension=  5
 A-vector RMS=  5.9210834D-03 Max=  1.2854644D-02 conv= 1.00D-05.
 RLE energy=       -0.2354438816
 E3=       -0.55990954D-02        EUMP3=      -0.33878129795D+02
 E4(DQ)=   -0.59111165D-02        UMP4(DQ)=   -0.33884040912D+02
 E4(SDQ)=  -0.80110576D-02        UMP4(SDQ)=  -0.33886140853D+02
 VARIATIONAL ENERGIES WITH THE FIRST-ORDER WAVEFUNCTION:
 DE(Corr)= -0.23528336     E(Corr)=     -33.878524248    
 NORM(A)=   0.10420295D+01
 Iteration Nr.   2
 **********************
 DD1Dir will call FoFMem   1 times, MxPair=        72
 NAB=    36 NAA=     0 NBB=     0.
 A-vector RMS=  9.9792733D-04 Max=  2.6932616D-03 conv= 1.00D-05.
 RLE energy=       -0.2433597387
 DE(Corr)= -0.24139374     E(CORR)=     -33.884634629     Delta=-6.11D-03
 NORM(A)=   0.10459477D+01
 Iteration Nr.   3
 **********************
 DD1Dir will call FoFMem   1 times, MxPair=        72
 NAB=    36 NAA=     0 NBB=     0.
 A-vector RMS=  4.3023239D-04 Max=  1.6216274D-03 conv= 1.00D-05.
 RLE energy=       -0.2439189170
 DE(Corr)= -0.24345475     E(CORR)=     -33.886695636     Delta=-2.06D-03
 NORM(A)=   0.10465449D+01
 Iteration Nr.   4
 **********************
 DD1Dir will call FoFMem   1 times, MxPair=        72
 NAB=    36 NAA=     0 NBB=     0.
 A-vector RMS=  1.0720397D-04 Max=  3.6333765D-04 conv= 1.00D-05.
 RLE energy=       -0.2439702802
 DE(Corr)= -0.24393183     E(CORR)=     -33.887172718     Delta=-4.77D-04
 NORM(A)=   0.10466309D+01
 Iteration Nr.   5
 **********************
 DD1Dir will call FoFMem   1 times, MxPair=        72
 NAB=    36 NAA=     0 NBB=     0.
 A-vector RMS=  4.8707019D-05 Max=  2.0922983D-04 conv= 1.00D-05.
 RLE energy=       -0.2439690431
 DE(Corr)= -0.24396607     E(CORR)=     -33.887206953     Delta=-3.42D-05
 NORM(A)=   0.10466450D+01
 Iteration Nr.   6
 **********************
 DD1Dir will call FoFMem   1 times, MxPair=        72
 NAB=    36 NAA=     0 NBB=     0.
 A-vector RMS=  1.5744511D-05 Max=  7.0741228D-05 conv= 1.00D-05.
 RLE energy=       -0.2439661204
 DE(Corr)= -0.24396878     E(CORR)=     -33.887209671     Delta=-2.72D-06
 NORM(A)=   0.10466486D+01
 Iteration Nr.   7
 **********************
 DD1Dir will call FoFMem   1 times, MxPair=        72
 NAB=    36 NAA=     0 NBB=     0.
 A-vector RMS=  5.2008245D-06 Max=  2.2425468D-05 conv= 1.00D-05.
 RLE energy=       -0.2439677132
 DE(Corr)= -0.24396811     E(CORR)=     -33.887208993     Delta= 6.78D-07
 NORM(A)=   0.10466505D+01
 Iteration Nr.   8
 **********************
 DD1Dir will call FoFMem   1 times, MxPair=        72
 NAB=    36 NAA=     0 NBB=     0.
 A-vector RMS=  1.6918330D-06 Max=  6.1730756D-06 conv= 1.00D-05.
 RLE energy=       -0.2439676087
 DE(Corr)= -0.24396777     E(CORR)=     -33.887208658     Delta= 3.35D-07
 NORM(A)=   0.10466511D+01
 Iteration Nr.   9
 **********************
 DD1Dir will call FoFMem   1 times, MxPair=        72
 NAB=    36 NAA=     0 NBB=     0.
 A-vector RMS=  4.2575949D-07 Max=  1.7198168D-06 conv= 1.00D-05.
 RLE energy=       -0.2439678703
 DE(Corr)= -0.24396790     E(CORR)=     -33.887208785     Delta=-1.27D-07
 NORM(A)=   0.10466514D+01
 Iteration Nr.  10
 **********************
 DD1Dir will call FoFMem   1 times, MxPair=        72
 NAB=    36 NAA=     0 NBB=     0.
 A-vector RMS=  1.3873202D-07 Max=  5.6136405D-07 conv= 1.00D-05.
 RLE energy=       -0.2439679946
 DE(Corr)= -0.24396797     E(CORR)=     -33.887208855     Delta=-7.05D-08
 NORM(A)=   0.10466515D+01
 CI/CC converged in   10 iterations to DelEn=-7.05D-08 Conv= 1.00D-07 ErrA1= 1.39D-07 Conv= 1.00D-05
 Wavefunction amplitudes converged. E(Corr)=     -33.887208855    
 Largest amplitude= 4.42D-02
 IPart=  3 IA=    2   12.50% done.
 IPart=  2 IA=    3   24.17% done.
 IPart=  4 IA=    4   35.00% done.
 IPart=  3 IA=    5   45.00% done.
 IPart=  4 IA=    6   54.17% done.
 IPart=  2 IA=    7   62.50% done.
 IPart=  1 IA=    8   70.00% done.
 IPart=  2 IA=   10   82.50% done.
 IPart=  4 IA=   12   91.67% done.
 Time for triples=        0.27 seconds.
 T4(CCSD)= -0.31803277D-02
 T5(CCSD)=  0.54356672D-03
 CCSD(T)= -0.33889845616D+02
 Discarding MO integrals.
 Leave Link  913 at Sun Dec 10 06:49:14 2023, MaxMem=   536870912 cpu:               0.9 elap:               0.3
 (Enter /usr/site/hpc/x86_64/glibc-2.17/broadwell/gaussian/g16_a.03/pgi-16.5/g16/l601.exe)
 Copying SCF densities to generalized density rwf, IOpCl= 0 IROHF=0.

 **********************************************************************

            Population analysis using the SCF density.

 **********************************************************************

 Orbital symmetries:
       Occupied  (A') (A') (A') (A') (A') (A') (A") (A")
       Virtual   (A') (A') (A') (A') (A') (A") (A') (A") (A') (A')
                 (A') (A') (A') (A') (A') (A')
 The electronic state is 1-A'.
 Alpha  occ. eigenvalues --   -1.33850  -1.33041  -0.69472  -0.68627  -0.53992
 Alpha  occ. eigenvalues --   -0.51453  -0.48382  -0.47445
 Alpha virt. eigenvalues --    0.20711   0.23314   0.31782   0.32446   0.77487
 Alpha virt. eigenvalues --    0.79573   0.83313   0.85876   0.93743   1.12661
 Alpha virt. eigenvalues --    1.18718   1.21231   1.23431   1.24217   2.59561
 Alpha virt. eigenvalues --    2.61671
          Condensed to atoms (all electrons):
               1          2          3          4          5          6
     1  O    6.208399   0.253203   0.263018  -0.007394   0.000086   0.000953
     2  H    0.253203   0.418424  -0.023897   0.000232  -0.000001  -0.000056
     3  H    0.263018  -0.023897   0.395002   0.000271  -0.000002  -0.000023
     4  O   -0.007394   0.000232   0.000271   6.204045   0.249821   0.263107
     5  H    0.000086  -0.000001  -0.000002   0.249821   0.425845  -0.024336
     6  H    0.000953  -0.000056  -0.000023   0.263107  -0.024336   0.398324
 Mulliken charges:
               1
     1  O   -0.718264
     2  H    0.352095
     3  H    0.365632
     4  O   -0.710082
     5  H    0.348588
     6  H    0.362031
 Sum of Mulliken charges =   0.00000
 Mulliken charges with hydrogens summed into heavy atoms:
               1
     1  O   -0.000537
     4  O    0.000537
 Electronic spatial extent (au):  <R**2>=            179.0982
 Charge=              0.0000 electrons
 Dipole moment (field-independent basis, Debye):
    X=             -1.5479    Y=             -0.5852    Z=              0.0000  Tot=              1.6549
 Quadrupole moment (field-independent basis, Debye-Ang):
   XX=             -8.9029   YY=              2.3383   ZZ=            -14.9860
   XY=             -1.6871   XZ=              0.0000   YZ=              0.0000
 Traceless Quadrupole moment (field-independent basis, Debye-Ang):
   XX=             -1.7194   YY=              9.5218   ZZ=             -7.8024
   XY=             -1.6871   XZ=              0.0000   YZ=              0.0000
 Octapole moment (field-independent basis, Debye-Ang**2):
  XXX=             -1.8004  YYY=             -0.0819  ZZZ=              0.0000  XYY=             -0.0465
  XXY=             -2.3329  XXZ=              0.0000  XZZ=             -0.2828  YZZ=             -0.1148
  YYZ=              0.0000  XYZ=              0.0000
 Hexadecapole moment (field-independent basis, Debye-Ang**3):
 XXXX=            -11.9813 YYYY=           -102.6034 ZZZZ=            -12.2191 XXXY=             -1.8814
 XXXZ=              0.0000 YYYX=              3.0951 YYYZ=              0.0000 ZZZX=              0.0000
 ZZZY=              0.0000 XXYY=            -21.8710 XXZZ=             -4.6106 YYZZ=            -40.0885
 XXYZ=              0.0000 YYXZ=              0.0000 ZZXY=              0.2476
 N-N= 2.404403926011D+01 E-N=-1.300112709813D+02  KE= 2.676193079967D+01
 Symmetry A'   KE= 1.787762914821D+01
 Symmetry A"   KE= 8.884301651455D+00
 Leave Link  601 at Sun Dec 10 06:49:14 2023, MaxMem=   536870912 cpu:               0.1 elap:               0.0
 (Enter /usr/site/hpc/x86_64/glibc-2.17/broadwell/gaussian/g16_a.03/pgi-16.5/g16/l9999.exe)
 1\1\GINC-N033\SP\RCCSD(T)-FC\CEP-31G\H4O2\ROOT\10-Dec-2023\0\\#p CCSD(
 T)/CEP-31G\\H2O_H2O_1310\\0,1\O,0,0.,-0.009833,0.\H,0,-0.799571,-0.580
 965,0.\H,0,0.799571,-0.580965,0.\O,0,-0.005986,2.978107,0.\H,0,0.28067
 4,3.917965,0.\H,0,-0.988012,2.944469,0.\\Version=ES64L-G16RevA.03\Stat
 e=1-A'\HF=-33.6432409\MP2=-33.8725307\MP3=-33.8781298\MP4D=-33.8833733
 \MP4DQ=-33.8840409\MP4SDQ=-33.8861409\CCSD=-33.8872089\CCSD(T)=-33.889
 8456\RMSD=7.885e-10\PG=CS [SG(H4O2)]\\@


 NEVER LOSE YOUR IGNORANCE, IT CAN'T BE REPLACED.
   -- ANDY CAPP
 Job cpu time:       0 days  0 hours  0 minutes  3.4 seconds.
 Elapsed time:       0 days  0 hours  0 minutes  1.1 seconds.
 File lengths (MBytes):  RWF=     72 Int=      0 D2E=      0 Chk=      8 Scr=      8
 Normal termination of Gaussian 16 at Sun Dec 10 06:49:15 2023.
