 Entering Gaussian System, Link 0=g16
 Input=H2O_H2O_3050.com
 Output=H2O_H2O_3050.log
 Initial command:
 /usr/site/hpc/x86_64/glibc-2.17/broadwell/gaussian/g16_a.03/pgi-16.5/g16/l1.exe "/gpfs/gpfs1/scratch/c7441090/OO Coord/Gau-1751184.inp" -scrdir="/gpfs/gpfs1/scratch/c7441090/OO Coord/"
 Entering Link 1 = /usr/site/hpc/x86_64/glibc-2.17/broadwell/gaussian/g16_a.03/pgi-16.5/g16/l1.exe PID=   1751185.
  
 Copyright (c) 1988,1990,1992,1993,1995,1998,2003,2009,2016,
            Gaussian, Inc.  All Rights Reserved.
  
 This is part of the Gaussian(R) 16 program.  It is based on
 the Gaussian(R) 09 system (copyright 2009, Gaussian, Inc.),
 the Gaussian(R) 03 system (copyright 2003, Gaussian, Inc.),
 the Gaussian(R) 98 system (copyright 1998, Gaussian, Inc.),
 the Gaussian(R) 94 system (copyright 1995, Gaussian, Inc.),
 the Gaussian 92(TM) system (copyright 1992, Gaussian, Inc.),
 the Gaussian 90(TM) system (copyright 1990, Gaussian, Inc.),
 the Gaussian 88(TM) system (copyright 1988, Gaussian, Inc.),
 the Gaussian 86(TM) system (copyright 1986, Carnegie Mellon
 University), and the Gaussian 82(TM) system (copyright 1983,
 Carnegie Mellon University). Gaussian is a federally registered
 trademark of Gaussian, Inc.
  
 This software contains proprietary and confidential information,
 including trade secrets, belonging to Gaussian, Inc.
  
 This software is provided under written license and may be
 used, copied, transmitted, or stored only in accord with that
 written license.
  
 The following legend is applicable only to US Government
 contracts under FAR:
  
                    RESTRICTED RIGHTS LEGEND
  
 Use, reproduction and disclosure by the US Government is
 subject to restrictions as set forth in subparagraphs (a)
 and (c) of the Commercial Computer Software - Restricted
 Rights clause in FAR 52.227-19.
  
 Gaussian, Inc.
 340 Quinnipiac St., Bldg. 40, Wallingford CT 06492
  
  
 ---------------------------------------------------------------
 Warning -- This program may not be used in any manner that
 competes with the business of Gaussian, Inc. or will provide
 assistance to any competitor of Gaussian, Inc.  The licensee
 of this program is prohibited from giving any competitor of
 Gaussian, Inc. access to this program.  By using this program,
 the user acknowledges that Gaussian, Inc. is engaged in the
 business of creating and licensing software in the field of
 computational chemistry and represents and warrants to the
 licensee that it is not a competitor of Gaussian, Inc. and that
 it will not use this program in any manner prohibited above.
 ---------------------------------------------------------------
  

 Cite this work as:
 Gaussian 16, Revision A.03,
 M. J. Frisch, G. W. Trucks, H. B. Schlegel, G. E. Scuseria, 
 M. A. Robb, J. R. Cheeseman, G. Scalmani, V. Barone, 
 G. A. Petersson, H. Nakatsuji, X. Li, M. Caricato, A. V. Marenich, 
 J. Bloino, B. G. Janesko, R. Gomperts, B. Mennucci, H. P. Hratchian, 
 J. V. Ortiz, A. F. Izmaylov, J. L. Sonnenberg, D. Williams-Young, 
 F. Ding, F. Lipparini, F. Egidi, J. Goings, B. Peng, A. Petrone, 
 T. Henderson, D. Ranasinghe, V. G. Zakrzewski, J. Gao, N. Rega, 
 G. Zheng, W. Liang, M. Hada, M. Ehara, K. Toyota, R. Fukuda, 
 J. Hasegawa, M. Ishida, T. Nakajima, Y. Honda, O. Kitao, H. Nakai, 
 T. Vreven, K. Throssell, J. A. Montgomery, Jr., J. E. Peralta, 
 F. Ogliaro, M. J. Bearpark, J. J. Heyd, E. N. Brothers, K. N. Kudin, 
 V. N. Staroverov, T. A. Keith, R. Kobayashi, J. Normand, 
 K. Raghavachari, A. P. Rendell, J. C. Burant, S. S. Iyengar, 
 J. Tomasi, M. Cossi, J. M. Millam, M. Klene, C. Adamo, R. Cammi, 
 J. W. Ochterski, R. L. Martin, K. Morokuma, O. Farkas, 
 J. B. Foresman, and D. J. Fox, Gaussian, Inc., Wallingford CT, 2016.
 
 ******************************************
 Gaussian 16:  ES64L-G16RevA.03 25-Dec-2016
                10-Dec-2023 
 ******************************************
 %NProcShared=4
 Will use up to    4 processors via shared memory.
 %Mem=4GB
 %Chk=H2O_H2O_3050.chk
 ------------------
 #p CCSD(T)/CEP-31G
 ------------------
 1/38=1,172=1/1;
 2/12=2,17=6,18=5,40=1/2;
 3/5=9,6=1,11=9,25=1,30=1/1,2,3;
 4//1;
 5/5=2,38=5/2;
 8/6=4,9=120000,10=1/1,4;
 9/5=7,14=2/13;
 6/7=2,8=2,9=2,10=2/1;
 99/5=1,9=1/99;
 Leave Link    1 at Sun Dec 10 06:34:49 2023, MaxMem=   536870912 cpu:               0.2 elap:               0.1
 (Enter /usr/site/hpc/x86_64/glibc-2.17/broadwell/gaussian/g16_a.03/pgi-16.5/g16/l101.exe)
 ------------
 H2O_H2O_3050
 ------------
 Symbolic Z-matrix:
 Charge =  0 Multiplicity = 1
 O                     0.       -0.00983   0. 
 H                    -0.79957  -0.58097   0. 
 H                     0.79957  -0.58097   0. 
 O                     0.        4.84157   0. 
 H                     0.79957   5.4127    0. 
 H                    -0.79957   5.4127    0. 
 
 ITRead=  0  0  0  0  0  0
 MicOpt= -1 -1 -1 -1 -1 -1
 NAtoms=      6 NQM=        6 NQMF=       0 NMMI=      0 NMMIF=      0
                NMic=       0 NMicF=      0.
                    Isotopes and Nuclear Properties:
 (Nuclear quadrupole moments (NQMom) in fm**2, nuclear magnetic moments (NMagM)
  in nuclear magnetons)

  Atom         1           2           3           4           5           6
 IAtWgt=          16           1           1          16           1           1
 AtmWgt=  15.9949146   1.0078250   1.0078250  15.9949146   1.0078250   1.0078250
 NucSpn=           0           1           1           0           1           1
 AtZEff=  -0.0000000  -0.0000000  -0.0000000  -0.0000000  -0.0000000  -0.0000000
 NQMom=    0.0000000   0.0000000   0.0000000   0.0000000   0.0000000   0.0000000
 NMagM=    0.0000000   2.7928460   2.7928460   0.0000000   2.7928460   2.7928460
 AtZNuc=   8.0000000   1.0000000   1.0000000   8.0000000   1.0000000   1.0000000
 Leave Link  101 at Sun Dec 10 06:34:49 2023, MaxMem=   536870912 cpu:               0.3 elap:               0.1
 (Enter /usr/site/hpc/x86_64/glibc-2.17/broadwell/gaussian/g16_a.03/pgi-16.5/g16/l202.exe)
                          Input orientation:                          
 ---------------------------------------------------------------------
 Center     Atomic      Atomic             Coordinates (Angstroms)
 Number     Number       Type             X           Y           Z
 ---------------------------------------------------------------------
      1          8           0        0.000000   -0.009833    0.000000
      2          1           0       -0.799571   -0.580965    0.000000
      3          1           0        0.799571   -0.580965    0.000000
      4          8           0        0.000000    4.841567    0.000000
      5          1           0        0.799571    5.412699    0.000000
      6          1           0       -0.799571    5.412699    0.000000
 ---------------------------------------------------------------------
                    Distance matrix (angstroms):
                    1          2          3          4          5
     1  O    0.000000
     2  H    0.982601   0.000000
     3  H    0.982601   1.599142   0.000000
     4  O    4.851400   5.481165   5.481165   0.000000
     5  H    5.481165   6.203327   5.993664   0.982601   0.000000
     6  H    5.481165   5.993664   6.203327   0.982601   1.599142
                    6
     6  H    0.000000
 Stoichiometry    H4O2
 Framework group  D2H[C2"(O.O),SG(H4)]
 Deg. of freedom     3
 Full point group                 D2H     NOp   8
 Largest Abelian subgroup         D2H     NOp   8
 Largest concise Abelian subgroup D2      NOp   4
                         Standard orientation:                         
 ---------------------------------------------------------------------
 Center     Atomic      Atomic             Coordinates (Angstroms)
 Number     Number       Type             X           Y           Z
 ---------------------------------------------------------------------
      1          8           0        0.000000   -0.000000    2.425700
      2          1           0        0.000000    0.799571    2.996832
      3          1           0       -0.000000   -0.799571    2.996832
      4          8           0        0.000000   -0.000000   -2.425700
      5          1           0       -0.000000   -0.799571   -2.996832
      6          1           0        0.000000    0.799571   -2.996832
 ---------------------------------------------------------------------
 Rotational constants (GHZ):         196.0911516           2.2517942           2.2262295
 Leave Link  202 at Sun Dec 10 06:34:49 2023, MaxMem=   536870912 cpu:               0.1 elap:               0.0
 (Enter /usr/site/hpc/x86_64/glibc-2.17/broadwell/gaussian/g16_a.03/pgi-16.5/g16/l301.exe)
 Standard basis: CEP-31G (6D, 10F)
 Ernie: Thresh=  0.10000D-02 Tol=  0.10000D-05 Strict=F.
 There are     6 symmetry adapted cartesian basis functions of AG  symmetry.
 There are     0 symmetry adapted cartesian basis functions of B1G symmetry.
 There are     2 symmetry adapted cartesian basis functions of B2G symmetry.
 There are     4 symmetry adapted cartesian basis functions of B3G symmetry.
 There are     0 symmetry adapted cartesian basis functions of AU  symmetry.
 There are     6 symmetry adapted cartesian basis functions of B1U symmetry.
 There are     4 symmetry adapted cartesian basis functions of B2U symmetry.
 There are     2 symmetry adapted cartesian basis functions of B3U symmetry.
 There are     6 symmetry adapted basis functions of AG  symmetry.
 There are     0 symmetry adapted basis functions of B1G symmetry.
 There are     2 symmetry adapted basis functions of B2G symmetry.
 There are     4 symmetry adapted basis functions of B3G symmetry.
 There are     0 symmetry adapted basis functions of AU  symmetry.
 There are     6 symmetry adapted basis functions of B1U symmetry.
 There are     4 symmetry adapted basis functions of B2U symmetry.
 There are     2 symmetry adapted basis functions of B3U symmetry.
    24 basis functions,    48 primitive gaussians,    24 cartesian basis functions
     8 alpha electrons        8 beta electrons
       nuclear repulsion energy        20.1779998648 Hartrees.
 IExCor=    0 DFT=F Ex=HF Corr=None ExCW=0 ScaHFX=  1.000000
 ScaDFX=  1.000000  1.000000  1.000000  1.000000 ScalE2=  1.000000  1.000000
 IRadAn=      5 IRanWt=     -1 IRanGd=            0 ICorTp=0 IEmpDi=  4
 NAtoms=    6 NActive=    6 NUniq=    2 SFac= 4.00D+00 NAtFMM=   60 NAOKFM=F Big=F
 Integral buffers will be    131072 words long.
 Raffenetti 1 integral format.
 Two-electron integral symmetry is turned on.
 Leave Link  301 at Sun Dec 10 06:34:49 2023, MaxMem=   536870912 cpu:               0.2 elap:               0.1
 (Enter /usr/site/hpc/x86_64/glibc-2.17/broadwell/gaussian/g16_a.03/pgi-16.5/g16/l302.exe)
 NPDir=0 NMtPBC=     1 NCelOv=     1 NCel=       1 NClECP=     1 NCelD=      1
         NCelK=      1 NCelE2=     1 NClLst=     1 CellRange=     0.0.
 One-electron integrals computed using PRISM.
 One-electron integral symmetry used in STVInt
   8 Symmetry operations used in ECPInt.
 ECPInt:  NShTT=      78 NPrTT=     318 LenC2=      79 LenP2D=     252.
 LDataN:  DoStor=T MaxTD1= 2 Len=   12
 NBasis=    24 RedAO= T EigKep=  3.86D-02  NBF=     6     0     2     4     0     6     4     2
 NBsUse=    24 1.00D-06 EigRej= -1.00D+00 NBFU=     6     0     2     4     0     6     4     2
 Leave Link  302 at Sun Dec 10 06:34:49 2023, MaxMem=   536870912 cpu:               0.3 elap:               0.1
 (Enter /usr/site/hpc/x86_64/glibc-2.17/broadwell/gaussian/g16_a.03/pgi-16.5/g16/l303.exe)
 DipDrv:  MaxL=1.
 Leave Link  303 at Sun Dec 10 06:34:49 2023, MaxMem=   536870912 cpu:               0.1 elap:               0.0
 (Enter /usr/site/hpc/x86_64/glibc-2.17/broadwell/gaussian/g16_a.03/pgi-16.5/g16/l401.exe)
 ExpMin= 1.78D-01 ExpMax= 1.92D+01 ExpMxC= 1.92D+01 IAcc=3 IRadAn=         5 AccDes= 0.00D+00
 Harris functional with IExCor=  205 and IRadAn=       5 diagonalized for initial guess.
 HarFok:  IExCor=  205 AccDes= 0.00D+00 IRadAn=         5 IDoV= 1 UseB2=F ITyADJ=14
 ICtDFT=  3500011 ScaDFX=  1.000000  1.000000  1.000000  1.000000
 FoFCou: FMM=F IPFlag=           0 FMFlag=      100000 FMFlg1=           0
         NFxFlg=           0 DoJE=T BraDBF=F KetDBF=T FulRan=T
         wScrn=  0.000000 ICntrl=       500 IOpCl=  0 I1Cent=   200000004 NGrid=           0
         NMat0=    1 NMatS0=      1 NMatT0=    0 NMatD0=    1 NMtDS0=    0 NMtDT0=    0
 Petite list used in FoFCou.
 Harris En= -34.4763746239341    
 JPrj=0 DoOrth=F DoCkMO=F.
 Initial guess orbital symmetries:
       Occupied  (AG) (B1U) (B2U) (B3G) (AG) (B1U) (B3U) (B2G)
       Virtual   (AG) (B1U) (B2U) (B3G) (B3U) (B2G) (AG) (B1U)
                 (B2U) (B3G) (AG) (B1U) (B2U) (B3G) (AG) (B1U)
 The electronic state of the initial guess is 1-AG.
 Leave Link  401 at Sun Dec 10 06:34:49 2023, MaxMem=   536870912 cpu:               0.4 elap:               0.1
 (Enter /usr/site/hpc/x86_64/glibc-2.17/broadwell/gaussian/g16_a.03/pgi-16.5/g16/l502.exe)
 Keep R1 ints in memory in symmetry-blocked form, NReq=853141.
 FoFCou: FMM=F IPFlag=           0 FMFlag=           0 FMFlg1=           0
         NFxFlg=           0 DoJE=F BraDBF=F KetDBF=F FulRan=T
         wScrn=  0.000000 ICntrl=       600 IOpCl=  0 I1Cent=           0 NGrid=           0
         NMat0=    1 NMatS0=    300 NMatT0=    0 NMatD0=    1 NMtDS0=    0 NMtDT0=    0
 Petite list used in FoFCou.
 Closed shell SCF:
 Using DIIS extrapolation, IDIIS=  1040.
 NGot=   536870912 LenX=   536859760 LenY=   536858743
 Requested convergence on RMS density matrix=1.00D-08 within 128 cycles.
 Requested convergence on MAX density matrix=1.00D-06.
 Requested convergence on             energy=1.00D-06.
 No special actions if energy rises.

 Cycle   1  Pass 1  IDiag  1:
 E= -33.5533728953568    
 DIIS: error= 6.95D-02 at cycle   1 NSaved=   1.
 NSaved= 1 IEnMin= 1 EnMin= -33.5533728953568     IErMin= 1 ErrMin= 6.95D-02
 ErrMax= 6.95D-02  0.00D+00 EMaxC= 1.00D-01 BMatC= 1.03D-01 BMatP= 1.03D-01
 IDIUse=3 WtCom= 3.05D-01 WtEn= 6.95D-01
 Coeff-Com:  0.100D+01
 Coeff-En:   0.100D+01
 Coeff:      0.100D+01
 Gap=     0.603 Goal=   None    Shift=    0.000
 GapD=    0.603 DampG=2.000 DampE=0.500 DampFc=1.0000 IDamp=-1.
 RMSDP=1.50D-02 MaxDP=1.18D-01              OVMax= 1.01D-01

 Cycle   2  Pass 1  IDiag  1:
 E= -33.6171641562034     Delta-E=       -0.063791260847 Rises=F Damp=F
 DIIS: error= 3.77D-02 at cycle   2 NSaved=   2.
 NSaved= 2 IEnMin= 2 EnMin= -33.6171641562034     IErMin= 2 ErrMin= 3.77D-02
 ErrMax= 3.77D-02  0.00D+00 EMaxC= 1.00D-01 BMatC= 3.88D-02 BMatP= 1.03D-01
 IDIUse=3 WtCom= 6.23D-01 WtEn= 3.77D-01
 Coeff-Com:  0.378D+00 0.622D+00
 Coeff-En:   0.108D+00 0.892D+00
 Coeff:      0.276D+00 0.724D+00
 Gap=     0.707 Goal=   None    Shift=    0.000
 RMSDP=6.47D-03 MaxDP=5.48D-02 DE=-6.38D-02 OVMax= 3.62D-02

 Cycle   3  Pass 1  IDiag  1:
 E= -33.6481760190390     Delta-E=       -0.031011862836 Rises=F Damp=F
 DIIS: error= 7.36D-03 at cycle   3 NSaved=   3.
 NSaved= 3 IEnMin= 3 EnMin= -33.6481760190390     IErMin= 3 ErrMin= 7.36D-03
 ErrMax= 7.36D-03  0.00D+00 EMaxC= 1.00D-01 BMatC= 9.44D-04 BMatP= 3.88D-02
 IDIUse=3 WtCom= 9.26D-01 WtEn= 7.36D-02
 Coeff-Com: -0.115D+00-0.141D-01 0.113D+01
 Coeff-En:   0.000D+00 0.000D+00 0.100D+01
 Coeff:     -0.106D+00-0.131D-01 0.112D+01
 Gap=     0.699 Goal=   None    Shift=    0.000
 RMSDP=1.13D-03 MaxDP=9.50D-03 DE=-3.10D-02 OVMax= 8.32D-03

 Cycle   4  Pass 1  IDiag  1:
 E= -33.6491230278342     Delta-E=       -0.000947008795 Rises=F Damp=F
 DIIS: error= 7.83D-04 at cycle   4 NSaved=   4.
 NSaved= 4 IEnMin= 4 EnMin= -33.6491230278342     IErMin= 4 ErrMin= 7.83D-04
 ErrMax= 7.83D-04  0.00D+00 EMaxC= 1.00D-01 BMatC= 6.33D-06 BMatP= 9.44D-04
 IDIUse=3 WtCom= 9.92D-01 WtEn= 7.83D-03
 Coeff-Com:  0.435D-01-0.186D-01-0.516D+00 0.149D+01
 Coeff-En:   0.000D+00 0.000D+00 0.000D+00 0.100D+01
 Coeff:      0.431D-01-0.184D-01-0.512D+00 0.149D+01
 Gap=     0.701 Goal=   None    Shift=    0.000
 RMSDP=2.40D-04 MaxDP=2.07D-03 DE=-9.47D-04 OVMax= 9.77D-04

 Cycle   5  Pass 1  IDiag  1:
 E= -33.6491368257264     Delta-E=       -0.000013797892 Rises=F Damp=F
 DIIS: error= 5.40D-05 at cycle   5 NSaved=   5.
 NSaved= 5 IEnMin= 5 EnMin= -33.6491368257264     IErMin= 5 ErrMin= 5.40D-05
 ErrMax= 5.40D-05  0.00D+00 EMaxC= 1.00D-01 BMatC= 4.52D-08 BMatP= 6.33D-06
 IDIUse=1 WtCom= 1.00D+00 WtEn= 0.00D+00
 Coeff-Com: -0.724D-02 0.343D-02 0.865D-01-0.302D+00 0.122D+01
 Coeff:     -0.724D-02 0.343D-02 0.865D-01-0.302D+00 0.122D+01
 Gap=     0.701 Goal=   None    Shift=    0.000
 RMSDP=1.71D-05 MaxDP=1.63D-04 DE=-1.38D-05 OVMax= 1.12D-04

 Cycle   6  Pass 1  IDiag  1:
 E= -33.6491369390241     Delta-E=       -0.000000113298 Rises=F Damp=F
 DIIS: error= 1.16D-05 at cycle   6 NSaved=   6.
 NSaved= 6 IEnMin= 6 EnMin= -33.6491369390241     IErMin= 6 ErrMin= 1.16D-05
 ErrMax= 1.16D-05  0.00D+00 EMaxC= 1.00D-01 BMatC= 2.47D-09 BMatP= 4.52D-08
 IDIUse=1 WtCom= 1.00D+00 WtEn= 0.00D+00
 Coeff-Com:  0.132D-02-0.486D-03-0.151D-01 0.601D-01-0.420D+00 0.137D+01
 Coeff:      0.132D-02-0.486D-03-0.151D-01 0.601D-01-0.420D+00 0.137D+01
 Gap=     0.701 Goal=   None    Shift=    0.000
 RMSDP=4.20D-06 MaxDP=4.19D-05 DE=-1.13D-07 OVMax= 3.61D-05

 Cycle   7  Pass 1  IDiag  1:
 E= -33.6491369458675     Delta-E=       -0.000000006843 Rises=F Damp=F
 DIIS: error= 2.22D-06 at cycle   7 NSaved=   7.
 NSaved= 7 IEnMin= 7 EnMin= -33.6491369458675     IErMin= 7 ErrMin= 2.22D-06
 ErrMax= 2.22D-06  0.00D+00 EMaxC= 1.00D-01 BMatC= 1.03D-10 BMatP= 2.47D-09
 IDIUse=1 WtCom= 1.00D+00 WtEn= 0.00D+00
 Coeff-Com:  0.300D-04-0.818D-04-0.622D-03-0.897D-03 0.745D-01-0.447D+00
 Coeff-Com:  0.137D+01
 Coeff:      0.300D-04-0.818D-04-0.622D-03-0.897D-03 0.745D-01-0.447D+00
 Coeff:      0.137D+01
 Gap=     0.701 Goal=   None    Shift=    0.000
 RMSDP=1.14D-06 MaxDP=8.20D-06 DE=-6.84D-09 OVMax= 8.58D-06

 Cycle   8  Pass 1  IDiag  1:
 E= -33.6491369461685     Delta-E=       -0.000000000301 Rises=F Damp=F
 DIIS: error= 3.59D-07 at cycle   8 NSaved=   8.
 NSaved= 8 IEnMin= 8 EnMin= -33.6491369461685     IErMin= 8 ErrMin= 3.59D-07
 ErrMax= 3.59D-07  0.00D+00 EMaxC= 1.00D-01 BMatC= 2.84D-12 BMatP= 1.03D-10
 IDIUse=1 WtCom= 1.00D+00 WtEn= 0.00D+00
 Coeff-Com:  0.554D-05 0.230D-04 0.554D-04 0.972D-03-0.321D-01 0.188D+00
 Coeff-Com: -0.636D+00 0.148D+01
 Coeff:      0.554D-05 0.230D-04 0.554D-04 0.972D-03-0.321D-01 0.188D+00
 Coeff:     -0.636D+00 0.148D+01
 Gap=     0.701 Goal=   None    Shift=    0.000
 RMSDP=2.54D-07 MaxDP=1.17D-06 DE=-3.01D-10 OVMax= 1.70D-06

 Cycle   9  Pass 1  IDiag  1:
 E= -33.6491369461764     Delta-E=       -0.000000000008 Rises=F Damp=F
 DIIS: error= 1.92D-08 at cycle   9 NSaved=   9.
 NSaved= 9 IEnMin= 9 EnMin= -33.6491369461764     IErMin= 9 ErrMin= 1.92D-08
 ErrMax= 1.92D-08  0.00D+00 EMaxC= 1.00D-01 BMatC= 1.17D-14 BMatP= 2.84D-12
 IDIUse=1 WtCom= 1.00D+00 WtEn= 0.00D+00
 Coeff-Com:  0.492D-06-0.585D-05-0.342D-04-0.155D-03 0.729D-02-0.439D-01
 Coeff-Com:  0.150D+00-0.400D+00 0.129D+01
 Coeff:      0.492D-06-0.585D-05-0.342D-04-0.155D-03 0.729D-02-0.439D-01
 Coeff:      0.150D+00-0.400D+00 0.129D+01
 Gap=     0.701 Goal=   None    Shift=    0.000
 RMSDP=2.44D-08 MaxDP=1.12D-07 DE=-7.94D-12 OVMax= 1.40D-07

 Cycle  10  Pass 1  IDiag  1:
 E= -33.6491369461764     Delta-E=        0.000000000000 Rises=F Damp=F
 DIIS: error= 8.01D-10 at cycle  10 NSaved=  10.
 NSaved=10 IEnMin= 9 EnMin= -33.6491369461764     IErMin=10 ErrMin= 8.01D-10
 ErrMax= 8.01D-10  0.00D+00 EMaxC= 1.00D-01 BMatC= 1.99D-17 BMatP= 1.17D-14
 IDIUse=1 WtCom= 1.00D+00 WtEn= 0.00D+00
 Coeff-Com: -0.200D-06 0.895D-06 0.650D-05 0.192D-04-0.110D-02 0.669D-02
 Coeff-Com: -0.231D-01 0.628D-01-0.221D+00 0.118D+01
 Coeff:     -0.200D-06 0.895D-06 0.650D-05 0.192D-04-0.110D-02 0.669D-02
 Coeff:     -0.231D-01 0.628D-01-0.221D+00 0.118D+01
 Gap=     0.701 Goal=   None    Shift=    0.000
 RMSDP=4.83D-10 MaxDP=2.24D-09 DE= 1.42D-14 OVMax= 1.98D-09

 SCF Done:  E(RHF) =  -33.6491369462     A.U. after   10 cycles
            NFock= 10  Conv=0.48D-09     -V/T= 2.2570
 KE= 2.676868205707D+01 PE=-1.221010682911D+02 EE= 4.150524942304D+01
 Leave Link  502 at Sun Dec 10 06:34:49 2023, MaxMem=   536870912 cpu:               0.3 elap:               0.1
 (Enter /usr/site/hpc/x86_64/glibc-2.17/broadwell/gaussian/g16_a.03/pgi-16.5/g16/l801.exe)
 Windowed orbitals will be sorted by symmetry type.
 Range of M.O.s used for correlation:     1    24
 NBasis=    24 NAE=     8 NBE=     8 NFC=     0 NFV=     0
 NROrb=     24 NOA=     8 NOB=     8 NVA=    16 NVB=    16
 Leave Link  801 at Sun Dec 10 06:34:49 2023, MaxMem=   536870912 cpu:               0.1 elap:               0.0
 (Enter /usr/site/hpc/x86_64/glibc-2.17/broadwell/gaussian/g16_a.03/pgi-16.5/g16/l804.exe)
 Closed-shell transformation, MDV=   536870912 ITran=4 ISComp=2.
 Unit  1 TFree=       1025246 TCopy=        210600.
 Semi-Direct transformation.
 ModeAB=           4 MOrb=             8 LenV=     536741286
 LASXX=         5694 LTotXX=        5694 LenRXX=       12406
 LTotAB=        6712 MaxLAS=       25728 LenRXY=           0
 NonZer=       18100 LenScr=      524288 LnRSAI=       25728
 LnScr1=      524288 LExtra=           0 Total=      1086710
 MaxDsk=          -1 SrtSym=           T ITran=            4
 DoSDTr:  NPSUse=  4
 JobTyp=0 Pass  1:  I=   1 to   8.
 (rs|ai) integrals will be sorted in core.
 Complete sort for first half transformation.
 First half transformation complete.
 Complete sort for second half transformation.
 Second half transformation complete.
 Spin components of T(2) and E(2):
     alpha-alpha T2 =       0.9076083766D-02 E2=     -0.2589282314D-01
     alpha-beta  T2 =       0.6006106088D-01 E2=     -0.1767448793D+00
     beta-beta   T2 =       0.9076083766D-02 E2=     -0.2589282314D-01
 ANorm=    0.1038370468D+01
 E2 =    -0.2285305256D+00 EUMP2 =    -0.33877667471740D+02
 Leave Link  804 at Sun Dec 10 06:34:49 2023, MaxMem=   536870912 cpu:               0.2 elap:               0.1
 (Enter /usr/site/hpc/x86_64/glibc-2.17/broadwell/gaussian/g16_a.03/pgi-16.5/g16/l913.exe)
 CIDS:  MDV=   536870912.
 IFCWin=0 IBDFC=1 NFBD=     0     0 NFCmp=     0     0 NFFFC=     0     0
 Using DD3R+UMP44R for 1st iteration.
 Using DD4RQ for 2nd and later iterations.
 Keep R2 and R3 ints in memory in symmetry-blocked form, NReq=855871.
 FoFCou: FMM=F IPFlag=           0 FMFlag=           0 FMFlg1=           0
         NFxFlg=           0 DoJE=F BraDBF=F KetDBF=F FulRan=T
         wScrn=  0.000000 ICntrl=       600 IOpCl=  0 I1Cent=           0 NGrid=           0
         NMat0=    1 NMatS0=    300 NMatT0=    0 NMatD0=    1 NMtDS0=    0 NMtDT0=    0
 Petite list used in FoFCou.
 CIDS: In Core Option IDoMem=           1.
 CCSD(T)
 =======
 Iterations=  50 Convergence= 0.100D-06
 Produce multiple copies of IABC intergrals
 Iteration Nr.   1
 **********************
 DD1Dir will call FoFMem   1 times, MxPair=        72
 NAB=    36 NAA=     0 NBB=     0.
 MP4(R+Q)= -0.72747445D-03
 Maximum subspace dimension=  5
 A-vector RMS=  5.7778070D-03 Max=  1.3246923D-02 conv= 1.00D-05.
 RLE energy=       -0.2346318115
 E3=       -0.54900854D-02        EUMP3=      -0.33883157557D+02
 E4(DQ)=   -0.59211193D-02        UMP4(DQ)=   -0.33889078676D+02
 E4(SDQ)=  -0.79562833D-02        UMP4(SDQ)=  -0.33891113840D+02
 VARIATIONAL ENERGIES WITH THE FIRST-ORDER WAVEFUNCTION:
 DE(Corr)= -0.23447350     E(Corr)=     -33.883610442    
 NORM(A)=   0.10418362D+01
 Iteration Nr.   2
 **********************
 DD1Dir will call FoFMem   1 times, MxPair=        72
 NAB=    36 NAA=     0 NBB=     0.
 A-vector RMS=  9.8738381D-04 Max=  2.1017334D-03 conv= 1.00D-05.
 RLE energy=       -0.2424383812
 DE(Corr)= -0.24048696     E(CORR)=     -33.889623910     Delta=-6.01D-03
 NORM(A)=   0.10456583D+01
 Iteration Nr.   3
 **********************
 DD1Dir will call FoFMem   1 times, MxPair=        72
 NAB=    36 NAA=     0 NBB=     0.
 A-vector RMS=  3.9176446D-04 Max=  1.2094556D-03 conv= 1.00D-05.
 RLE energy=       -0.2429910809
 DE(Corr)= -0.24254025     E(CORR)=     -33.891677192     Delta=-2.05D-03
 NORM(A)=   0.10462275D+01
 Iteration Nr.   4
 **********************
 DD1Dir will call FoFMem   1 times, MxPair=        72
 NAB=    36 NAA=     0 NBB=     0.
 A-vector RMS=  9.5060546D-05 Max=  2.6542211D-04 conv= 1.00D-05.
 RLE energy=       -0.2430387875
 DE(Corr)= -0.24300225     E(CORR)=     -33.892139193     Delta=-4.62D-04
 NORM(A)=   0.10463045D+01
 Iteration Nr.   5
 **********************
 DD1Dir will call FoFMem   1 times, MxPair=        72
 NAB=    36 NAA=     0 NBB=     0.
 A-vector RMS=  4.3066448D-05 Max=  1.6096639D-04 conv= 1.00D-05.
 RLE energy=       -0.2430369668
 DE(Corr)= -0.24303486     E(CORR)=     -33.892171801     Delta=-3.26D-05
 NORM(A)=   0.10463160D+01
 Iteration Nr.   6
 **********************
 DD1Dir will call FoFMem   1 times, MxPair=        72
 NAB=    36 NAA=     0 NBB=     0.
 A-vector RMS=  1.1704821D-05 Max=  4.3838744D-05 conv= 1.00D-05.
 RLE energy=       -0.2430360433
 DE(Corr)= -0.24303710     E(CORR)=     -33.892174045     Delta=-2.24D-06
 NORM(A)=   0.10463197D+01
 Iteration Nr.   7
 **********************
 DD1Dir will call FoFMem   1 times, MxPair=        72
 NAB=    36 NAA=     0 NBB=     0.
 A-vector RMS=  3.4131226D-06 Max=  1.3372855D-05 conv= 1.00D-05.
 RLE energy=       -0.2430369844
 DE(Corr)= -0.24303644     E(CORR)=     -33.892173386     Delta= 6.58D-07
 NORM(A)=   0.10463212D+01
 Iteration Nr.   8
 **********************
 DD1Dir will call FoFMem   1 times, MxPair=        72
 NAB=    36 NAA=     0 NBB=     0.
 A-vector RMS=  5.9946885D-07 Max=  2.4663234D-06 conv= 1.00D-05.
 RLE energy=       -0.2430364802
 DE(Corr)= -0.24303649     E(CORR)=     -33.892173437     Delta=-5.10D-08
 NORM(A)=   0.10463213D+01
 CI/CC converged in    8 iterations to DelEn=-5.10D-08 Conv= 1.00D-07 ErrA1= 5.99D-07 Conv= 1.00D-05
 Wavefunction amplitudes converged. E(Corr)=     -33.892173437    
 Largest amplitude= 2.93D-02
 IPart=  2 IA=    2   12.50% done.
 IPart=  4 IA=    3   24.17% done.
 IPart=  3 IA=    4   35.00% done.
 IPart=  4 IA=    5   45.00% done.
 IPart=  3 IA=    6   54.17% done.
 IPart=  2 IA=    7   62.50% done.
 IPart=  1 IA=    8   70.00% done.
 IPart=  3 IA=   10   82.50% done.
 IPart=  1 IA=   12   91.67% done.
 Time for triples=        1.06 seconds.
 T4(CCSD)= -0.30990863D-02
 T5(CCSD)=  0.52824459D-03
 CCSD(T)= -0.33894744279D+02
 Discarding MO integrals.
 Leave Link  913 at Sun Dec 10 06:34:50 2023, MaxMem=   536870912 cpu:               1.6 elap:               0.4
 (Enter /usr/site/hpc/x86_64/glibc-2.17/broadwell/gaussian/g16_a.03/pgi-16.5/g16/l601.exe)
 Copying SCF densities to generalized density rwf, IOpCl= 0 IROHF=0.

 **********************************************************************

            Population analysis using the SCF density.

 **********************************************************************

 Orbital symmetries:
       Occupied  (AG) (B1U) (B2U) (B3G) (AG) (B1U) (B3U) (B2G)
       Virtual   (AG) (B1U) (B2U) (B3G) (B3U) (B2G) (AG) (B1U)
                 (B2U) (B3G) (AG) (B1U) (B2U) (B3G) (B1U) (AG)
 The electronic state is 1-AG.
 Alpha  occ. eigenvalues --   -1.34578  -1.34577  -0.70202  -0.70200  -0.54195
 Alpha  occ. eigenvalues --   -0.54123  -0.49113  -0.49106
 Alpha virt. eigenvalues --    0.20987   0.21112   0.31263   0.31290   0.81391
 Alpha virt. eigenvalues --    0.81492   0.83772   0.85742   0.87606   0.87841
 Alpha virt. eigenvalues --    1.18213   1.18213   1.22677   1.22712   2.58292
 Alpha virt. eigenvalues --    2.58297
          Condensed to atoms (all electrons):
               1          2          3          4          5          6
     1  O    6.208737   0.261553   0.261553   0.000005   0.000000   0.000000
     2  H    0.261553   0.396298  -0.023775   0.000000  -0.000000  -0.000000
     3  H    0.261553  -0.023775   0.396298   0.000000  -0.000000  -0.000000
     4  O    0.000005   0.000000   0.000000   6.208737   0.261553   0.261553
     5  H    0.000000  -0.000000  -0.000000   0.261553   0.396298  -0.023775
     6  H    0.000000  -0.000000  -0.000000   0.261553  -0.023775   0.396298
 Mulliken charges:
               1
     1  O   -0.731848
     2  H    0.365924
     3  H    0.365924
     4  O   -0.731848
     5  H    0.365924
     6  H    0.365924
 Sum of Mulliken charges =  -0.00000
 Mulliken charges with hydrogens summed into heavy atoms:
               1
     1  O   -0.000000
     4  O   -0.000000
 Electronic spatial extent (au):  <R**2>=            396.5614
 Charge=             -0.0000 electrons
 Dipole moment (field-independent basis, Debye):
    X=             -0.0000    Y=              0.0000    Z=              0.0000  Tot=              0.0000
 Quadrupole moment (field-independent basis, Debye-Ang):
   XX=            -14.9853   YY=             -8.0614   ZZ=             13.6373
   XY=              0.0000   XZ=              0.0000   YZ=             -0.0000
 Traceless Quadrupole moment (field-independent basis, Debye-Ang):
   XX=            -11.8488   YY=             -4.9249   ZZ=             16.7737
   XY=              0.0000   XZ=              0.0000   YZ=             -0.0000
 Octapole moment (field-independent basis, Debye-Ang**2):
  XXX=             -0.0000  YYY=              0.0000  ZZZ=              0.0000  XYY=             -0.0000
  XXY=             -0.0000  XXZ=              0.0000  XZZ=             -0.0000  YZZ=              0.0000
  YYZ=              0.0000  XYZ=             -0.0000
 Hexadecapole moment (field-independent basis, Debye-Ang**3):
 XXXX=            -12.2153 YYYY=            -12.0523 ZZZZ=           -138.3458 XXXY=             -0.0000
 XXXZ=              0.0000 YYYX=              0.0000 YYYZ=             -0.0000 ZZZX=              0.0000
 ZZZY=             -0.0000 XXYY=             -4.6244 XXZZ=            -96.1914 YYZZ=            -41.7072
 XXYZ=              0.0000 YYXZ=              0.0000 ZZXY=              0.0000
 N-N= 2.017799986481D+01 E-N=-1.221010683083D+02  KE= 2.676868205707D+01
 Symmetry AG   KE= 5.529145925649D+00
 Symmetry B1G  KE= 0.000000000000D+00
 Symmetry B2G  KE= 4.444106260343D+00
 Symmetry B3G  KE= 3.405326072690D+00
 Symmetry AU   KE= 0.000000000000D+00
 Symmetry B1U  KE= 5.542459149077D+00
 Symmetry B2U  KE= 3.405015448190D+00
 Symmetry B3U  KE= 4.442629201121D+00
 Leave Link  601 at Sun Dec 10 06:34:50 2023, MaxMem=   536870912 cpu:               0.1 elap:               0.0
 (Enter /usr/site/hpc/x86_64/glibc-2.17/broadwell/gaussian/g16_a.03/pgi-16.5/g16/l9999.exe)
 1\1\GINC-N045\SP\RCCSD(T)-FC\CEP-31G\H4O2\ROOT\10-Dec-2023\0\\#p CCSD(
 T)/CEP-31G\\H2O_H2O_3050\\0,1\O,0,0.,-0.009833,0.\H,0,-0.799571,-0.580
 965,0.\H,0,0.799571,-0.580965,0.\O,0,0.,4.841567,0.\H,0,0.799571,5.412
 699,0.\H,0,-0.799571,5.412699,0.\\Version=ES64L-G16RevA.03\State=1-AG\
 HF=-33.6491369\MP2=-33.8776675\MP3=-33.8831576\MP4D=-33.8883512\MP4DQ=
 -33.8890787\MP4SDQ=-33.8911138\CCSD=-33.8921734\CCSD(T)=-33.8947443\RM
 SD=4.826e-10\PG=D02H [C2"(O1.O1),SG(H4)]\\@


 SOME THINGS ARE EASY, THEY ARE ONLY HARD TO DO.
            -- A. EINSTEIN TO J. O. HIRSCHFELDER
 THE ONLY TROUBLE WITH A SURE THING IS THE UNCERTAINTY.
     -- FROM A TEABAG (BELONGING TO W.H.?)
 Job cpu time:       0 days  0 hours  0 minutes  4.0 seconds.
 Elapsed time:       0 days  0 hours  0 minutes  1.2 seconds.
 File lengths (MBytes):  RWF=     72 Int=      0 D2E=      0 Chk=      8 Scr=      8
 Normal termination of Gaussian 16 at Sun Dec 10 06:34:50 2023.
