 Entering Gaussian System, Link 0=g16
 Input=H2O_H2O_1862.com
 Output=H2O_H2O_1862.log
 Initial command:
 /usr/site/hpc/x86_64/glibc-2.17/broadwell/gaussian/g16_a.03/pgi-16.5/g16/l1.exe "/gpfs/gpfs1/scratch/c7441090/OO Coord/Gau-1325288.inp" -scrdir="/gpfs/gpfs1/scratch/c7441090/OO Coord/"
 Entering Link 1 = /usr/site/hpc/x86_64/glibc-2.17/broadwell/gaussian/g16_a.03/pgi-16.5/g16/l1.exe PID=   1325289.
  
 Copyright (c) 1988,1990,1992,1993,1995,1998,2003,2009,2016,
            Gaussian, Inc.  All Rights Reserved.
  
 This is part of the Gaussian(R) 16 program.  It is based on
 the Gaussian(R) 09 system (copyright 2009, Gaussian, Inc.),
 the Gaussian(R) 03 system (copyright 2003, Gaussian, Inc.),
 the Gaussian(R) 98 system (copyright 1998, Gaussian, Inc.),
 the Gaussian(R) 94 system (copyright 1995, Gaussian, Inc.),
 the Gaussian 92(TM) system (copyright 1992, Gaussian, Inc.),
 the Gaussian 90(TM) system (copyright 1990, Gaussian, Inc.),
 the Gaussian 88(TM) system (copyright 1988, Gaussian, Inc.),
 the Gaussian 86(TM) system (copyright 1986, Carnegie Mellon
 University), and the Gaussian 82(TM) system (copyright 1983,
 Carnegie Mellon University). Gaussian is a federally registered
 trademark of Gaussian, Inc.
  
 This software contains proprietary and confidential information,
 including trade secrets, belonging to Gaussian, Inc.
  
 This software is provided under written license and may be
 used, copied, transmitted, or stored only in accord with that
 written license.
  
 The following legend is applicable only to US Government
 contracts under FAR:
  
                    RESTRICTED RIGHTS LEGEND
  
 Use, reproduction and disclosure by the US Government is
 subject to restrictions as set forth in subparagraphs (a)
 and (c) of the Commercial Computer Software - Restricted
 Rights clause in FAR 52.227-19.
  
 Gaussian, Inc.
 340 Quinnipiac St., Bldg. 40, Wallingford CT 06492
  
  
 ---------------------------------------------------------------
 Warning -- This program may not be used in any manner that
 competes with the business of Gaussian, Inc. or will provide
 assistance to any competitor of Gaussian, Inc.  The licensee
 of this program is prohibited from giving any competitor of
 Gaussian, Inc. access to this program.  By using this program,
 the user acknowledges that Gaussian, Inc. is engaged in the
 business of creating and licensing software in the field of
 computational chemistry and represents and warrants to the
 licensee that it is not a competitor of Gaussian, Inc. and that
 it will not use this program in any manner prohibited above.
 ---------------------------------------------------------------
  

 Cite this work as:
 Gaussian 16, Revision A.03,
 M. J. Frisch, G. W. Trucks, H. B. Schlegel, G. E. Scuseria, 
 M. A. Robb, J. R. Cheeseman, G. Scalmani, V. Barone, 
 G. A. Petersson, H. Nakatsuji, X. Li, M. Caricato, A. V. Marenich, 
 J. Bloino, B. G. Janesko, R. Gomperts, B. Mennucci, H. P. Hratchian, 
 J. V. Ortiz, A. F. Izmaylov, J. L. Sonnenberg, D. Williams-Young, 
 F. Ding, F. Lipparini, F. Egidi, J. Goings, B. Peng, A. Petrone, 
 T. Henderson, D. Ranasinghe, V. G. Zakrzewski, J. Gao, N. Rega, 
 G. Zheng, W. Liang, M. Hada, M. Ehara, K. Toyota, R. Fukuda, 
 J. Hasegawa, M. Ishida, T. Nakajima, Y. Honda, O. Kitao, H. Nakai, 
 T. Vreven, K. Throssell, J. A. Montgomery, Jr., J. E. Peralta, 
 F. Ogliaro, M. J. Bearpark, J. J. Heyd, E. N. Brothers, K. N. Kudin, 
 V. N. Staroverov, T. A. Keith, R. Kobayashi, J. Normand, 
 K. Raghavachari, A. P. Rendell, J. C. Burant, S. S. Iyengar, 
 J. Tomasi, M. Cossi, J. M. Millam, M. Klene, C. Adamo, R. Cammi, 
 J. W. Ochterski, R. L. Martin, K. Morokuma, O. Farkas, 
 J. B. Foresman, and D. J. Fox, Gaussian, Inc., Wallingford CT, 2016.
 
 ******************************************
 Gaussian 16:  ES64L-G16RevA.03 25-Dec-2016
                10-Dec-2023 
 ******************************************
 %NProcShared=4
 Will use up to    4 processors via shared memory.
 %Mem=4GB
 %Chk=H2O_H2O_1862.chk
 ------------------
 #p CCSD(T)/CEP-31G
 ------------------
 1/38=1,172=1/1;
 2/12=2,17=6,18=5,40=1/2;
 3/5=9,6=1,11=9,25=1,30=1/1,2,3;
 4//1;
 5/5=2,38=5/2;
 8/6=4,9=120000,10=1/1,4;
 9/5=7,14=2/13;
 6/7=2,8=2,9=2,10=2/1;
 99/5=1,9=1/99;
 Leave Link    1 at Sun Dec 10 06:59:27 2023, MaxMem=   536870912 cpu:               0.2 elap:               0.1
 (Enter /usr/site/hpc/x86_64/glibc-2.17/broadwell/gaussian/g16_a.03/pgi-16.5/g16/l101.exe)
 ------------
 H2O_H2O_1862
 ------------
 Symbolic Z-matrix:
 Charge =  0 Multiplicity = 1
 O                     0.       -0.00983   0. 
 H                    -0.79957  -0.58097   0. 
 H                     0.79957  -0.58097   0. 
 O                    -0.00695   3.56228   0. 
 H                     0.15458   4.53151   0. 
 H                    -0.97619   3.40075   0. 
 
 ITRead=  0  0  0  0  0  0
 MicOpt= -1 -1 -1 -1 -1 -1
 NAtoms=      6 NQM=        6 NQMF=       0 NMMI=      0 NMMIF=      0
                NMic=       0 NMicF=      0.
                    Isotopes and Nuclear Properties:
 (Nuclear quadrupole moments (NQMom) in fm**2, nuclear magnetic moments (NMagM)
  in nuclear magnetons)

  Atom         1           2           3           4           5           6
 IAtWgt=          16           1           1          16           1           1
 AtmWgt=  15.9949146   1.0078250   1.0078250  15.9949146   1.0078250   1.0078250
 NucSpn=           0           1           1           0           1           1
 AtZEff=  -0.0000000  -0.0000000  -0.0000000  -0.0000000  -0.0000000  -0.0000000
 NQMom=    0.0000000   0.0000000   0.0000000   0.0000000   0.0000000   0.0000000
 NMagM=    0.0000000   2.7928460   2.7928460   0.0000000   2.7928460   2.7928460
 AtZNuc=   8.0000000   1.0000000   1.0000000   8.0000000   1.0000000   1.0000000
 Leave Link  101 at Sun Dec 10 06:59:27 2023, MaxMem=   536870912 cpu:               0.3 elap:               0.1
 (Enter /usr/site/hpc/x86_64/glibc-2.17/broadwell/gaussian/g16_a.03/pgi-16.5/g16/l202.exe)
                          Input orientation:                          
 ---------------------------------------------------------------------
 Center     Atomic      Atomic             Coordinates (Angstroms)
 Number     Number       Type             X           Y           Z
 ---------------------------------------------------------------------
      1          8           0        0.000000   -0.009833    0.000000
      2          1           0       -0.799571   -0.580965    0.000000
      3          1           0        0.799571   -0.580965    0.000000
      4          8           0       -0.006953    3.562279    0.000000
      5          1           0        0.154578    4.531513    0.000000
      6          1           0       -0.976187    3.400748    0.000000
 ---------------------------------------------------------------------
                    Distance matrix (angstroms):
                    1          2          3          4          5
     1  O    0.000000
     2  H    0.982601   0.000000
     3  H    0.982601   1.599142   0.000000
     4  O    3.572119   4.218378   4.221013   0.000000
     5  H    4.543976   5.200753   5.153004   0.982602   0.000000
     6  H    3.547535   3.985628   4.359743   0.982602   1.599143
                    6
     6  H    0.000000
 Stoichiometry    H4O2
 Framework group  CS[SG(H4O2)]
 Deg. of freedom     9
 Full point group                 CS      NOp   2
 Largest Abelian subgroup         CS      NOp   2
 Largest concise Abelian subgroup C1      NOp   1
                         Standard orientation:                         
 ---------------------------------------------------------------------
 Center     Atomic      Atomic             Coordinates (Angstroms)
 Number     Number       Type             X           Y           Z
 ---------------------------------------------------------------------
      1          8           0        0.040418   -1.769410    0.000000
      2          1           0       -0.760264   -2.338985    0.000000
      3          1           0        0.838875   -2.342097    0.000000
      4          8           0        0.040418    1.802709    0.000000
      5          1           0        0.203835    2.771627    0.000000
      6          1           0       -0.929129    1.643065    0.000000
 ---------------------------------------------------------------------
 Rotational constants (GHZ):         226.2440435           4.0898105           4.0171917
 Leave Link  202 at Sun Dec 10 06:59:27 2023, MaxMem=   536870912 cpu:               0.1 elap:               0.0
 (Enter /usr/site/hpc/x86_64/glibc-2.17/broadwell/gaussian/g16_a.03/pgi-16.5/g16/l301.exe)
 Standard basis: CEP-31G (6D, 10F)
 Ernie: Thresh=  0.10000D-02 Tol=  0.10000D-05 Strict=F.
 There are    20 symmetry adapted cartesian basis functions of A'  symmetry.
 There are     4 symmetry adapted cartesian basis functions of A"  symmetry.
 There are    20 symmetry adapted basis functions of A'  symmetry.
 There are     4 symmetry adapted basis functions of A"  symmetry.
    24 basis functions,    48 primitive gaussians,    24 cartesian basis functions
     8 alpha electrons        8 beta electrons
       nuclear repulsion energy        22.4772468468 Hartrees.
 IExCor=    0 DFT=F Ex=HF Corr=None ExCW=0 ScaHFX=  1.000000
 ScaDFX=  1.000000  1.000000  1.000000  1.000000 ScalE2=  1.000000  1.000000
 IRadAn=      5 IRanWt=     -1 IRanGd=            0 ICorTp=0 IEmpDi=  4
 NAtoms=    6 NActive=    6 NUniq=    6 SFac= 1.00D+00 NAtFMM=   60 NAOKFM=F Big=F
 Integral buffers will be    131072 words long.
 Raffenetti 1 integral format.
 Two-electron integral symmetry is turned on.
 Leave Link  301 at Sun Dec 10 06:59:27 2023, MaxMem=   536870912 cpu:               0.2 elap:               0.1
 (Enter /usr/site/hpc/x86_64/glibc-2.17/broadwell/gaussian/g16_a.03/pgi-16.5/g16/l302.exe)
 NPDir=0 NMtPBC=     1 NCelOv=     1 NCel=       1 NClECP=     1 NCelD=      1
         NCelK=      1 NCelE2=     1 NClLst=     1 CellRange=     0.0.
 One-electron integrals computed using PRISM.
 One-electron integral symmetry used in STVInt
   2 Symmetry operations used in ECPInt.
 ECPInt:  NShTT=      78 NPrTT=     318 LenC2=      79 LenP2D=     278.
 LDataN:  DoStor=T MaxTD1= 2 Len=   12
 NBasis=    24 RedAO= T EigKep=  3.80D-02  NBF=    20     4
 NBsUse=    24 1.00D-06 EigRej= -1.00D+00 NBFU=    20     4
 Leave Link  302 at Sun Dec 10 06:59:27 2023, MaxMem=   536870912 cpu:               0.3 elap:               0.1
 (Enter /usr/site/hpc/x86_64/glibc-2.17/broadwell/gaussian/g16_a.03/pgi-16.5/g16/l303.exe)
 DipDrv:  MaxL=1.
 Leave Link  303 at Sun Dec 10 06:59:28 2023, MaxMem=   536870912 cpu:               0.1 elap:               0.0
 (Enter /usr/site/hpc/x86_64/glibc-2.17/broadwell/gaussian/g16_a.03/pgi-16.5/g16/l401.exe)
 ExpMin= 1.78D-01 ExpMax= 1.92D+01 ExpMxC= 1.92D+01 IAcc=3 IRadAn=         5 AccDes= 0.00D+00
 Harris functional with IExCor=  205 and IRadAn=       5 diagonalized for initial guess.
 HarFok:  IExCor=  205 AccDes= 0.00D+00 IRadAn=         5 IDoV= 1 UseB2=F ITyADJ=14
 ICtDFT=  3500011 ScaDFX=  1.000000  1.000000  1.000000  1.000000
 FoFCou: FMM=F IPFlag=           0 FMFlag=      100000 FMFlg1=           0
         NFxFlg=           0 DoJE=T BraDBF=F KetDBF=T FulRan=T
         wScrn=  0.000000 ICntrl=       500 IOpCl=  0 I1Cent=   200000004 NGrid=           0
         NMat0=    1 NMatS0=      1 NMatT0=    0 NMatD0=    1 NMtDS0=    0 NMtDT0=    0
 Petite list used in FoFCou.
 Harris En= -34.4769143879975    
 JPrj=0 DoOrth=F DoCkMO=F.
 Initial guess orbital symmetries:
       Occupied  (A') (A') (A') (A') (A') (A') (A") (A")
       Virtual   (A') (A') (A') (A') (A') (A") (A") (A') (A') (A')
                 (A') (A') (A') (A') (A') (A')
 The electronic state of the initial guess is 1-A'.
 Leave Link  401 at Sun Dec 10 06:59:28 2023, MaxMem=   536870912 cpu:               0.4 elap:               0.1
 (Enter /usr/site/hpc/x86_64/glibc-2.17/broadwell/gaussian/g16_a.03/pgi-16.5/g16/l502.exe)
 Keep R1 ints in memory in symmetry-blocked form, NReq=852332.
 FoFCou: FMM=F IPFlag=           0 FMFlag=           0 FMFlg1=           0
         NFxFlg=           0 DoJE=F BraDBF=F KetDBF=F FulRan=T
         wScrn=  0.000000 ICntrl=       600 IOpCl=  0 I1Cent=           0 NGrid=           0
         NMat0=    1 NMatS0=    300 NMatT0=    0 NMatD0=    1 NMtDS0=    0 NMtDT0=    0
 Petite list used in FoFCou.
 Closed shell SCF:
 Using DIIS extrapolation, IDIIS=  1040.
 NGot=   536870912 LenX=   536840576 LenY=   536839559
 Requested convergence on RMS density matrix=1.00D-08 within 128 cycles.
 Requested convergence on MAX density matrix=1.00D-06.
 Requested convergence on             energy=1.00D-06.
 No special actions if energy rises.

 Cycle   1  Pass 1  IDiag  1:
 E= -33.5514351794591    
 DIIS: error= 6.97D-02 at cycle   1 NSaved=   1.
 NSaved= 1 IEnMin= 1 EnMin= -33.5514351794591     IErMin= 1 ErrMin= 6.97D-02
 ErrMax= 6.97D-02  0.00D+00 EMaxC= 1.00D-01 BMatC= 1.03D-01 BMatP= 1.03D-01
 IDIUse=3 WtCom= 3.03D-01 WtEn= 6.97D-01
 Coeff-Com:  0.100D+01
 Coeff-En:   0.100D+01
 Coeff:      0.100D+01
 Gap=     0.591 Goal=   None    Shift=    0.000
 GapD=    0.591 DampG=2.000 DampE=0.500 DampFc=1.0000 IDamp=-1.
 RMSDP=1.52D-02 MaxDP=1.17D-01              OVMax= 1.02D-01

 Cycle   2  Pass 1  IDiag  1:
 E= -33.6156630172941     Delta-E=       -0.064227837835 Rises=F Damp=F
 DIIS: error= 3.78D-02 at cycle   2 NSaved=   2.
 NSaved= 2 IEnMin= 2 EnMin= -33.6156630172941     IErMin= 2 ErrMin= 3.78D-02
 ErrMax= 3.78D-02  0.00D+00 EMaxC= 1.00D-01 BMatC= 3.91D-02 BMatP= 1.03D-01
 IDIUse=3 WtCom= 6.22D-01 WtEn= 3.78D-01
 Coeff-Com:  0.378D+00 0.622D+00
 Coeff-En:   0.106D+00 0.894D+00
 Coeff:      0.275D+00 0.725D+00
 Gap=     0.693 Goal=   None    Shift=    0.000
 RMSDP=6.52D-03 MaxDP=5.52D-02 DE=-6.42D-02 OVMax= 3.67D-02

 Cycle   3  Pass 1  IDiag  1:
 E= -33.6468062262495     Delta-E=       -0.031143208955 Rises=F Damp=F
 DIIS: error= 7.47D-03 at cycle   3 NSaved=   3.
 NSaved= 3 IEnMin= 3 EnMin= -33.6468062262495     IErMin= 3 ErrMin= 7.47D-03
 ErrMax= 7.47D-03  0.00D+00 EMaxC= 1.00D-01 BMatC= 9.77D-04 BMatP= 3.91D-02
 IDIUse=3 WtCom= 9.25D-01 WtEn= 7.47D-02
 Coeff-Com: -0.114D+00-0.102D-01 0.112D+01
 Coeff-En:   0.000D+00 0.000D+00 0.100D+01
 Coeff:     -0.105D+00-0.945D-02 0.111D+01
 Gap=     0.685 Goal=   None    Shift=    0.000
 RMSDP=1.17D-03 MaxDP=9.65D-03 DE=-3.11D-02 OVMax= 8.48D-03

 Cycle   4  Pass 1  IDiag  1:
 E= -33.6477871336569     Delta-E=       -0.000980907407 Rises=F Damp=F
 DIIS: error= 8.03D-04 at cycle   4 NSaved=   4.
 NSaved= 4 IEnMin= 4 EnMin= -33.6477871336569     IErMin= 4 ErrMin= 8.03D-04
 ErrMax= 8.03D-04  0.00D+00 EMaxC= 1.00D-01 BMatC= 6.70D-06 BMatP= 9.77D-04
 IDIUse=3 WtCom= 9.92D-01 WtEn= 8.03D-03
 Coeff-Com:  0.426D-01-0.202D-01-0.505D+00 0.148D+01
 Coeff-En:   0.000D+00 0.000D+00 0.000D+00 0.100D+01
 Coeff:      0.423D-01-0.200D-01-0.501D+00 0.148D+01
 Gap=     0.687 Goal=   None    Shift=    0.000
 RMSDP=2.43D-04 MaxDP=2.12D-03 DE=-9.81D-04 OVMax= 1.00D-03

 Cycle   5  Pass 1  IDiag  1:
 E= -33.6478014584354     Delta-E=       -0.000014324778 Rises=F Damp=F
 DIIS: error= 5.88D-05 at cycle   5 NSaved=   5.
 NSaved= 5 IEnMin= 5 EnMin= -33.6478014584354     IErMin= 5 ErrMin= 5.88D-05
 ErrMax= 5.88D-05  0.00D+00 EMaxC= 1.00D-01 BMatC= 5.27D-08 BMatP= 6.70D-06
 IDIUse=1 WtCom= 1.00D+00 WtEn= 0.00D+00
 Coeff-Com: -0.712D-02 0.367D-02 0.842D-01-0.303D+00 0.122D+01
 Coeff:     -0.712D-02 0.367D-02 0.842D-01-0.303D+00 0.122D+01
 Gap=     0.687 Goal=   None    Shift=    0.000
 RMSDP=1.86D-05 MaxDP=1.86D-04 DE=-1.43D-05 OVMax= 1.33D-04

 Cycle   6  Pass 1  IDiag  1:
 E= -33.6478015903369     Delta-E=       -0.000000131902 Rises=F Damp=F
 DIIS: error= 1.22D-05 at cycle   6 NSaved=   6.
 NSaved= 6 IEnMin= 6 EnMin= -33.6478015903369     IErMin= 6 ErrMin= 1.22D-05
 ErrMax= 1.22D-05  0.00D+00 EMaxC= 1.00D-01 BMatC= 3.28D-09 BMatP= 5.27D-08
 IDIUse=1 WtCom= 1.00D+00 WtEn= 0.00D+00
 Coeff-Com: -0.641D-04 0.160D-03 0.152D-02 0.338D-02-0.191D+00 0.119D+01
 Coeff:     -0.641D-04 0.160D-03 0.152D-02 0.338D-02-0.191D+00 0.119D+01
 Gap=     0.687 Goal=   None    Shift=    0.000
 RMSDP=4.04D-06 MaxDP=4.68D-05 DE=-1.32D-07 OVMax= 3.79D-05

 Cycle   7  Pass 1  IDiag  1:
 E= -33.6478015976851     Delta-E=       -0.000000007348 Rises=F Damp=F
 DIIS: error= 3.81D-06 at cycle   7 NSaved=   7.
 NSaved= 7 IEnMin= 7 EnMin= -33.6478015976851     IErMin= 7 ErrMin= 3.81D-06
 ErrMax= 3.81D-06  0.00D+00 EMaxC= 1.00D-01 BMatC= 5.76D-10 BMatP= 3.28D-09
 IDIUse=1 WtCom= 1.00D+00 WtEn= 0.00D+00
 Coeff-Com:  0.798D-03-0.371D-03-0.919D-02 0.348D-01-0.178D+00 0.294D+00
 Coeff-Com:  0.858D+00
 Coeff:      0.798D-03-0.371D-03-0.919D-02 0.348D-01-0.178D+00 0.294D+00
 Coeff:      0.858D+00
 Gap=     0.687 Goal=   None    Shift=    0.000
 RMSDP=1.32D-06 MaxDP=9.51D-06 DE=-7.35D-09 OVMax= 1.28D-05

 Cycle   8  Pass 1  IDiag  1:
 E= -33.6478015985829     Delta-E=       -0.000000000898 Rises=F Damp=F
 DIIS: error= 1.23D-06 at cycle   8 NSaved=   8.
 NSaved= 8 IEnMin= 8 EnMin= -33.6478015985829     IErMin= 8 ErrMin= 1.23D-06
 ErrMax= 1.23D-06  0.00D+00 EMaxC= 1.00D-01 BMatC= 3.34D-11 BMatP= 5.76D-10
 IDIUse=1 WtCom= 1.00D+00 WtEn= 0.00D+00
 Coeff-Com:  0.244D-05-0.348D-04-0.170D-03-0.806D-03 0.318D-01-0.153D+00
 Coeff-Com: -0.895D-01 0.121D+01
 Coeff:      0.244D-05-0.348D-04-0.170D-03-0.806D-03 0.318D-01-0.153D+00
 Coeff:     -0.895D-01 0.121D+01
 Gap=     0.687 Goal=   None    Shift=    0.000
 RMSDP=6.34D-07 MaxDP=4.07D-06 DE=-8.98D-10 OVMax= 4.60D-06

 Cycle   9  Pass 1  IDiag  1:
 E= -33.6478015986677     Delta-E=       -0.000000000085 Rises=F Damp=F
 DIIS: error= 2.21D-07 at cycle   9 NSaved=   9.
 NSaved= 9 IEnMin= 9 EnMin= -33.6478015986677     IErMin= 9 ErrMin= 2.21D-07
 ErrMax= 2.21D-07  0.00D+00 EMaxC= 1.00D-01 BMatC= 9.54D-13 BMatP= 3.34D-11
 IDIUse=1 WtCom= 1.00D+00 WtEn= 0.00D+00
 Coeff-Com:  0.219D-05 0.108D-04 0.350D-04 0.340D-03-0.115D-01 0.582D-01
 Coeff-Com:  0.204D-01-0.514D+00 0.145D+01
 Coeff:      0.219D-05 0.108D-04 0.350D-04 0.340D-03-0.115D-01 0.582D-01
 Coeff:      0.204D-01-0.514D+00 0.145D+01
 Gap=     0.687 Goal=   None    Shift=    0.000
 RMSDP=1.55D-07 MaxDP=7.02D-07 DE=-8.49D-11 OVMax= 1.04D-06

 Cycle  10  Pass 1  IDiag  1:
 E= -33.6478015986706     Delta-E=       -0.000000000003 Rises=F Damp=F
 DIIS: error= 9.72D-09 at cycle  10 NSaved=  10.
 NSaved=10 IEnMin=10 EnMin= -33.6478015986706     IErMin=10 ErrMin= 9.72D-09
 ErrMax= 9.72D-09  0.00D+00 EMaxC= 1.00D-01 BMatC= 3.65D-15 BMatP= 9.54D-13
 IDIUse=1 WtCom= 1.00D+00 WtEn= 0.00D+00
 Coeff-Com:  0.321D-06-0.226D-05-0.152D-04-0.314D-04 0.204D-02-0.109D-01
 Coeff-Com: -0.341D-02 0.969D-01-0.321D+00 0.124D+01
 Coeff:      0.321D-06-0.226D-05-0.152D-04-0.314D-04 0.204D-02-0.109D-01
 Coeff:     -0.341D-02 0.969D-01-0.321D+00 0.124D+01
 Gap=     0.687 Goal=   None    Shift=    0.000
 RMSDP=1.27D-08 MaxDP=6.07D-08 DE=-2.83D-12 OVMax= 7.26D-08

 Cycle  11  Pass 1  IDiag  1:
 E= -33.6478015986705     Delta-E=        0.000000000000 Rises=F Damp=F
 DIIS: error= 5.11D-10 at cycle  11 NSaved=  11.
 NSaved=11 IEnMin=10 EnMin= -33.6478015986706     IErMin=11 ErrMin= 5.11D-10
 ErrMax= 5.11D-10  0.00D+00 EMaxC= 1.00D-01 BMatC= 1.42D-17 BMatP= 3.65D-15
 IDIUse=1 WtCom= 1.00D+00 WtEn= 0.00D+00
 Coeff-Com: -0.968D-07 0.404D-06 0.309D-05 0.416D-05-0.362D-03 0.196D-02
 Coeff-Com:  0.582D-03-0.175D-01 0.591D-01-0.261D+00 0.122D+01
 Coeff:     -0.968D-07 0.404D-06 0.309D-05 0.416D-05-0.362D-03 0.196D-02
 Coeff:      0.582D-03-0.175D-01 0.591D-01-0.261D+00 0.122D+01
 Gap=     0.687 Goal=   None    Shift=    0.000
 RMSDP=5.66D-10 MaxDP=2.82D-09 DE= 2.84D-14 OVMax= 2.95D-09

 SCF Done:  E(RHF) =  -33.6478015987     A.U. after   11 cycles
            NFock= 11  Conv=0.57D-09     -V/T= 2.2572
 KE= 2.676495437134D+01 PE=-1.267727543391D+02 EE= 4.388275152229D+01
 Leave Link  502 at Sun Dec 10 06:59:28 2023, MaxMem=   536870912 cpu:               0.3 elap:               0.1
 (Enter /usr/site/hpc/x86_64/glibc-2.17/broadwell/gaussian/g16_a.03/pgi-16.5/g16/l801.exe)
 Windowed orbitals will be sorted by symmetry type.
 Range of M.O.s used for correlation:     1    24
 NBasis=    24 NAE=     8 NBE=     8 NFC=     0 NFV=     0
 NROrb=     24 NOA=     8 NOB=     8 NVA=    16 NVB=    16
 Leave Link  801 at Sun Dec 10 06:59:28 2023, MaxMem=   536870912 cpu:               0.1 elap:               0.0
 (Enter /usr/site/hpc/x86_64/glibc-2.17/broadwell/gaussian/g16_a.03/pgi-16.5/g16/l804.exe)
 Closed-shell transformation, MDV=   536870912 ITran=4 ISComp=2.
 Unit  1 TFree=       1025975 TCopy=        210600.
 Semi-Direct transformation.
 ModeAB=           2 MOrb=             8 LenV=     536742035
 LASXX=        22470 LTotXX=       22470 LenRXX=       22470
 LTotAB=       26208 MaxLAS=       57600 LenRXY=       57600
 NonZer=       61824 LenScr=      524288 LnRSAI=           0
 LnScr1=           0 LExtra=           0 Total=       604358
 MaxDsk=          -1 SrtSym=           F ITran=            4
 DoSDTr:  NPSUse=  4
 JobTyp=0 Pass  1:  I=   1 to   8.
 (rs|ai) integrals will be sorted in core.
 Complete sort for first half transformation.
 First half transformation complete.
 Complete sort for second half transformation.
 Second half transformation complete.
 Spin components of T(2) and E(2):
     alpha-alpha T2 =       0.9095610578D-02 E2=     -0.2593221326D-01
     alpha-beta  T2 =       0.6017635393D-01 E2=     -0.1769683709D+00
     beta-beta   T2 =       0.9095610578D-02 E2=     -0.2593221326D-01
 ANorm=    0.1038444787D+01
 E2 =    -0.2288327974D+00 EUMP2 =    -0.33876634396065D+02
 Leave Link  804 at Sun Dec 10 06:59:28 2023, MaxMem=   536870912 cpu:               0.2 elap:               0.1
 (Enter /usr/site/hpc/x86_64/glibc-2.17/broadwell/gaussian/g16_a.03/pgi-16.5/g16/l913.exe)
 CIDS:  MDV=   536870912.
 IFCWin=0 IBDFC=1 NFBD=     0     0 NFCmp=     0     0 NFFFC=     0     0
 Using DD3R+UMP44R for 1st iteration.
 Using DD4RQ for 2nd and later iterations.
 Keep R2 and R3 ints in memory in symmetry-blocked form, NReq=864940.
 FoFCou: FMM=F IPFlag=           0 FMFlag=           0 FMFlg1=           0
         NFxFlg=           0 DoJE=F BraDBF=F KetDBF=F FulRan=T
         wScrn=  0.000000 ICntrl=       600 IOpCl=  0 I1Cent=           0 NGrid=           0
         NMat0=    1 NMatS0=    300 NMatT0=    0 NMatD0=    1 NMtDS0=    0 NMtDT0=    0
 Petite list used in FoFCou.
 CIDS: In Core Option IDoMem=           1.
 CCSD(T)
 =======
 Iterations=  50 Convergence= 0.100D-06
 Produce multiple copies of IABC intergrals
 Iteration Nr.   1
 **********************
 DD1Dir will call FoFMem   1 times, MxPair=        72
 NAB=    36 NAA=     0 NBB=     0.
 MP4(R+Q)= -0.71415251D-03
 Maximum subspace dimension=  5
 A-vector RMS=  5.8307219D-03 Max=  1.1620156D-02 conv= 1.00D-05.
 RLE energy=       -0.2349288534
 E3=       -0.55004686D-02        EUMP3=      -0.33882134865D+02
 E4(DQ)=   -0.59278665D-02        UMP4(DQ)=   -0.33888062731D+02
 E4(SDQ)=  -0.79901276D-02        UMP4(SDQ)=  -0.33890124992D+02
 VARIATIONAL ENERGIES WITH THE FIRST-ORDER WAVEFUNCTION:
 DE(Corr)= -0.23477101     E(Corr)=     -33.882572612    
 NORM(A)=   0.10419288D+01
 Iteration Nr.   2
 **********************
 DD1Dir will call FoFMem   1 times, MxPair=        72
 NAB=    36 NAA=     0 NBB=     0.
 A-vector RMS=  9.8695714D-04 Max=  2.6274144D-03 conv= 1.00D-05.
 RLE energy=       -0.2427722572
 DE(Corr)= -0.24082176     E(CORR)=     -33.888623360     Delta=-6.05D-03
 NORM(A)=   0.10457759D+01
 Iteration Nr.   3
 **********************
 DD1Dir will call FoFMem   1 times, MxPair=        72
 NAB=    36 NAA=     0 NBB=     0.
 A-vector RMS=  3.9924466D-04 Max=  1.3099416D-03 conv= 1.00D-05.
 RLE energy=       -0.2433284242
 DE(Corr)= -0.24287264     E(CORR)=     -33.890674240     Delta=-2.05D-03
 NORM(A)=   0.10463518D+01
 Iteration Nr.   4
 **********************
 DD1Dir will call FoFMem   1 times, MxPair=        72
 NAB=    36 NAA=     0 NBB=     0.
 A-vector RMS=  9.9077842D-05 Max=  3.1140596D-04 conv= 1.00D-05.
 RLE energy=       -0.2433774931
 DE(Corr)= -0.24334037     E(CORR)=     -33.891141969     Delta=-4.68D-04
 NORM(A)=   0.10464305D+01
 Iteration Nr.   5
 **********************
 DD1Dir will call FoFMem   1 times, MxPair=        72
 NAB=    36 NAA=     0 NBB=     0.
 A-vector RMS=  4.4076196D-05 Max=  1.7218164D-04 conv= 1.00D-05.
 RLE energy=       -0.2433759442
 DE(Corr)= -0.24337352     E(CORR)=     -33.891175119     Delta=-3.31D-05
 NORM(A)=   0.10464423D+01
 Iteration Nr.   6
 **********************
 DD1Dir will call FoFMem   1 times, MxPair=        72
 NAB=    36 NAA=     0 NBB=     0.
 A-vector RMS=  1.3455147D-05 Max=  5.7223975D-05 conv= 1.00D-05.
 RLE energy=       -0.2433742152
 DE(Corr)= -0.24337593     E(CORR)=     -33.891177532     Delta=-2.41D-06
 NORM(A)=   0.10464458D+01
 Iteration Nr.   7
 **********************
 DD1Dir will call FoFMem   1 times, MxPair=        72
 NAB=    36 NAA=     0 NBB=     0.
 A-vector RMS=  4.3334000D-06 Max=  1.7912833D-05 conv= 1.00D-05.
 RLE energy=       -0.2433753286
 DE(Corr)= -0.24337528     E(CORR)=     -33.891176880     Delta= 6.52D-07
 NORM(A)=   0.10464473D+01
 Iteration Nr.   8
 **********************
 DD1Dir will call FoFMem   1 times, MxPair=        72
 NAB=    36 NAA=     0 NBB=     0.
 A-vector RMS=  1.3430288D-06 Max=  5.2335796D-06 conv= 1.00D-05.
 RLE energy=       -0.2433749829
 DE(Corr)= -0.24337512     E(CORR)=     -33.891176722     Delta= 1.58D-07
 NORM(A)=   0.10464476D+01
 Iteration Nr.   9
 **********************
 DD1Dir will call FoFMem   1 times, MxPair=        72
 NAB=    36 NAA=     0 NBB=     0.
 A-vector RMS=  3.1184882D-07 Max=  1.3919371D-06 conv= 1.00D-05.
 RLE energy=       -0.2433751527
 DE(Corr)= -0.24337518     E(CORR)=     -33.891176776     Delta=-5.39D-08
 NORM(A)=   0.10464477D+01
 CI/CC converged in    9 iterations to DelEn=-5.39D-08 Conv= 1.00D-07 ErrA1= 3.12D-07 Conv= 1.00D-05
 Wavefunction amplitudes converged. E(Corr)=     -33.891176776    
 Largest amplitude= 4.30D-02
 IPart=  2 IA=    2   12.50% done.
 IPart=  4 IA=    3   24.17% done.
 IPart=  3 IA=    4   35.00% done.
 IPart=  3 IA=    5   45.00% done.
 IPart=  4 IA=    6   54.17% done.
 IPart=  2 IA=    7   62.50% done.
 IPart=  1 IA=    8   70.00% done.
 IPart=  2 IA=   10   82.50% done.
 IPart=  4 IA=   12   91.67% done.
 Time for triples=        0.24 seconds.
 T4(CCSD)= -0.31304194D-02
 T5(CCSD)=  0.53512940D-03
 CCSD(T)= -0.33893772066D+02
 Discarding MO integrals.
 Leave Link  913 at Sun Dec 10 06:59:28 2023, MaxMem=   536870912 cpu:               0.8 elap:               0.2
 (Enter /usr/site/hpc/x86_64/glibc-2.17/broadwell/gaussian/g16_a.03/pgi-16.5/g16/l601.exe)
 Copying SCF densities to generalized density rwf, IOpCl= 0 IROHF=0.

 **********************************************************************

            Population analysis using the SCF density.

 **********************************************************************

 Orbital symmetries:
       Occupied  (A') (A') (A') (A') (A') (A') (A") (A")
       Virtual   (A') (A') (A') (A') (A') (A") (A") (A') (A') (A')
                 (A') (A') (A') (A') (A') (A')
 The electronic state is 1-A'.
 Alpha  occ. eigenvalues --   -1.34520  -1.33699  -0.70148  -0.69280  -0.54155
 Alpha  occ. eigenvalues --   -0.53054  -0.49042  -0.48216
 Alpha virt. eigenvalues --    0.20490   0.22391   0.31252   0.32058   0.76265
 Alpha virt. eigenvalues --    0.80601   0.83239   0.85568   0.89057   1.01143
 Alpha virt. eigenvalues --    1.18208   1.19364   1.22691   1.23658   2.57814
 Alpha virt. eigenvalues --    2.59768
          Condensed to atoms (all electrons):
               1          2          3          4          5          6
     1  O    6.206622   0.257257   0.263629   0.000088   0.000016   0.000192
     2  H    0.257257   0.407355  -0.023708   0.000016  -0.000000  -0.000012
     3  H    0.263629  -0.023708   0.391073   0.000014  -0.000000  -0.000004
     4  O    0.000088   0.000016   0.000014   6.204910   0.254693   0.264313
     5  H    0.000016  -0.000000  -0.000000   0.254693   0.414364  -0.024186
     6  H    0.000192  -0.000012  -0.000004   0.264313  -0.024186   0.391060
 Mulliken charges:
               1
     1  O   -0.727804
     2  H    0.359092
     3  H    0.368995
     4  O   -0.724034
     5  H    0.355114
     6  H    0.368637
 Sum of Mulliken charges =  -0.00000
 Mulliken charges with hydrogens summed into heavy atoms:
               1
     1  O    0.000283
     4  O   -0.000283
 Electronic spatial extent (au):  <R**2>=            235.1385
 Charge=              0.0000 electrons
 Dipole moment (field-independent basis, Debye):
    X=             -1.8324    Y=             -0.8170    Z=              0.0000  Tot=              2.0062
 Quadrupole moment (field-independent basis, Debye-Ang):
   XX=             -9.1264   YY=              4.8127   ZZ=            -14.9859
   XY=             -2.5828   XZ=              0.0000   YZ=              0.0000
 Traceless Quadrupole moment (field-independent basis, Debye-Ang):
   XX=             -2.6932   YY=             11.2459   ZZ=             -8.5527
   XY=             -2.5828   XZ=              0.0000   YZ=              0.0000
 Octapole moment (field-independent basis, Debye-Ang**2):
  XXX=             -1.9003  YYY=             -1.6514  ZZZ=              0.0000  XYY=             -1.8811
  XXY=             -3.3886  XXZ=              0.0000  XZZ=             -0.3397  YZZ=             -0.1601
  YYZ=              0.0000  XYZ=              0.0000
 Hexadecapole moment (field-independent basis, Debye-Ang**3):
 XXXX=            -11.9164 YYYY=           -118.8191 ZZZZ=            -12.2171 XXXY=             -1.9002
 XXXZ=              0.0000 YYYX=              0.0719 YYYZ=              0.0000 ZZZX=              0.0000
 ZZZY=              0.0000 XXYY=            -31.4997 XXZZ=             -4.5849 YYZZ=            -54.6276
 XXYZ=              0.0000 YYXZ=              0.0000 ZZXY=              0.3785
 N-N= 2.247724684680D+01 E-N=-1.267727543428D+02  KE= 2.676495437134D+01
 Symmetry A'   KE= 1.787844957137D+01
 Symmetry A"   KE= 8.886504799968D+00
 Leave Link  601 at Sun Dec 10 06:59:28 2023, MaxMem=   536870912 cpu:               0.1 elap:               0.0
 (Enter /usr/site/hpc/x86_64/glibc-2.17/broadwell/gaussian/g16_a.03/pgi-16.5/g16/l9999.exe)
 1\1\GINC-N033\SP\RCCSD(T)-FC\CEP-31G\H4O2\ROOT\10-Dec-2023\0\\#p CCSD(
 T)/CEP-31G\\H2O_H2O_1862\\0,1\O,0,0.,-0.009833,0.\H,0,-0.799571,-0.580
 965,0.\H,0,0.799571,-0.580965,0.\O,0,-0.006953,3.562279,0.\H,0,0.15457
 8,4.531513,0.\H,0,-0.976187,3.400748,0.\\Version=ES64L-G16RevA.03\Stat
 e=1-A'\HF=-33.6478016\MP2=-33.8766344\MP3=-33.8821349\MP4D=-33.8873486
 \MP4DQ=-33.8880627\MP4SDQ=-33.890125\CCSD=-33.8911768\CCSD(T)=-33.8937
 721\RMSD=5.659e-10\PG=CS [SG(H4O2)]\\@


 QUANTUM MECHANICS IS BOHRING -- M.S. GORDON
 Job cpu time:       0 days  0 hours  0 minutes  3.2 seconds.
 Elapsed time:       0 days  0 hours  0 minutes  1.0 seconds.
 File lengths (MBytes):  RWF=     72 Int=      0 D2E=      0 Chk=      8 Scr=      8
 Normal termination of Gaussian 16 at Sun Dec 10 06:59:28 2023.
