 Entering Gaussian System, Link 0=g16
 Input=H2O_H2O_1896.com
 Output=H2O_H2O_1896.log
 Initial command:
 /usr/site/hpc/x86_64/glibc-2.17/broadwell/gaussian/g16_a.03/pgi-16.5/g16/l1.exe "/gpfs/gpfs1/scratch/c7441090/OO Coord/Gau-1328217.inp" -scrdir="/gpfs/gpfs1/scratch/c7441090/OO Coord/"
 Entering Link 1 = /usr/site/hpc/x86_64/glibc-2.17/broadwell/gaussian/g16_a.03/pgi-16.5/g16/l1.exe PID=   1328221.
  
 Copyright (c) 1988,1990,1992,1993,1995,1998,2003,2009,2016,
            Gaussian, Inc.  All Rights Reserved.
  
 This is part of the Gaussian(R) 16 program.  It is based on
 the Gaussian(R) 09 system (copyright 2009, Gaussian, Inc.),
 the Gaussian(R) 03 system (copyright 2003, Gaussian, Inc.),
 the Gaussian(R) 98 system (copyright 1998, Gaussian, Inc.),
 the Gaussian(R) 94 system (copyright 1995, Gaussian, Inc.),
 the Gaussian 92(TM) system (copyright 1992, Gaussian, Inc.),
 the Gaussian 90(TM) system (copyright 1990, Gaussian, Inc.),
 the Gaussian 88(TM) system (copyright 1988, Gaussian, Inc.),
 the Gaussian 86(TM) system (copyright 1986, Carnegie Mellon
 University), and the Gaussian 82(TM) system (copyright 1983,
 Carnegie Mellon University). Gaussian is a federally registered
 trademark of Gaussian, Inc.
  
 This software contains proprietary and confidential information,
 including trade secrets, belonging to Gaussian, Inc.
  
 This software is provided under written license and may be
 used, copied, transmitted, or stored only in accord with that
 written license.
  
 The following legend is applicable only to US Government
 contracts under FAR:
  
                    RESTRICTED RIGHTS LEGEND
  
 Use, reproduction and disclosure by the US Government is
 subject to restrictions as set forth in subparagraphs (a)
 and (c) of the Commercial Computer Software - Restricted
 Rights clause in FAR 52.227-19.
  
 Gaussian, Inc.
 340 Quinnipiac St., Bldg. 40, Wallingford CT 06492
  
  
 ---------------------------------------------------------------
 Warning -- This program may not be used in any manner that
 competes with the business of Gaussian, Inc. or will provide
 assistance to any competitor of Gaussian, Inc.  The licensee
 of this program is prohibited from giving any competitor of
 Gaussian, Inc. access to this program.  By using this program,
 the user acknowledges that Gaussian, Inc. is engaged in the
 business of creating and licensing software in the field of
 computational chemistry and represents and warrants to the
 licensee that it is not a competitor of Gaussian, Inc. and that
 it will not use this program in any manner prohibited above.
 ---------------------------------------------------------------
  

 Cite this work as:
 Gaussian 16, Revision A.03,
 M. J. Frisch, G. W. Trucks, H. B. Schlegel, G. E. Scuseria, 
 M. A. Robb, J. R. Cheeseman, G. Scalmani, V. Barone, 
 G. A. Petersson, H. Nakatsuji, X. Li, M. Caricato, A. V. Marenich, 
 J. Bloino, B. G. Janesko, R. Gomperts, B. Mennucci, H. P. Hratchian, 
 J. V. Ortiz, A. F. Izmaylov, J. L. Sonnenberg, D. Williams-Young, 
 F. Ding, F. Lipparini, F. Egidi, J. Goings, B. Peng, A. Petrone, 
 T. Henderson, D. Ranasinghe, V. G. Zakrzewski, J. Gao, N. Rega, 
 G. Zheng, W. Liang, M. Hada, M. Ehara, K. Toyota, R. Fukuda, 
 J. Hasegawa, M. Ishida, T. Nakajima, Y. Honda, O. Kitao, H. Nakai, 
 T. Vreven, K. Throssell, J. A. Montgomery, Jr., J. E. Peralta, 
 F. Ogliaro, M. J. Bearpark, J. J. Heyd, E. N. Brothers, K. N. Kudin, 
 V. N. Staroverov, T. A. Keith, R. Kobayashi, J. Normand, 
 K. Raghavachari, A. P. Rendell, J. C. Burant, S. S. Iyengar, 
 J. Tomasi, M. Cossi, J. M. Millam, M. Klene, C. Adamo, R. Cammi, 
 J. W. Ochterski, R. L. Martin, K. Morokuma, O. Farkas, 
 J. B. Foresman, and D. J. Fox, Gaussian, Inc., Wallingford CT, 2016.
 
 ******************************************
 Gaussian 16:  ES64L-G16RevA.03 25-Dec-2016
                10-Dec-2023 
 ******************************************
 %NProcShared=4
 Will use up to    4 processors via shared memory.
 %Mem=4GB
 %Chk=H2O_H2O_1896.chk
 ------------------
 #p CCSD(T)/CEP-31G
 ------------------
 1/38=1,172=1/1;
 2/12=2,17=6,18=5,40=1/2;
 3/5=9,6=1,11=9,25=1,30=1/1,2,3;
 4//1;
 5/5=2,38=5/2;
 8/6=4,9=120000,10=1/1,4;
 9/5=7,14=2/13;
 6/7=2,8=2,9=2,10=2/1;
 99/5=1,9=1/99;
 Leave Link    1 at Sun Dec 10 07:00:06 2023, MaxMem=   536870912 cpu:               1.1 elap:               0.4
 (Enter /usr/site/hpc/x86_64/glibc-2.17/broadwell/gaussian/g16_a.03/pgi-16.5/g16/l101.exe)
 ------------
 H2O_H2O_1896
 ------------
 Symbolic Z-matrix:
 Charge =  0 Multiplicity = 1
 O                     0.       -0.00983   0. 
 H                    -0.79957  -0.58097   0. 
 H                     0.79957  -0.58097   0. 
 O                    -0.00964   3.58384   0. 
 H                    -0.41381   4.47947   0. 
 H                    -0.72579   2.91105   0. 
 
 ITRead=  0  0  0  0  0  0
 MicOpt= -1 -1 -1 -1 -1 -1
 NAtoms=      6 NQM=        6 NQMF=       0 NMMI=      0 NMMIF=      0
                NMic=       0 NMicF=      0.
                    Isotopes and Nuclear Properties:
 (Nuclear quadrupole moments (NQMom) in fm**2, nuclear magnetic moments (NMagM)
  in nuclear magnetons)

  Atom         1           2           3           4           5           6
 IAtWgt=          16           1           1          16           1           1
 AtmWgt=  15.9949146   1.0078250   1.0078250  15.9949146   1.0078250   1.0078250
 NucSpn=           0           1           1           0           1           1
 AtZEff=  -0.0000000  -0.0000000  -0.0000000  -0.0000000  -0.0000000  -0.0000000
 NQMom=    0.0000000   0.0000000   0.0000000   0.0000000   0.0000000   0.0000000
 NMagM=    0.0000000   2.7928460   2.7928460   0.0000000   2.7928460   2.7928460
 AtZNuc=   8.0000000   1.0000000   1.0000000   8.0000000   1.0000000   1.0000000
 Leave Link  101 at Sun Dec 10 07:00:06 2023, MaxMem=   536870912 cpu:               0.3 elap:               0.1
 (Enter /usr/site/hpc/x86_64/glibc-2.17/broadwell/gaussian/g16_a.03/pgi-16.5/g16/l202.exe)
                          Input orientation:                          
 ---------------------------------------------------------------------
 Center     Atomic      Atomic             Coordinates (Angstroms)
 Number     Number       Type             X           Y           Z
 ---------------------------------------------------------------------
      1          8           0        0.000000   -0.009833    0.000000
      2          1           0       -0.799571   -0.580965    0.000000
      3          1           0        0.799571   -0.580965    0.000000
      4          8           0       -0.009644    3.583836    0.000000
      5          1           0       -0.413813    4.479467    0.000000
      6          1           0       -0.725791    2.911051    0.000000
 ---------------------------------------------------------------------
                    Distance matrix (angstroms):
                    1          2          3          4          5
     1  O    0.000000
     2  H    0.982601   0.000000
     3  H    0.982601   1.599142   0.000000
     4  O    3.593682   4.239051   4.242687   0.000000
     5  H    4.508332   5.075114   5.203871   0.982602   0.000000
     6  H    3.009707   3.492795   3.810631   0.982602   1.599143
                    6
     6  H    0.000000
 Stoichiometry    H4O2
 Framework group  CS[SG(H4O2)]
 Deg. of freedom     9
 Full point group                 CS      NOp   2
 Largest Abelian subgroup         CS      NOp   2
 Largest concise Abelian subgroup C1      NOp   1
                         Standard orientation:                         
 ---------------------------------------------------------------------
 Center     Atomic      Atomic             Coordinates (Angstroms)
 Number     Number       Type             X           Y           Z
 ---------------------------------------------------------------------
      1          8           0        0.056139   -1.751021    0.000000
      2          1           0       -0.744962   -2.320005    0.000000
      3          1           0        0.854174   -2.324296    0.000000
      4          8           0        0.056139    1.842661    0.000000
      5          1           0       -0.345625    2.739374    0.000000
      6          1           0       -0.661811    1.171801    0.000000
 ---------------------------------------------------------------------
 Rotational constants (GHZ):         265.3595870           4.1026781           4.0402131
 Leave Link  202 at Sun Dec 10 07:00:06 2023, MaxMem=   536870912 cpu:               0.1 elap:               0.0
 (Enter /usr/site/hpc/x86_64/glibc-2.17/broadwell/gaussian/g16_a.03/pgi-16.5/g16/l301.exe)
 Standard basis: CEP-31G (6D, 10F)
 Ernie: Thresh=  0.10000D-02 Tol=  0.10000D-05 Strict=F.
 There are    20 symmetry adapted cartesian basis functions of A'  symmetry.
 There are     4 symmetry adapted cartesian basis functions of A"  symmetry.
 There are    20 symmetry adapted basis functions of A'  symmetry.
 There are     4 symmetry adapted basis functions of A"  symmetry.
    24 basis functions,    48 primitive gaussians,    24 cartesian basis functions
     8 alpha electrons        8 beta electrons
       nuclear repulsion energy        22.6409330797 Hartrees.
 IExCor=    0 DFT=F Ex=HF Corr=None ExCW=0 ScaHFX=  1.000000
 ScaDFX=  1.000000  1.000000  1.000000  1.000000 ScalE2=  1.000000  1.000000
 IRadAn=      5 IRanWt=     -1 IRanGd=            0 ICorTp=0 IEmpDi=  4
 NAtoms=    6 NActive=    6 NUniq=    6 SFac= 1.00D+00 NAtFMM=   60 NAOKFM=F Big=F
 Integral buffers will be    131072 words long.
 Raffenetti 1 integral format.
 Two-electron integral symmetry is turned on.
 Leave Link  301 at Sun Dec 10 07:00:06 2023, MaxMem=   536870912 cpu:               0.2 elap:               0.1
 (Enter /usr/site/hpc/x86_64/glibc-2.17/broadwell/gaussian/g16_a.03/pgi-16.5/g16/l302.exe)
 NPDir=0 NMtPBC=     1 NCelOv=     1 NCel=       1 NClECP=     1 NCelD=      1
         NCelK=      1 NCelE2=     1 NClLst=     1 CellRange=     0.0.
 One-electron integrals computed using PRISM.
 One-electron integral symmetry used in STVInt
   2 Symmetry operations used in ECPInt.
 ECPInt:  NShTT=      78 NPrTT=     318 LenC2=      79 LenP2D=     278.
 LDataN:  DoStor=T MaxTD1= 2 Len=   12
 NBasis=    24 RedAO= T EigKep=  3.67D-02  NBF=    20     4
 NBsUse=    24 1.00D-06 EigRej= -1.00D+00 NBFU=    20     4
 Leave Link  302 at Sun Dec 10 07:00:06 2023, MaxMem=   536870912 cpu:               0.3 elap:               0.1
 (Enter /usr/site/hpc/x86_64/glibc-2.17/broadwell/gaussian/g16_a.03/pgi-16.5/g16/l303.exe)
 DipDrv:  MaxL=1.
 Leave Link  303 at Sun Dec 10 07:00:06 2023, MaxMem=   536870912 cpu:               0.1 elap:               0.0
 (Enter /usr/site/hpc/x86_64/glibc-2.17/broadwell/gaussian/g16_a.03/pgi-16.5/g16/l401.exe)
 ExpMin= 1.78D-01 ExpMax= 1.92D+01 ExpMxC= 1.92D+01 IAcc=3 IRadAn=         5 AccDes= 0.00D+00
 Harris functional with IExCor=  205 and IRadAn=       5 diagonalized for initial guess.
 HarFok:  IExCor=  205 AccDes= 0.00D+00 IRadAn=         5 IDoV= 1 UseB2=F ITyADJ=14
 ICtDFT=  3500011 ScaDFX=  1.000000  1.000000  1.000000  1.000000
 FoFCou: FMM=F IPFlag=           0 FMFlag=      100000 FMFlg1=           0
         NFxFlg=           0 DoJE=T BraDBF=F KetDBF=T FulRan=T
         wScrn=  0.000000 ICntrl=       500 IOpCl=  0 I1Cent=   200000004 NGrid=           0
         NMat0=    1 NMatS0=      1 NMatT0=    0 NMatD0=    1 NMtDS0=    0 NMtDT0=    0
 Petite list used in FoFCou.
 Harris En= -34.4772214945970    
 JPrj=0 DoOrth=F DoCkMO=F.
 Initial guess orbital symmetries:
       Occupied  (A') (A') (A') (A') (A') (A') (A") (A")
       Virtual   (A') (A') (A') (A') (A') (A") (A") (A') (A') (A')
                 (A') (A') (A') (A') (A') (A')
 The electronic state of the initial guess is 1-A'.
 Leave Link  401 at Sun Dec 10 07:00:06 2023, MaxMem=   536870912 cpu:               0.4 elap:               0.1
 (Enter /usr/site/hpc/x86_64/glibc-2.17/broadwell/gaussian/g16_a.03/pgi-16.5/g16/l502.exe)
 Keep R1 ints in memory in symmetry-blocked form, NReq=852388.
 FoFCou: FMM=F IPFlag=           0 FMFlag=           0 FMFlg1=           0
         NFxFlg=           0 DoJE=F BraDBF=F KetDBF=F FulRan=T
         wScrn=  0.000000 ICntrl=       600 IOpCl=  0 I1Cent=           0 NGrid=           0
         NMat0=    1 NMatS0=    300 NMatT0=    0 NMatD0=    1 NMtDS0=    0 NMtDT0=    0
 Petite list used in FoFCou.
 Closed shell SCF:
 Using DIIS extrapolation, IDIIS=  1040.
 NGot=   536870912 LenX=   536840576 LenY=   536839559
 Requested convergence on RMS density matrix=1.00D-08 within 128 cycles.
 Requested convergence on MAX density matrix=1.00D-06.
 Requested convergence on             energy=1.00D-06.
 No special actions if energy rises.

 Cycle   1  Pass 1  IDiag  1:
 E= -33.5588915174852    
 DIIS: error= 6.75D-02 at cycle   1 NSaved=   1.
 NSaved= 1 IEnMin= 1 EnMin= -33.5588915174852     IErMin= 1 ErrMin= 6.75D-02
 ErrMax= 6.75D-02  0.00D+00 EMaxC= 1.00D-01 BMatC= 1.01D-01 BMatP= 1.01D-01
 IDIUse=3 WtCom= 3.25D-01 WtEn= 6.75D-01
 Coeff-Com:  0.100D+01
 Coeff-En:   0.100D+01
 Coeff:      0.100D+01
 Gap=     0.591 Goal=   None    Shift=    0.000
 GapD=    0.591 DampG=2.000 DampE=0.500 DampFc=1.0000 IDamp=-1.
 RMSDP=1.48D-02 MaxDP=1.17D-01              OVMax= 1.00D-01

 Cycle   2  Pass 1  IDiag  1:
 E= -33.6213452142823     Delta-E=       -0.062453696797 Rises=F Damp=F
 DIIS: error= 3.72D-02 at cycle   2 NSaved=   2.
 NSaved= 2 IEnMin= 2 EnMin= -33.6213452142823     IErMin= 2 ErrMin= 3.72D-02
 ErrMax= 3.72D-02  0.00D+00 EMaxC= 1.00D-01 BMatC= 3.79D-02 BMatP= 1.01D-01
 IDIUse=3 WtCom= 6.28D-01 WtEn= 3.72D-01
 Coeff-Com:  0.377D+00 0.623D+00
 Coeff-En:   0.107D+00 0.893D+00
 Coeff:      0.277D+00 0.723D+00
 Gap=     0.680 Goal=   None    Shift=    0.000
 RMSDP=6.39D-03 MaxDP=5.43D-02 DE=-6.25D-02 OVMax= 3.56D-02

 Cycle   3  Pass 1  IDiag  1:
 E= -33.6516191972159     Delta-E=       -0.030273982934 Rises=F Damp=F
 DIIS: error= 7.09D-03 at cycle   3 NSaved=   3.
 NSaved= 3 IEnMin= 3 EnMin= -33.6516191972159     IErMin= 3 ErrMin= 7.09D-03
 ErrMax= 7.09D-03  0.00D+00 EMaxC= 1.00D-01 BMatC= 9.07D-04 BMatP= 3.79D-02
 IDIUse=3 WtCom= 9.29D-01 WtEn= 7.09D-02
 Coeff-Com: -0.112D+00-0.127D-01 0.112D+01
 Coeff-En:   0.000D+00 0.000D+00 0.100D+01
 Coeff:     -0.104D+00-0.118D-01 0.112D+01
 Gap=     0.672 Goal=   None    Shift=    0.000
 RMSDP=1.09D-03 MaxDP=9.29D-03 DE=-3.03D-02 OVMax= 8.09D-03

 Cycle   4  Pass 1  IDiag  1:
 E= -33.6525220081463     Delta-E=       -0.000902810930 Rises=F Damp=F
 DIIS: error= 7.50D-04 at cycle   4 NSaved=   4.
 NSaved= 4 IEnMin= 4 EnMin= -33.6525220081463     IErMin= 4 ErrMin= 7.50D-04
 ErrMax= 7.50D-04  0.00D+00 EMaxC= 1.00D-01 BMatC= 5.94D-06 BMatP= 9.07D-04
 IDIUse=3 WtCom= 9.92D-01 WtEn= 7.50D-03
 Coeff-Com:  0.429D-01-0.187D-01-0.519D+00 0.149D+01
 Coeff-En:   0.000D+00 0.000D+00 0.000D+00 0.100D+01
 Coeff:      0.426D-01-0.186D-01-0.515D+00 0.149D+01
 Gap=     0.674 Goal=   None    Shift=    0.000
 RMSDP=2.36D-04 MaxDP=2.02D-03 DE=-9.03D-04 OVMax= 9.90D-04

 Cycle   5  Pass 1  IDiag  1:
 E= -33.6525351573284     Delta-E=       -0.000013149182 Rises=F Damp=F
 DIIS: error= 5.35D-05 at cycle   5 NSaved=   5.
 NSaved= 5 IEnMin= 5 EnMin= -33.6525351573284     IErMin= 5 ErrMin= 5.35D-05
 ErrMax= 5.35D-05  0.00D+00 EMaxC= 1.00D-01 BMatC= 4.19D-08 BMatP= 5.94D-06
 IDIUse=1 WtCom= 1.00D+00 WtEn= 0.00D+00
 Coeff-Com: -0.716D-02 0.337D-02 0.869D-01-0.302D+00 0.122D+01
 Coeff:     -0.716D-02 0.337D-02 0.869D-01-0.302D+00 0.122D+01
 Gap=     0.674 Goal=   None    Shift=    0.000
 RMSDP=1.70D-05 MaxDP=1.61D-04 DE=-1.31D-05 OVMax= 1.13D-04

 Cycle   6  Pass 1  IDiag  1:
 E= -33.6525352624096     Delta-E=       -0.000000105081 Rises=F Damp=F
 DIIS: error= 1.06D-05 at cycle   6 NSaved=   6.
 NSaved= 6 IEnMin= 6 EnMin= -33.6525352624096     IErMin= 6 ErrMin= 1.06D-05
 ErrMax= 1.06D-05  0.00D+00 EMaxC= 1.00D-01 BMatC= 2.14D-09 BMatP= 4.19D-08
 IDIUse=1 WtCom= 1.00D+00 WtEn= 0.00D+00
 Coeff-Com:  0.126D-02-0.451D-03-0.146D-01 0.569D-01-0.387D+00 0.134D+01
 Coeff:      0.126D-02-0.451D-03-0.146D-01 0.569D-01-0.387D+00 0.134D+01
 Gap=     0.674 Goal=   None    Shift=    0.000
 RMSDP=3.92D-06 MaxDP=3.80D-05 DE=-1.05D-07 OVMax= 3.33D-05

 Cycle   7  Pass 1  IDiag  1:
 E= -33.6525352683123     Delta-E=       -0.000000005903 Rises=F Damp=F
 DIIS: error= 2.61D-06 at cycle   7 NSaved=   7.
 NSaved= 7 IEnMin= 7 EnMin= -33.6525352683123     IErMin= 7 ErrMin= 2.61D-06
 ErrMax= 2.61D-06  0.00D+00 EMaxC= 1.00D-01 BMatC= 1.27D-10 BMatP= 2.14D-09
 IDIUse=1 WtCom= 1.00D+00 WtEn= 0.00D+00
 Coeff-Com:  0.291D-03-0.173D-03-0.365D-02 0.117D-01-0.192D-01-0.167D+00
 Coeff-Com:  0.118D+01
 Coeff:      0.291D-03-0.173D-03-0.365D-02 0.117D-01-0.192D-01-0.167D+00
 Coeff:      0.118D+01
 Gap=     0.674 Goal=   None    Shift=    0.000
 RMSDP=9.81D-07 MaxDP=9.49D-06 DE=-5.90D-09 OVMax= 9.23D-06

 Cycle   8  Pass 1  IDiag  1:
 E= -33.6525352686150     Delta-E=       -0.000000000303 Rises=F Damp=F
 DIIS: error= 8.79D-07 at cycle   8 NSaved=   8.
 NSaved= 8 IEnMin= 8 EnMin= -33.6525352686150     IErMin= 8 ErrMin= 8.79D-07
 ErrMax= 8.79D-07  0.00D+00 EMaxC= 1.00D-01 BMatC= 1.96D-11 BMatP= 1.27D-10
 IDIUse=1 WtCom= 1.00D+00 WtEn= 0.00D+00
 Coeff-Com:  0.505D-05-0.301D-04-0.160D-03-0.398D-03 0.256D-01-0.165D+00
 Coeff-Com:  0.340D+00 0.800D+00
 Coeff:      0.505D-05-0.301D-04-0.160D-03-0.398D-03 0.256D-01-0.165D+00
 Coeff:      0.340D+00 0.800D+00
 Gap=     0.674 Goal=   None    Shift=    0.000
 RMSDP=2.70D-07 MaxDP=2.13D-06 DE=-3.03D-10 OVMax= 2.17D-06

 Cycle   9  Pass 1  IDiag  1:
 E= -33.6525352686422     Delta-E=       -0.000000000027 Rises=F Damp=F
 DIIS: error= 1.67D-07 at cycle   9 NSaved=   9.
 NSaved= 9 IEnMin= 9 EnMin= -33.6525352686422     IErMin= 9 ErrMin= 1.67D-07
 ErrMax= 1.67D-07  0.00D+00 EMaxC= 1.00D-01 BMatC= 7.54D-13 BMatP= 1.96D-11
 IDIUse=1 WtCom= 1.00D+00 WtEn= 0.00D+00
 Coeff-Com:  0.243D-05 0.901D-05 0.166D-04 0.246D-03-0.983D-02 0.672D-01
 Coeff-Com: -0.184D+00-0.247D+00 0.137D+01
 Coeff:      0.243D-05 0.901D-05 0.166D-04 0.246D-03-0.983D-02 0.672D-01
 Coeff:     -0.184D+00-0.247D+00 0.137D+01
 Gap=     0.674 Goal=   None    Shift=    0.000
 RMSDP=1.26D-07 MaxDP=5.87D-07 DE=-2.73D-11 OVMax= 8.80D-07

 Cycle  10  Pass 1  IDiag  1:
 E= -33.6525352686442     Delta-E=       -0.000000000002 Rises=F Damp=F
 DIIS: error= 1.01D-08 at cycle  10 NSaved=  10.
 NSaved=10 IEnMin=10 EnMin= -33.6525352686442     IErMin=10 ErrMin= 1.01D-08
 ErrMax= 1.01D-08  0.00D+00 EMaxC= 1.00D-01 BMatC= 4.72D-15 BMatP= 7.54D-13
 IDIUse=1 WtCom= 1.00D+00 WtEn= 0.00D+00
 Coeff-Com:  0.398D-06-0.201D-05-0.136D-04-0.722D-05 0.170D-02-0.128D-01
 Coeff-Com:  0.367D-01 0.431D-01-0.325D+00 0.126D+01
 Coeff:      0.398D-06-0.201D-05-0.136D-04-0.722D-05 0.170D-02-0.128D-01
 Coeff:      0.367D-01 0.431D-01-0.325D+00 0.126D+01
 Gap=     0.674 Goal=   None    Shift=    0.000
 RMSDP=1.37D-08 MaxDP=6.62D-08 DE=-2.00D-12 OVMax= 8.49D-08

 Cycle  11  Pass 1  IDiag  1:
 E= -33.6525352686442     Delta-E=        0.000000000000 Rises=F Damp=F
 DIIS: error= 6.67D-10 at cycle  11 NSaved=  11.
 NSaved=11 IEnMin=10 EnMin= -33.6525352686442     IErMin=11 ErrMin= 6.67D-10
 ErrMax= 6.67D-10  0.00D+00 EMaxC= 1.00D-01 BMatC= 2.13D-17 BMatP= 4.72D-15
 IDIUse=1 WtCom= 1.00D+00 WtEn= 0.00D+00
 Coeff-Com: -0.982D-07 0.383D-06 0.279D-05 0.553D-06-0.328D-03 0.249D-02
 Coeff-Com: -0.725D-02-0.834D-02 0.647D-01-0.285D+00 0.123D+01
 Coeff:     -0.982D-07 0.383D-06 0.279D-05 0.553D-06-0.328D-03 0.249D-02
 Coeff:     -0.725D-02-0.834D-02 0.647D-01-0.285D+00 0.123D+01
 Gap=     0.674 Goal=   None    Shift=    0.000
 RMSDP=7.18D-10 MaxDP=3.18D-09 DE= 0.00D+00 OVMax= 4.31D-09

 SCF Done:  E(RHF) =  -33.6525352686     A.U. after   11 cycles
            NFock= 11  Conv=0.72D-09     -V/T= 2.2570
 KE= 2.677177256220D+01 PE=-1.270225762392D+02 EE= 4.395733532872D+01
 Leave Link  502 at Sun Dec 10 07:00:06 2023, MaxMem=   536870912 cpu:               0.3 elap:               0.1
 (Enter /usr/site/hpc/x86_64/glibc-2.17/broadwell/gaussian/g16_a.03/pgi-16.5/g16/l801.exe)
 Windowed orbitals will be sorted by symmetry type.
 Range of M.O.s used for correlation:     1    24
 NBasis=    24 NAE=     8 NBE=     8 NFC=     0 NFV=     0
 NROrb=     24 NOA=     8 NOB=     8 NVA=    16 NVB=    16
 Leave Link  801 at Sun Dec 10 07:00:06 2023, MaxMem=   536870912 cpu:               0.1 elap:               0.0
 (Enter /usr/site/hpc/x86_64/glibc-2.17/broadwell/gaussian/g16_a.03/pgi-16.5/g16/l804.exe)
 Closed-shell transformation, MDV=   536870912 ITran=4 ISComp=2.
 Unit  1 TFree=       1025975 TCopy=        210600.
 Semi-Direct transformation.
 ModeAB=           2 MOrb=             8 LenV=     536741964
 LASXX=        22470 LTotXX=       22470 LenRXX=       22470
 LTotAB=       26208 MaxLAS=       57600 LenRXY=       57600
 NonZer=       61824 LenScr=      524288 LnRSAI=           0
 LnScr1=           0 LExtra=           0 Total=       604358
 MaxDsk=          -1 SrtSym=           F ITran=            4
 DoSDTr:  NPSUse=  4
 JobTyp=0 Pass  1:  I=   1 to   8.
 (rs|ai) integrals will be sorted in core.
 Complete sort for first half transformation.
 First half transformation complete.
 Complete sort for second half transformation.
 Second half transformation complete.
 Spin components of T(2) and E(2):
     alpha-alpha T2 =       0.9090423171D-02 E2=     -0.2595481928D-01
     alpha-beta  T2 =       0.5999493531D-01 E2=     -0.1768040857D+00
     beta-beta   T2 =       0.9090423171D-02 E2=     -0.2595481928D-01
 ANorm=    0.1038352436D+01
 E2 =    -0.2287137243D+00 EUMP2 =    -0.33881248992913D+02
 Leave Link  804 at Sun Dec 10 07:00:07 2023, MaxMem=   536870912 cpu:               0.2 elap:               0.1
 (Enter /usr/site/hpc/x86_64/glibc-2.17/broadwell/gaussian/g16_a.03/pgi-16.5/g16/l913.exe)
 CIDS:  MDV=   536870912.
 IFCWin=0 IBDFC=1 NFBD=     0     0 NFCmp=     0     0 NFFFC=     0     0
 Using DD3R+UMP44R for 1st iteration.
 Using DD4RQ for 2nd and later iterations.
 Keep R2 and R3 ints in memory in symmetry-blocked form, NReq=864996.
 FoFCou: FMM=F IPFlag=           0 FMFlag=           0 FMFlg1=           0
         NFxFlg=           0 DoJE=F BraDBF=F KetDBF=F FulRan=T
         wScrn=  0.000000 ICntrl=       600 IOpCl=  0 I1Cent=           0 NGrid=           0
         NMat0=    1 NMatS0=    300 NMatT0=    0 NMatD0=    1 NMtDS0=    0 NMtDT0=    0
 Petite list used in FoFCou.
 CIDS: In Core Option IDoMem=           1.
 CCSD(T)
 =======
 Iterations=  50 Convergence= 0.100D-06
 Produce multiple copies of IABC intergrals
 Iteration Nr.   1
 **********************
 DD1Dir will call FoFMem   1 times, MxPair=        72
 NAB=    36 NAA=     0 NBB=     0.
 MP4(R+Q)= -0.73249801D-03
 Maximum subspace dimension=  5
 A-vector RMS=  5.8227017D-03 Max=  1.2396921D-02 conv= 1.00D-05.
 RLE energy=       -0.2347324252
 E3=       -0.54095060D-02        EUMP3=      -0.33886658499D+02
 E4(DQ)=   -0.59105482D-02        UMP4(DQ)=   -0.33892569047D+02
 E4(SDQ)=  -0.79708474D-02        UMP4(SDQ)=  -0.33894629346D+02
 VARIATIONAL ENERGIES WITH THE FIRST-ORDER WAVEFUNCTION:
 DE(Corr)= -0.23457845     E(Corr)=     -33.887113716    
 NORM(A)=   0.10417929D+01
 Iteration Nr.   2
 **********************
 DD1Dir will call FoFMem   1 times, MxPair=        72
 NAB=    36 NAA=     0 NBB=     0.
 A-vector RMS=  9.7834716D-04 Max=  2.5777149D-03 conv= 1.00D-05.
 RLE energy=       -0.2425332171
 DE(Corr)= -0.24059554     E(CORR)=     -33.893130813     Delta=-6.02D-03
 NORM(A)=   0.10456028D+01
 Iteration Nr.   3
 **********************
 DD1Dir will call FoFMem   1 times, MxPair=        72
 NAB=    36 NAA=     0 NBB=     0.
 A-vector RMS=  3.8789793D-04 Max=  1.0523544D-03 conv= 1.00D-05.
 RLE energy=       -0.2430863871
 DE(Corr)= -0.24263444     E(CORR)=     -33.895169704     Delta=-2.04D-03
 NORM(A)=   0.10461683D+01
 Iteration Nr.   4
 **********************
 DD1Dir will call FoFMem   1 times, MxPair=        72
 NAB=    36 NAA=     0 NBB=     0.
 A-vector RMS=  9.4966075D-05 Max=  2.6600558D-04 conv= 1.00D-05.
 RLE energy=       -0.2431343938
 DE(Corr)= -0.24309825     E(CORR)=     -33.895633523     Delta=-4.64D-04
 NORM(A)=   0.10462421D+01
 Iteration Nr.   5
 **********************
 DD1Dir will call FoFMem   1 times, MxPair=        72
 NAB=    36 NAA=     0 NBB=     0.
 A-vector RMS=  4.1085282D-05 Max=  1.3500879D-04 conv= 1.00D-05.
 RLE energy=       -0.2431331585
 DE(Corr)= -0.24313069     E(CORR)=     -33.895665957     Delta=-3.24D-05
 NORM(A)=   0.10462523D+01
 Iteration Nr.   6
 **********************
 DD1Dir will call FoFMem   1 times, MxPair=        72
 NAB=    36 NAA=     0 NBB=     0.
 A-vector RMS=  1.3720956D-05 Max=  5.1147417D-05 conv= 1.00D-05.
 RLE energy=       -0.2431309347
 DE(Corr)= -0.24313308     E(CORR)=     -33.895668350     Delta=-2.39D-06
 NORM(A)=   0.10462551D+01
 Iteration Nr.   7
 **********************
 DD1Dir will call FoFMem   1 times, MxPair=        72
 NAB=    36 NAA=     0 NBB=     0.
 A-vector RMS=  4.3590960D-06 Max=  1.4748809D-05 conv= 1.00D-05.
 RLE energy=       -0.2431323865
 DE(Corr)= -0.24313253     E(CORR)=     -33.895667799     Delta= 5.51D-07
 NORM(A)=   0.10462566D+01
 Iteration Nr.   8
 **********************
 DD1Dir will call FoFMem   1 times, MxPair=        72
 NAB=    36 NAA=     0 NBB=     0.
 A-vector RMS=  1.4500221D-06 Max=  4.8087092D-06 conv= 1.00D-05.
 RLE energy=       -0.2431321595
 DE(Corr)= -0.24313230     E(CORR)=     -33.895667571     Delta= 2.27D-07
 NORM(A)=   0.10462570D+01
 Iteration Nr.   9
 **********************
 DD1Dir will call FoFMem   1 times, MxPair=        72
 NAB=    36 NAA=     0 NBB=     0.
 A-vector RMS=  3.3672012D-07 Max=  1.4688623D-06 conv= 1.00D-05.
 RLE energy=       -0.2431323730
 DE(Corr)= -0.24313240     E(CORR)=     -33.895667666     Delta=-9.47D-08
 NORM(A)=   0.10462572D+01
 CI/CC converged in    9 iterations to DelEn=-9.47D-08 Conv= 1.00D-07 ErrA1= 3.37D-07 Conv= 1.00D-05
 Wavefunction amplitudes converged. E(Corr)=     -33.895667666    
 Largest amplitude= 4.88D-02
 IPart=  3 IA=    2   12.50% done.
 IPart=  4 IA=    3   24.17% done.
 IPart=  2 IA=    4   35.00% done.
 IPart=  2 IA=    5   45.00% done.
 IPart=  4 IA=    6   54.17% done.
 IPart=  3 IA=    7   62.50% done.
 IPart=  1 IA=    8   70.00% done.
 IPart=  2 IA=   10   82.50% done.
 IPart=  3 IA=   12   91.67% done.
 Time for triples=        0.27 seconds.
 T4(CCSD)= -0.31269971D-02
 T5(CCSD)=  0.53513002D-03
 CCSD(T)= -0.33898259533D+02
 Discarding MO integrals.
 Leave Link  913 at Sun Dec 10 07:00:07 2023, MaxMem=   536870912 cpu:               0.9 elap:               0.3
 (Enter /usr/site/hpc/x86_64/glibc-2.17/broadwell/gaussian/g16_a.03/pgi-16.5/g16/l601.exe)
 Copying SCF densities to generalized density rwf, IOpCl= 0 IROHF=0.

 **********************************************************************

            Population analysis using the SCF density.

 **********************************************************************

 Orbital symmetries:
       Occupied  (A') (A') (A') (A') (A') (A') (A") (A")
       Virtual   (A') (A') (A') (A') (A') (A") (A") (A') (A') (A')
                 (A') (A') (A') (A') (A') (A')
 The electronic state is 1-A'.
 Alpha  occ. eigenvalues --   -1.35777  -1.33460  -0.71418  -0.69015  -0.55554
 Alpha  occ. eigenvalues --   -0.53181  -0.50357  -0.48045
 Alpha virt. eigenvalues --    0.19353   0.23164   0.30175   0.32864   0.77548
 Alpha virt. eigenvalues --    0.79685   0.83000   0.85999   0.86745   0.98636
 Alpha virt. eigenvalues --    1.17101   1.20098   1.21584   1.26307   2.55307
 Alpha virt. eigenvalues --    2.64562
          Condensed to atoms (all electrons):
               1          2          3          4          5          6
     1  O    6.215422   0.259583   0.267724  -0.000153   0.000021   0.000821
     2  H    0.259583   0.398205  -0.023392   0.000011  -0.000001  -0.000037
     3  H    0.267724  -0.023392   0.376790   0.000008  -0.000000  -0.000012
     4  O   -0.000153   0.000011   0.000008   6.217717   0.255926   0.267006
     5  H    0.000021  -0.000001  -0.000000   0.255926   0.412301  -0.023592
     6  H    0.000821  -0.000037  -0.000012   0.267006  -0.023592   0.371743
 Mulliken charges:
               1
     1  O   -0.743418
     2  H    0.365632
     3  H    0.378883
     4  O   -0.740514
     5  H    0.355346
     6  H    0.384072
 Sum of Mulliken charges =   0.00000
 Mulliken charges with hydrogens summed into heavy atoms:
               1
     1  O    0.001096
     4  O   -0.001096
 Electronic spatial extent (au):  <R**2>=            233.3608
 Charge=              0.0000 electrons
 Dipole moment (field-independent basis, Debye):
    X=             -2.5488    Y=             -2.2550    Z=              0.0000  Tot=              3.4031
 Quadrupole moment (field-independent basis, Debye-Ang):
   XX=            -10.0657   YY=              0.8647   ZZ=            -14.9923
   XY=             -4.6353   XZ=              0.0000   YZ=              0.0000
 Traceless Quadrupole moment (field-independent basis, Debye-Ang):
   XX=             -2.0013   YY=              8.9291   ZZ=             -6.9278
   XY=             -4.6353   XZ=              0.0000   YZ=              0.0000
 Octapole moment (field-independent basis, Debye-Ang**2):
  XXX=             -1.3232  YYY=            -11.4048  ZZZ=              0.0000  XYY=             -7.8085
  XXY=             -5.6305  XXZ=              0.0000  XZZ=             -0.4744  YZZ=             -0.4469
  YYZ=              0.0000  XYZ=              0.0000
 Hexadecapole moment (field-independent basis, Debye-Ang**3):
 XXXX=            -12.6726 YYYY=           -136.8504 ZZZZ=            -12.2281 XXXY=             -0.1828
 XXXZ=              0.0000 YYYX=            -18.1815 YYYZ=              0.0000 ZZZX=              0.0000
 ZZZY=              0.0000 XXYY=            -34.6091 XXZZ=             -4.5363 YYZZ=            -54.5798
 XXYZ=              0.0000 YYXZ=              0.0000 ZZXY=              0.5804
 N-N= 2.264093307965D+01 E-N=-1.270225762400D+02  KE= 2.677177256220D+01
 Symmetry A'   KE= 1.789116203774D+01
 Symmetry A"   KE= 8.880610524459D+00
 Leave Link  601 at Sun Dec 10 07:00:07 2023, MaxMem=   536870912 cpu:               0.1 elap:               0.0
 (Enter /usr/site/hpc/x86_64/glibc-2.17/broadwell/gaussian/g16_a.03/pgi-16.5/g16/l9999.exe)
 1\1\GINC-N033\SP\RCCSD(T)-FC\CEP-31G\H4O2\ROOT\10-Dec-2023\0\\#p CCSD(
 T)/CEP-31G\\H2O_H2O_1896\\0,1\O,0,0.,-0.009833,0.\H,0,-0.799571,-0.580
 965,0.\H,0,0.799571,-0.580965,0.\O,0,-0.009644,3.583836,0.\H,0,-0.4138
 13,4.479467,0.\H,0,-0.725791,2.911051,0.\\Version=ES64L-G16RevA.03\Sta
 te=1-A'\HF=-33.6525353\MP2=-33.881249\MP3=-33.8866585\MP4D=-33.8918365
 \MP4DQ=-33.892569\MP4SDQ=-33.8946293\CCSD=-33.8956677\CCSD(T)=-33.8982
 595\RMSD=7.185e-10\PG=CS [SG(H4O2)]\\@


 THE HURRIEDER I GO, THE BEHINDER I GET.
 Job cpu time:       0 days  0 hours  0 minutes  4.3 seconds.
 Elapsed time:       0 days  0 hours  0 minutes  1.3 seconds.
 File lengths (MBytes):  RWF=     72 Int=      0 D2E=      0 Chk=      8 Scr=      8
 Normal termination of Gaussian 16 at Sun Dec 10 07:00:07 2023.
