 Entering Gaussian System, Link 0=g16
 Input=H2O_H2O_1668.com
 Output=H2O_H2O_1668.log
 Initial command:
 /usr/site/hpc/x86_64/glibc-2.17/broadwell/gaussian/g16_a.03/pgi-16.5/g16/l1.exe "/gpfs/gpfs1/scratch/c7441090/OO Coord/Gau-1308182.inp" -scrdir="/gpfs/gpfs1/scratch/c7441090/OO Coord/"
 Entering Link 1 = /usr/site/hpc/x86_64/glibc-2.17/broadwell/gaussian/g16_a.03/pgi-16.5/g16/l1.exe PID=   1308183.
  
 Copyright (c) 1988,1990,1992,1993,1995,1998,2003,2009,2016,
            Gaussian, Inc.  All Rights Reserved.
  
 This is part of the Gaussian(R) 16 program.  It is based on
 the Gaussian(R) 09 system (copyright 2009, Gaussian, Inc.),
 the Gaussian(R) 03 system (copyright 2003, Gaussian, Inc.),
 the Gaussian(R) 98 system (copyright 1998, Gaussian, Inc.),
 the Gaussian(R) 94 system (copyright 1995, Gaussian, Inc.),
 the Gaussian 92(TM) system (copyright 1992, Gaussian, Inc.),
 the Gaussian 90(TM) system (copyright 1990, Gaussian, Inc.),
 the Gaussian 88(TM) system (copyright 1988, Gaussian, Inc.),
 the Gaussian 86(TM) system (copyright 1986, Carnegie Mellon
 University), and the Gaussian 82(TM) system (copyright 1983,
 Carnegie Mellon University). Gaussian is a federally registered
 trademark of Gaussian, Inc.
  
 This software contains proprietary and confidential information,
 including trade secrets, belonging to Gaussian, Inc.
  
 This software is provided under written license and may be
 used, copied, transmitted, or stored only in accord with that
 written license.
  
 The following legend is applicable only to US Government
 contracts under FAR:
  
                    RESTRICTED RIGHTS LEGEND
  
 Use, reproduction and disclosure by the US Government is
 subject to restrictions as set forth in subparagraphs (a)
 and (c) of the Commercial Computer Software - Restricted
 Rights clause in FAR 52.227-19.
  
 Gaussian, Inc.
 340 Quinnipiac St., Bldg. 40, Wallingford CT 06492
  
  
 ---------------------------------------------------------------
 Warning -- This program may not be used in any manner that
 competes with the business of Gaussian, Inc. or will provide
 assistance to any competitor of Gaussian, Inc.  The licensee
 of this program is prohibited from giving any competitor of
 Gaussian, Inc. access to this program.  By using this program,
 the user acknowledges that Gaussian, Inc. is engaged in the
 business of creating and licensing software in the field of
 computational chemistry and represents and warrants to the
 licensee that it is not a competitor of Gaussian, Inc. and that
 it will not use this program in any manner prohibited above.
 ---------------------------------------------------------------
  

 Cite this work as:
 Gaussian 16, Revision A.03,
 M. J. Frisch, G. W. Trucks, H. B. Schlegel, G. E. Scuseria, 
 M. A. Robb, J. R. Cheeseman, G. Scalmani, V. Barone, 
 G. A. Petersson, H. Nakatsuji, X. Li, M. Caricato, A. V. Marenich, 
 J. Bloino, B. G. Janesko, R. Gomperts, B. Mennucci, H. P. Hratchian, 
 J. V. Ortiz, A. F. Izmaylov, J. L. Sonnenberg, D. Williams-Young, 
 F. Ding, F. Lipparini, F. Egidi, J. Goings, B. Peng, A. Petrone, 
 T. Henderson, D. Ranasinghe, V. G. Zakrzewski, J. Gao, N. Rega, 
 G. Zheng, W. Liang, M. Hada, M. Ehara, K. Toyota, R. Fukuda, 
 J. Hasegawa, M. Ishida, T. Nakajima, Y. Honda, O. Kitao, H. Nakai, 
 T. Vreven, K. Throssell, J. A. Montgomery, Jr., J. E. Peralta, 
 F. Ogliaro, M. J. Bearpark, J. J. Heyd, E. N. Brothers, K. N. Kudin, 
 V. N. Staroverov, T. A. Keith, R. Kobayashi, J. Normand, 
 K. Raghavachari, A. P. Rendell, J. C. Burant, S. S. Iyengar, 
 J. Tomasi, M. Cossi, J. M. Millam, M. Klene, C. Adamo, R. Cammi, 
 J. W. Ochterski, R. L. Martin, K. Morokuma, O. Farkas, 
 J. B. Foresman, and D. J. Fox, Gaussian, Inc., Wallingford CT, 2016.
 
 ******************************************
 Gaussian 16:  ES64L-G16RevA.03 25-Dec-2016
                10-Dec-2023 
 ******************************************
 %NProcShared=4
 Will use up to    4 processors via shared memory.
 %Mem=4GB
 %Chk=H2O_H2O_1668.chk
 ------------------
 #p CCSD(T)/CEP-31G
 ------------------
 1/38=1,172=1/1;
 2/12=2,17=6,18=5,40=1/2;
 3/5=9,6=1,11=9,25=1,30=1/1,2,3;
 4//1;
 5/5=2,38=5/2;
 8/6=4,9=120000,10=1/1,4;
 9/5=7,14=2/13;
 6/7=2,8=2,9=2,10=2/1;
 99/5=1,9=1/99;
 Leave Link    1 at Sun Dec 10 06:55:52 2023, MaxMem=   536870912 cpu:               0.2 elap:               0.1
 (Enter /usr/site/hpc/x86_64/glibc-2.17/broadwell/gaussian/g16_a.03/pgi-16.5/g16/l101.exe)
 ------------
 H2O_H2O_1668
 ------------
 Symbolic Z-matrix:
 Charge =  0 Multiplicity = 1
 O                     0.       -0.00983   0. 
 H                    -0.79957  -0.58097   0. 
 H                     0.79957  -0.58097   0. 
 O                    -0.00909   3.34635   0. 
 H                    -0.23076   4.30363   0. 
 H                    -0.84273   2.82621   0. 
 
 ITRead=  0  0  0  0  0  0
 MicOpt= -1 -1 -1 -1 -1 -1
 NAtoms=      6 NQM=        6 NQMF=       0 NMMI=      0 NMMIF=      0
                NMic=       0 NMicF=      0.
                    Isotopes and Nuclear Properties:
 (Nuclear quadrupole moments (NQMom) in fm**2, nuclear magnetic moments (NMagM)
  in nuclear magnetons)

  Atom         1           2           3           4           5           6
 IAtWgt=          16           1           1          16           1           1
 AtmWgt=  15.9949146   1.0078250   1.0078250  15.9949146   1.0078250   1.0078250
 NucSpn=           0           1           1           0           1           1
 AtZEff=  -0.0000000  -0.0000000  -0.0000000  -0.0000000  -0.0000000  -0.0000000
 NQMom=    0.0000000   0.0000000   0.0000000   0.0000000   0.0000000   0.0000000
 NMagM=    0.0000000   2.7928460   2.7928460   0.0000000   2.7928460   2.7928460
 AtZNuc=   8.0000000   1.0000000   1.0000000   8.0000000   1.0000000   1.0000000
 Leave Link  101 at Sun Dec 10 06:55:53 2023, MaxMem=   536870912 cpu:               0.3 elap:               0.1
 (Enter /usr/site/hpc/x86_64/glibc-2.17/broadwell/gaussian/g16_a.03/pgi-16.5/g16/l202.exe)
                          Input orientation:                          
 ---------------------------------------------------------------------
 Center     Atomic      Atomic             Coordinates (Angstroms)
 Number     Number       Type             X           Y           Z
 ---------------------------------------------------------------------
      1          8           0        0.000000   -0.009833    0.000000
      2          1           0       -0.799571   -0.580965    0.000000
      3          1           0        0.799571   -0.580965    0.000000
      4          8           0       -0.009085    3.346355    0.000000
      5          1           0       -0.230759    4.303625    0.000000
      6          1           0       -0.842725    2.826210    0.000000
 ---------------------------------------------------------------------
                    Distance matrix (angstroms):
                    1          2          3          4          5
     1  O    0.000000
     2  H    0.982601   0.000000
     3  H    0.982601   1.599142   0.000000
     4  O    3.356200   4.006084   4.009709   0.000000
     5  H    4.319626   4.917598   4.992074   0.982601   0.000000
     6  H    2.958602   3.407448   3.782324   0.982602   1.599143
                    6
     6  H    0.000000
 Stoichiometry    H4O2
 Framework group  CS[SG(H4O2)]
 Deg. of freedom     9
 Full point group                 CS      NOp   2
 Largest Abelian subgroup         CS      NOp   2
 Largest concise Abelian subgroup C1      NOp   1
                         Standard orientation:                         
 ---------------------------------------------------------------------
 Center     Atomic      Atomic             Coordinates (Angstroms)
 Number     Number       Type             X           Y           Z
 ---------------------------------------------------------------------
      1          8           0        0.052861   -1.642986    0.000000
      2          1           0       -0.748253   -2.211952    0.000000
      3          1           0        0.850883   -2.216280    0.000000
      4          8           0        0.052861    1.713214    0.000000
      5          1           0       -0.166221    2.671081    0.000000
      6          1           0       -0.782184    1.195328    0.000000
 ---------------------------------------------------------------------
 Rotational constants (GHZ):         254.6048638           4.6514423           4.5679886
 Leave Link  202 at Sun Dec 10 06:55:53 2023, MaxMem=   536870912 cpu:               0.1 elap:               0.0
 (Enter /usr/site/hpc/x86_64/glibc-2.17/broadwell/gaussian/g16_a.03/pgi-16.5/g16/l301.exe)
 Standard basis: CEP-31G (6D, 10F)
 Ernie: Thresh=  0.10000D-02 Tol=  0.10000D-05 Strict=F.
 There are    20 symmetry adapted cartesian basis functions of A'  symmetry.
 There are     4 symmetry adapted cartesian basis functions of A"  symmetry.
 There are    20 symmetry adapted basis functions of A'  symmetry.
 There are     4 symmetry adapted basis functions of A"  symmetry.
    24 basis functions,    48 primitive gaussians,    24 cartesian basis functions
     8 alpha electrons        8 beta electrons
       nuclear repulsion energy        23.1645520333 Hartrees.
 IExCor=    0 DFT=F Ex=HF Corr=None ExCW=0 ScaHFX=  1.000000
 ScaDFX=  1.000000  1.000000  1.000000  1.000000 ScalE2=  1.000000  1.000000
 IRadAn=      5 IRanWt=     -1 IRanGd=            0 ICorTp=0 IEmpDi=  4
 NAtoms=    6 NActive=    6 NUniq=    6 SFac= 1.00D+00 NAtFMM=   60 NAOKFM=F Big=F
 Integral buffers will be    131072 words long.
 Raffenetti 1 integral format.
 Two-electron integral symmetry is turned on.
 Leave Link  301 at Sun Dec 10 06:55:53 2023, MaxMem=   536870912 cpu:               0.2 elap:               0.1
 (Enter /usr/site/hpc/x86_64/glibc-2.17/broadwell/gaussian/g16_a.03/pgi-16.5/g16/l302.exe)
 NPDir=0 NMtPBC=     1 NCelOv=     1 NCel=       1 NClECP=     1 NCelD=      1
         NCelK=      1 NCelE2=     1 NClLst=     1 CellRange=     0.0.
 One-electron integrals computed using PRISM.
 One-electron integral symmetry used in STVInt
   2 Symmetry operations used in ECPInt.
 ECPInt:  NShTT=      78 NPrTT=     318 LenC2=      79 LenP2D=     278.
 LDataN:  DoStor=T MaxTD1= 2 Len=   12
 NBasis=    24 RedAO= T EigKep=  3.68D-02  NBF=    20     4
 NBsUse=    24 1.00D-06 EigRej= -1.00D+00 NBFU=    20     4
 Leave Link  302 at Sun Dec 10 06:55:53 2023, MaxMem=   536870912 cpu:               0.3 elap:               0.1
 (Enter /usr/site/hpc/x86_64/glibc-2.17/broadwell/gaussian/g16_a.03/pgi-16.5/g16/l303.exe)
 DipDrv:  MaxL=1.
 Leave Link  303 at Sun Dec 10 06:55:53 2023, MaxMem=   536870912 cpu:               0.1 elap:               0.0
 (Enter /usr/site/hpc/x86_64/glibc-2.17/broadwell/gaussian/g16_a.03/pgi-16.5/g16/l401.exe)
 ExpMin= 1.78D-01 ExpMax= 1.92D+01 ExpMxC= 1.92D+01 IAcc=3 IRadAn=         5 AccDes= 0.00D+00
 Harris functional with IExCor=  205 and IRadAn=       5 diagonalized for initial guess.
 HarFok:  IExCor=  205 AccDes= 0.00D+00 IRadAn=         5 IDoV= 1 UseB2=F ITyADJ=14
 ICtDFT=  3500011 ScaDFX=  1.000000  1.000000  1.000000  1.000000
 FoFCou: FMM=F IPFlag=           0 FMFlag=      100000 FMFlg1=           0
         NFxFlg=           0 DoJE=T BraDBF=F KetDBF=T FulRan=T
         wScrn=  0.000000 ICntrl=       500 IOpCl=  0 I1Cent=   200000004 NGrid=           0
         NMat0=    1 NMatS0=      1 NMatT0=    0 NMatD0=    1 NMtDS0=    0 NMtDT0=    0
 Petite list used in FoFCou.
 Harris En= -34.4774934940255    
 JPrj=0 DoOrth=F DoCkMO=F.
 Initial guess orbital symmetries:
       Occupied  (A') (A') (A') (A') (A') (A') (A") (A")
       Virtual   (A') (A') (A') (A') (A') (A") (A") (A') (A') (A')
                 (A') (A') (A') (A') (A') (A')
 The electronic state of the initial guess is 1-A'.
 Leave Link  401 at Sun Dec 10 06:55:53 2023, MaxMem=   536870912 cpu:               0.4 elap:               0.1
 (Enter /usr/site/hpc/x86_64/glibc-2.17/broadwell/gaussian/g16_a.03/pgi-16.5/g16/l502.exe)
 Keep R1 ints in memory in symmetry-blocked form, NReq=852433.
 FoFCou: FMM=F IPFlag=           0 FMFlag=           0 FMFlg1=           0
         NFxFlg=           0 DoJE=F BraDBF=F KetDBF=F FulRan=T
         wScrn=  0.000000 ICntrl=       600 IOpCl=  0 I1Cent=           0 NGrid=           0
         NMat0=    1 NMatS0=    300 NMatT0=    0 NMatD0=    1 NMtDS0=    0 NMtDT0=    0
 Petite list used in FoFCou.
 Closed shell SCF:
 Using DIIS extrapolation, IDIIS=  1040.
 NGot=   536870912 LenX=   536840576 LenY=   536839559
 Requested convergence on RMS density matrix=1.00D-08 within 128 cycles.
 Requested convergence on MAX density matrix=1.00D-06.
 Requested convergence on             energy=1.00D-06.
 No special actions if energy rises.

 Cycle   1  Pass 1  IDiag  1:
 E= -33.5556918211828    
 DIIS: error= 6.86D-02 at cycle   1 NSaved=   1.
 NSaved= 1 IEnMin= 1 EnMin= -33.5556918211828     IErMin= 1 ErrMin= 6.86D-02
 ErrMax= 6.86D-02  0.00D+00 EMaxC= 1.00D-01 BMatC= 1.02D-01 BMatP= 1.02D-01
 IDIUse=3 WtCom= 3.14D-01 WtEn= 6.86D-01
 Coeff-Com:  0.100D+01
 Coeff-En:   0.100D+01
 Coeff:      0.100D+01
 Gap=     0.588 Goal=   None    Shift=    0.000
 GapD=    0.588 DampG=2.000 DampE=0.500 DampFc=1.0000 IDamp=-1.
 RMSDP=1.50D-02 MaxDP=1.17D-01              OVMax= 1.02D-01

 Cycle   2  Pass 1  IDiag  1:
 E= -33.6189175247533     Delta-E=       -0.063225703571 Rises=F Damp=F
 DIIS: error= 3.74D-02 at cycle   2 NSaved=   2.
 NSaved= 2 IEnMin= 2 EnMin= -33.6189175247533     IErMin= 2 ErrMin= 3.74D-02
 ErrMax= 3.74D-02  0.00D+00 EMaxC= 1.00D-01 BMatC= 3.83D-02 BMatP= 1.02D-01
 IDIUse=3 WtCom= 6.26D-01 WtEn= 3.74D-01
 Coeff-Com:  0.377D+00 0.623D+00
 Coeff-En:   0.105D+00 0.895D+00
 Coeff:      0.276D+00 0.724D+00
 Gap=     0.681 Goal=   None    Shift=    0.000
 RMSDP=6.45D-03 MaxDP=5.49D-02 DE=-6.32D-02 OVMax= 3.53D-02

 Cycle   3  Pass 1  IDiag  1:
 E= -33.6494812724669     Delta-E=       -0.030563747714 Rises=F Damp=F
 DIIS: error= 7.29D-03 at cycle   3 NSaved=   3.
 NSaved= 3 IEnMin= 3 EnMin= -33.6494812724669     IErMin= 3 ErrMin= 7.29D-03
 ErrMax= 7.29D-03  0.00D+00 EMaxC= 1.00D-01 BMatC= 9.45D-04 BMatP= 3.83D-02
 IDIUse=3 WtCom= 9.27D-01 WtEn= 7.29D-02
 Coeff-Com: -0.112D+00-0.992D-02 0.112D+01
 Coeff-En:   0.000D+00 0.000D+00 0.100D+01
 Coeff:     -0.104D+00-0.920D-02 0.111D+01
 Gap=     0.673 Goal=   None    Shift=    0.000
 RMSDP=1.13D-03 MaxDP=9.46D-03 DE=-3.06D-02 OVMax= 8.30D-03

 Cycle   4  Pass 1  IDiag  1:
 E= -33.6504244044357     Delta-E=       -0.000943131969 Rises=F Damp=F
 DIIS: error= 7.77D-04 at cycle   4 NSaved=   4.
 NSaved= 4 IEnMin= 4 EnMin= -33.6504244044357     IErMin= 4 ErrMin= 7.77D-04
 ErrMax= 7.77D-04  0.00D+00 EMaxC= 1.00D-01 BMatC= 6.36D-06 BMatP= 9.45D-04
 IDIUse=3 WtCom= 9.92D-01 WtEn= 7.77D-03
 Coeff-Com:  0.423D-01-0.200D-01-0.508D+00 0.149D+01
 Coeff-En:   0.000D+00 0.000D+00 0.000D+00 0.100D+01
 Coeff:      0.419D-01-0.199D-01-0.504D+00 0.148D+01
 Gap=     0.675 Goal=   None    Shift=    0.000
 RMSDP=2.40D-04 MaxDP=2.09D-03 DE=-9.43D-04 OVMax= 1.03D-03

 Cycle   5  Pass 1  IDiag  1:
 E= -33.6504381859899     Delta-E=       -0.000013781554 Rises=F Damp=F
 DIIS: error= 5.77D-05 at cycle   5 NSaved=   5.
 NSaved= 5 IEnMin= 5 EnMin= -33.6504381859899     IErMin= 5 ErrMin= 5.77D-05
 ErrMax= 5.77D-05  0.00D+00 EMaxC= 1.00D-01 BMatC= 5.21D-08 BMatP= 6.36D-06
 IDIUse=1 WtCom= 1.00D+00 WtEn= 0.00D+00
 Coeff-Com: -0.579D-02 0.303D-02 0.697D-01-0.260D+00 0.119D+01
 Coeff:     -0.579D-02 0.303D-02 0.697D-01-0.260D+00 0.119D+01
 Gap=     0.675 Goal=   None    Shift=    0.000
 RMSDP=1.83D-05 MaxDP=1.90D-04 DE=-1.38D-05 OVMax= 1.38D-04

 Cycle   6  Pass 1  IDiag  1:
 E= -33.6504383082639     Delta-E=       -0.000000122274 Rises=F Damp=F
 DIIS: error= 1.19D-05 at cycle   6 NSaved=   6.
 NSaved= 6 IEnMin= 6 EnMin= -33.6504383082639     IErMin= 6 ErrMin= 1.19D-05
 ErrMax= 1.19D-05  0.00D+00 EMaxC= 1.00D-01 BMatC= 5.53D-09 BMatP= 5.21D-08
 IDIUse=1 WtCom= 1.00D+00 WtEn= 0.00D+00
 Coeff-Com: -0.226D-02 0.121D-02 0.276D-01-0.889D-01 0.168D+00 0.895D+00
 Coeff:     -0.226D-02 0.121D-02 0.276D-01-0.889D-01 0.168D+00 0.895D+00
 Gap=     0.675 Goal=   None    Shift=    0.000
 RMSDP=3.74D-06 MaxDP=4.37D-05 DE=-1.22D-07 OVMax= 3.65D-05

 Cycle   7  Pass 1  IDiag  1:
 E= -33.6504383166724     Delta-E=       -0.000000008409 Rises=F Damp=F
 DIIS: error= 5.56D-06 at cycle   7 NSaved=   7.
 NSaved= 7 IEnMin= 7 EnMin= -33.6504383166724     IErMin= 7 ErrMin= 5.56D-06
 ErrMax= 5.56D-06  0.00D+00 EMaxC= 1.00D-01 BMatC= 8.11D-10 BMatP= 5.53D-09
 IDIUse=1 WtCom= 1.00D+00 WtEn= 0.00D+00
 Coeff-Com:  0.878D-03-0.397D-03-0.103D-01 0.384D-01-0.190D+00 0.687D-01
 Coeff-Com:  0.109D+01
 Coeff:      0.878D-03-0.397D-03-0.103D-01 0.384D-01-0.190D+00 0.687D-01
 Coeff:      0.109D+01
 Gap=     0.675 Goal=   None    Shift=    0.000
 RMSDP=2.00D-06 MaxDP=1.98D-05 DE=-8.41D-09 OVMax= 2.04D-05

 Cycle   8  Pass 1  IDiag  1:
 E= -33.6504383183510     Delta-E=       -0.000000001679 Rises=F Damp=F
 DIIS: error= 1.23D-06 at cycle   8 NSaved=   8.
 NSaved= 8 IEnMin= 8 EnMin= -33.6504383183510     IErMin= 8 ErrMin= 1.23D-06
 ErrMax= 1.23D-06  0.00D+00 EMaxC= 1.00D-01 BMatC= 2.95D-11 BMatP= 8.11D-10
 IDIUse=1 WtCom= 1.00D+00 WtEn= 0.00D+00
 Coeff-Com:  0.724D-05-0.367D-04-0.220D-03-0.384D-03 0.266D-01-0.716D-01
 Coeff-Com: -0.226D+00 0.127D+01
 Coeff:      0.724D-05-0.367D-04-0.220D-03-0.384D-03 0.266D-01-0.716D-01
 Coeff:     -0.226D+00 0.127D+01
 Gap=     0.675 Goal=   None    Shift=    0.000
 RMSDP=6.02D-07 MaxDP=3.88D-06 DE=-1.68D-09 OVMax= 4.53D-06

 Cycle   9  Pass 1  IDiag  1:
 E= -33.6504383184319     Delta-E=       -0.000000000081 Rises=F Damp=F
 DIIS: error= 1.96D-07 at cycle   9 NSaved=   9.
 NSaved= 9 IEnMin= 9 EnMin= -33.6504383184319     IErMin= 9 ErrMin= 1.96D-07
 ErrMax= 1.96D-07  0.00D+00 EMaxC= 1.00D-01 BMatC= 8.69D-13 BMatP= 2.95D-11
 IDIUse=1 WtCom= 1.00D+00 WtEn= 0.00D+00
 Coeff-Com:  0.174D-05 0.106D-04 0.354D-04 0.223D-03-0.945D-02 0.271D-01
 Coeff-Com:  0.781D-01-0.534D+00 0.144D+01
 Coeff:      0.174D-05 0.106D-04 0.354D-04 0.223D-03-0.945D-02 0.271D-01
 Coeff:      0.781D-01-0.534D+00 0.144D+01
 Gap=     0.675 Goal=   None    Shift=    0.000
 RMSDP=1.44D-07 MaxDP=6.48D-07 DE=-8.09D-11 OVMax= 9.82D-07

 Cycle  10  Pass 1  IDiag  1:
 E= -33.6504383184344     Delta-E=       -0.000000000002 Rises=F Damp=F
 DIIS: error= 1.09D-08 at cycle  10 NSaved=  10.
 NSaved=10 IEnMin=10 EnMin= -33.6504383184344     IErMin=10 ErrMin= 1.09D-08
 ErrMax= 1.09D-08  0.00D+00 EMaxC= 1.00D-01 BMatC= 5.19D-15 BMatP= 8.69D-13
 IDIUse=1 WtCom= 1.00D+00 WtEn= 0.00D+00
 Coeff-Com:  0.424D-06-0.221D-05-0.154D-04-0.554D-05 0.160D-02-0.511D-02
 Coeff-Com: -0.140D-01 0.100D+00-0.333D+00 0.125D+01
 Coeff:      0.424D-06-0.221D-05-0.154D-04-0.554D-05 0.160D-02-0.511D-02
 Coeff:     -0.140D-01 0.100D+00-0.333D+00 0.125D+01
 Gap=     0.675 Goal=   None    Shift=    0.000
 RMSDP=1.42D-08 MaxDP=6.90D-08 DE=-2.45D-12 OVMax= 8.71D-08

 Cycle  11  Pass 1  IDiag  1:
 E= -33.6504383184344     Delta-E=       -0.000000000000 Rises=F Damp=F
 DIIS: error= 7.63D-10 at cycle  11 NSaved=  11.
 NSaved=11 IEnMin=11 EnMin= -33.6504383184344     IErMin=11 ErrMin= 7.63D-10
 ErrMax= 7.63D-10  0.00D+00 EMaxC= 1.00D-01 BMatC= 2.67D-17 BMatP= 5.19D-15
 IDIUse=1 WtCom= 1.00D+00 WtEn= 0.00D+00
 Coeff-Com: -0.108D-06 0.449D-06 0.332D-05 0.332D-06-0.329D-03 0.106D-02
 Coeff-Com:  0.287D-02-0.210D-01 0.706D-01-0.301D+00 0.125D+01
 Coeff:     -0.108D-06 0.449D-06 0.332D-05 0.332D-06-0.329D-03 0.106D-02
 Coeff:      0.287D-02-0.210D-01 0.706D-01-0.301D+00 0.125D+01
 Gap=     0.675 Goal=   None    Shift=    0.000
 RMSDP=7.78D-10 MaxDP=3.62D-09 DE=-6.39D-14 OVMax= 4.59D-09

 SCF Done:  E(RHF) =  -33.6504383184     A.U. after   11 cycles
            NFock= 11  Conv=0.78D-09     -V/T= 2.2571
 KE= 2.676890767730D+01 PE=-1.281204060385D+02 EE= 4.453650800943D+01
 Leave Link  502 at Sun Dec 10 06:55:53 2023, MaxMem=   536870912 cpu:               0.3 elap:               0.1
 (Enter /usr/site/hpc/x86_64/glibc-2.17/broadwell/gaussian/g16_a.03/pgi-16.5/g16/l801.exe)
 Windowed orbitals will be sorted by symmetry type.
 Range of M.O.s used for correlation:     1    24
 NBasis=    24 NAE=     8 NBE=     8 NFC=     0 NFV=     0
 NROrb=     24 NOA=     8 NOB=     8 NVA=    16 NVB=    16
 Leave Link  801 at Sun Dec 10 06:55:53 2023, MaxMem=   536870912 cpu:               0.1 elap:               0.0
 (Enter /usr/site/hpc/x86_64/glibc-2.17/broadwell/gaussian/g16_a.03/pgi-16.5/g16/l804.exe)
 Closed-shell transformation, MDV=   536870912 ITran=4 ISComp=2.
 Unit  1 TFree=       1025975 TCopy=        210600.
 Semi-Direct transformation.
 ModeAB=           2 MOrb=             8 LenV=     536741848
 LASXX=        22470 LTotXX=       22470 LenRXX=       22470
 LTotAB=       26208 MaxLAS=       57600 LenRXY=       57600
 NonZer=       62208 LenScr=      524288 LnRSAI=           0
 LnScr1=           0 LExtra=           0 Total=       604358
 MaxDsk=          -1 SrtSym=           F ITran=            4
 DoSDTr:  NPSUse=  4
 JobTyp=0 Pass  1:  I=   1 to   8.
 (rs|ai) integrals will be sorted in core.
 Complete sort for first half transformation.
 First half transformation complete.
 Complete sort for second half transformation.
 Second half transformation complete.
 Spin components of T(2) and E(2):
     alpha-alpha T2 =       0.9098203843D-02 E2=     -0.2596944235D-01
     alpha-beta  T2 =       0.6009135202D-01 E2=     -0.1769770335D+00
     beta-beta   T2 =       0.9098203843D-02 E2=     -0.2596944235D-01
 ANorm=    0.1038406356D+01
 E2 =    -0.2289159181D+00 EUMP2 =    -0.33879354236583D+02
 Leave Link  804 at Sun Dec 10 06:55:53 2023, MaxMem=   536870912 cpu:               0.2 elap:               0.1
 (Enter /usr/site/hpc/x86_64/glibc-2.17/broadwell/gaussian/g16_a.03/pgi-16.5/g16/l913.exe)
 CIDS:  MDV=   536870912.
 IFCWin=0 IBDFC=1 NFBD=     0     0 NFCmp=     0     0 NFFFC=     0     0
 Using DD3R+UMP44R for 1st iteration.
 Using DD4RQ for 2nd and later iterations.
 Keep R2 and R3 ints in memory in symmetry-blocked form, NReq=865041.
 FoFCou: FMM=F IPFlag=           0 FMFlag=           0 FMFlg1=           0
         NFxFlg=           0 DoJE=F BraDBF=F KetDBF=F FulRan=T
         wScrn=  0.000000 ICntrl=       600 IOpCl=  0 I1Cent=           0 NGrid=           0
         NMat0=    1 NMatS0=    300 NMatT0=    0 NMatD0=    1 NMtDS0=    0 NMtDT0=    0
 Petite list used in FoFCou.
 CIDS: In Core Option IDoMem=           1.
 CCSD(T)
 =======
 Iterations=  50 Convergence= 0.100D-06
 Produce multiple copies of IABC intergrals
 Iteration Nr.   1
 **********************
 DD1Dir will call FoFMem   1 times, MxPair=        72
 NAB=    36 NAA=     0 NBB=     0.
 MP4(R+Q)= -0.71831810D-03
 Maximum subspace dimension=  5
 A-vector RMS=  5.8532303D-03 Max=  1.2005108D-02 conv= 1.00D-05.
 RLE energy=       -0.2349611598
 E3=       -0.54490595D-02        EUMP3=      -0.33884803296D+02
 E4(DQ)=   -0.59167115D-02        UMP4(DQ)=   -0.33890720008D+02
 E4(SDQ)=  -0.79925162D-02        UMP4(SDQ)=  -0.33892795812D+02
 VARIATIONAL ENERGIES WITH THE FIRST-ORDER WAVEFUNCTION:
 DE(Corr)= -0.23480597     E(Corr)=     -33.885244288    
 NORM(A)=   0.10418720D+01
 Iteration Nr.   2
 **********************
 DD1Dir will call FoFMem   1 times, MxPair=        72
 NAB=    36 NAA=     0 NBB=     0.
 A-vector RMS=  9.8065553D-04 Max=  2.5592563D-03 conv= 1.00D-05.
 RLE energy=       -0.2427966485
 DE(Corr)= -0.24085339     E(CORR)=     -33.891291705     Delta=-6.05D-03
 NORM(A)=   0.10457093D+01
 Iteration Nr.   3
 **********************
 DD1Dir will call FoFMem   1 times, MxPair=        72
 NAB=    36 NAA=     0 NBB=     0.
 A-vector RMS=  3.9557572D-04 Max=  1.1827717D-03 conv= 1.00D-05.
 RLE energy=       -0.2433520181
 DE(Corr)= -0.24289652     E(CORR)=     -33.893334839     Delta=-2.04D-03
 NORM(A)=   0.10462817D+01
 Iteration Nr.   4
 **********************
 DD1Dir will call FoFMem   1 times, MxPair=        72
 NAB=    36 NAA=     0 NBB=     0.
 A-vector RMS=  9.7475562D-05 Max=  2.8587078D-04 conv= 1.00D-05.
 RLE energy=       -0.2434009953
 DE(Corr)= -0.24336429     E(CORR)=     -33.893802613     Delta=-4.68D-04
 NORM(A)=   0.10463579D+01
 Iteration Nr.   5
 **********************
 DD1Dir will call FoFMem   1 times, MxPair=        72
 NAB=    36 NAA=     0 NBB=     0.
 A-vector RMS=  4.2317129D-05 Max=  1.5044137D-04 conv= 1.00D-05.
 RLE energy=       -0.2433997608
 DE(Corr)= -0.24339719     E(CORR)=     -33.893835507     Delta=-3.29D-05
 NORM(A)=   0.10463687D+01
 Iteration Nr.   6
 **********************
 DD1Dir will call FoFMem   1 times, MxPair=        72
 NAB=    36 NAA=     0 NBB=     0.
 A-vector RMS=  1.4106400D-05 Max=  5.5271495D-05 conv= 1.00D-05.
 RLE energy=       -0.2433974395
 DE(Corr)= -0.24339965     E(CORR)=     -33.893837973     Delta=-2.47D-06
 NORM(A)=   0.10463716D+01
 Iteration Nr.   7
 **********************
 DD1Dir will call FoFMem   1 times, MxPair=        72
 NAB=    36 NAA=     0 NBB=     0.
 A-vector RMS=  4.5392535D-06 Max=  1.6340808D-05 conv= 1.00D-05.
 RLE energy=       -0.2433988676
 DE(Corr)= -0.24339908     E(CORR)=     -33.893837395     Delta= 5.78D-07
 NORM(A)=   0.10463732D+01
 Iteration Nr.   8
 **********************
 DD1Dir will call FoFMem   1 times, MxPair=        72
 NAB=    36 NAA=     0 NBB=     0.
 A-vector RMS=  1.5179922D-06 Max=  5.1313986D-06 conv= 1.00D-05.
 RLE energy=       -0.2433986776
 DE(Corr)= -0.24339883     E(CORR)=     -33.893837144     Delta= 2.51D-07
 NORM(A)=   0.10463736D+01
 Iteration Nr.   9
 **********************
 DD1Dir will call FoFMem   1 times, MxPair=        72
 NAB=    36 NAA=     0 NBB=     0.
 A-vector RMS=  3.7183608D-07 Max=  1.3622312D-06 conv= 1.00D-05.
 RLE energy=       -0.2433988975
 DE(Corr)= -0.24339893     E(CORR)=     -33.893837244     Delta=-1.00D-07
 NORM(A)=   0.10463738D+01
 CI/CC converged in    9 iterations to DelEn=-1.00D-07 Conv= 1.00D-07 ErrA1= 3.72D-07 Conv= 1.00D-05
 Wavefunction amplitudes converged. E(Corr)=     -33.893837244    
 Largest amplitude= 4.27D-02
 IPart=  2 IA=    2   12.50% done.
 IPart=  3 IA=    3   24.17% done.
 IPart=  4 IA=    4   35.00% done.
 IPart=  4 IA=    5   45.00% done.
 IPart=  2 IA=    6   54.17% done.
 IPart=  3 IA=    7   62.50% done.
 IPart=  1 IA=    8   70.00% done.
 IPart=  3 IA=   10   82.50% done.
 IPart=  4 IA=   12   91.67% done.
 Time for triples=        0.26 seconds.
 T4(CCSD)= -0.31438974D-02
 T5(CCSD)=  0.53857059D-03
 CCSD(T)= -0.33896442570D+02
 Discarding MO integrals.
 Leave Link  913 at Sun Dec 10 06:55:53 2023, MaxMem=   536870912 cpu:               0.9 elap:               0.2
 (Enter /usr/site/hpc/x86_64/glibc-2.17/broadwell/gaussian/g16_a.03/pgi-16.5/g16/l601.exe)
 Copying SCF densities to generalized density rwf, IOpCl= 0 IROHF=0.

 **********************************************************************

            Population analysis using the SCF density.

 **********************************************************************

 Orbital symmetries:
       Occupied  (A') (A') (A') (A') (A') (A') (A") (A")
       Virtual   (A') (A') (A') (A') (A') (A") (A") (A') (A') (A')
                 (A') (A') (A') (A') (A') (A')
 The electronic state is 1-A'.
 Alpha  occ. eigenvalues --   -1.35296  -1.33285  -0.70936  -0.68839  -0.54981
 Alpha  occ. eigenvalues --   -0.52887  -0.49853  -0.47847
 Alpha virt. eigenvalues --    0.19668   0.23342   0.30564   0.32726   0.75722
 Alpha virt. eigenvalues --    0.79602   0.83829   0.85927   0.87855   1.05044
 Alpha virt. eigenvalues --    1.17482   1.20553   1.22034   1.25725   2.56085
 Alpha virt. eigenvalues --    2.63285
          Condensed to atoms (all electrons):
               1          2          3          4          5          6
     1  O    6.212541   0.257305   0.267208  -0.000624   0.000036   0.000717
     2  H    0.257305   0.404766  -0.023465   0.000036  -0.000001  -0.000052
     3  H    0.267208  -0.023465   0.379587   0.000034  -0.000001  -0.000014
     4  O   -0.000624   0.000036   0.000034   6.211813   0.253306   0.266436
     5  H    0.000036  -0.000001  -0.000001   0.253306   0.418812  -0.024030
     6  H    0.000717  -0.000052  -0.000014   0.266436  -0.024030   0.378696
 Mulliken charges:
               1
     1  O   -0.737183
     2  H    0.361410
     3  H    0.376651
     4  O   -0.731001
     5  H    0.351877
     6  H    0.378246
 Sum of Mulliken charges =   0.00000
 Mulliken charges with hydrogens summed into heavy atoms:
               1
     1  O    0.000878
     4  O   -0.000878
 Electronic spatial extent (au):  <R**2>=            210.6235
 Charge=              0.0000 electrons
 Dipole moment (field-independent basis, Debye):
    X=             -2.3838    Y=             -1.7408    Z=              0.0000  Tot=              2.9518
 Quadrupole moment (field-independent basis, Debye-Ang):
   XX=             -9.8433   YY=              1.5447   ZZ=            -14.9902
   XY=             -3.7291   XZ=              0.0000   YZ=              0.0000
 Traceless Quadrupole moment (field-independent basis, Debye-Ang):
   XX=             -2.0803   YY=              9.3076   ZZ=             -7.2273
   XY=             -3.7291   XZ=              0.0000   YZ=              0.0000
 Octapole moment (field-independent basis, Debye-Ang**2):
  XXX=             -1.5290  YYY=             -5.6610  ZZZ=              0.0000  XYY=             -4.8469
  XXY=             -5.0567  XXZ=              0.0000  XZZ=             -0.4413  YZZ=             -0.3462
  YYZ=              0.0000  XYZ=              0.0000
 Hexadecapole moment (field-independent basis, Debye-Ang**3):
 XXXX=            -12.4041 YYYY=           -117.0786 ZZZZ=            -12.2248 XXXY=             -0.5551
 XXXZ=              0.0000 YYYX=             -9.6869 YYYZ=              0.0000 ZZZX=              0.0000
 ZZZY=              0.0000 XXYY=            -30.8990 XXZZ=             -4.5479 YYZZ=            -48.5350
 XXYZ=              0.0000 YYXZ=              0.0000 ZZXY=              0.4883
 N-N= 2.316455203331D+01 E-N=-1.281204060402D+02  KE= 2.676890767730D+01
 Symmetry A'   KE= 1.788634421082D+01
 Symmetry A"   KE= 8.882563466486D+00
 Leave Link  601 at Sun Dec 10 06:55:53 2023, MaxMem=   536870912 cpu:               0.1 elap:               0.0
 (Enter /usr/site/hpc/x86_64/glibc-2.17/broadwell/gaussian/g16_a.03/pgi-16.5/g16/l9999.exe)
 1\1\GINC-N033\SP\RCCSD(T)-FC\CEP-31G\H4O2\ROOT\10-Dec-2023\0\\#p CCSD(
 T)/CEP-31G\\H2O_H2O_1668\\0,1\O,0,0.,-0.009833,0.\H,0,-0.799571,-0.580
 965,0.\H,0,0.799571,-0.580965,0.\O,0,-0.009085,3.346355,0.\H,0,-0.2307
 59,4.303625,0.\H,0,-0.842725,2.82621,0.\\Version=ES64L-G16RevA.03\Stat
 e=1-A'\HF=-33.6504383\MP2=-33.8793542\MP3=-33.8848033\MP4D=-33.8900017
 \MP4DQ=-33.89072\MP4SDQ=-33.8927958\CCSD=-33.8938372\CCSD(T)=-33.89644
 26\RMSD=7.784e-10\PG=CS [SG(H4O2)]\\@


 NATURE WILL TELL YOU A DIRECT LIE IF SHE CAN.

                                -- CHARLES DARWIN
 Job cpu time:       0 days  0 hours  0 minutes  3.2 seconds.
 Elapsed time:       0 days  0 hours  0 minutes  1.0 seconds.
 File lengths (MBytes):  RWF=     72 Int=      0 D2E=      0 Chk=      8 Scr=      8
 Normal termination of Gaussian 16 at Sun Dec 10 06:55:53 2023.
