 Entering Gaussian System, Link 0=g16
 Input=H2O_H2O_323.com
 Output=H2O_H2O_323.log
 Initial command:
 /usr/site/hpc/x86_64/glibc-2.17/broadwell/gaussian/g16_a.03/pgi-16.5/g16/l1.exe "/gpfs/gpfs1/scratch/c7441090/OO Coord/Gau-1187802.inp" -scrdir="/gpfs/gpfs1/scratch/c7441090/OO Coord/"
 Entering Link 1 = /usr/site/hpc/x86_64/glibc-2.17/broadwell/gaussian/g16_a.03/pgi-16.5/g16/l1.exe PID=   1187803.
  
 Copyright (c) 1988,1990,1992,1993,1995,1998,2003,2009,2016,
            Gaussian, Inc.  All Rights Reserved.
  
 This is part of the Gaussian(R) 16 program.  It is based on
 the Gaussian(R) 09 system (copyright 2009, Gaussian, Inc.),
 the Gaussian(R) 03 system (copyright 2003, Gaussian, Inc.),
 the Gaussian(R) 98 system (copyright 1998, Gaussian, Inc.),
 the Gaussian(R) 94 system (copyright 1995, Gaussian, Inc.),
 the Gaussian 92(TM) system (copyright 1992, Gaussian, Inc.),
 the Gaussian 90(TM) system (copyright 1990, Gaussian, Inc.),
 the Gaussian 88(TM) system (copyright 1988, Gaussian, Inc.),
 the Gaussian 86(TM) system (copyright 1986, Carnegie Mellon
 University), and the Gaussian 82(TM) system (copyright 1983,
 Carnegie Mellon University). Gaussian is a federally registered
 trademark of Gaussian, Inc.
  
 This software contains proprietary and confidential information,
 including trade secrets, belonging to Gaussian, Inc.
  
 This software is provided under written license and may be
 used, copied, transmitted, or stored only in accord with that
 written license.
  
 The following legend is applicable only to US Government
 contracts under FAR:
  
                    RESTRICTED RIGHTS LEGEND
  
 Use, reproduction and disclosure by the US Government is
 subject to restrictions as set forth in subparagraphs (a)
 and (c) of the Commercial Computer Software - Restricted
 Rights clause in FAR 52.227-19.
  
 Gaussian, Inc.
 340 Quinnipiac St., Bldg. 40, Wallingford CT 06492
  
  
 ---------------------------------------------------------------
 Warning -- This program may not be used in any manner that
 competes with the business of Gaussian, Inc. or will provide
 assistance to any competitor of Gaussian, Inc.  The licensee
 of this program is prohibited from giving any competitor of
 Gaussian, Inc. access to this program.  By using this program,
 the user acknowledges that Gaussian, Inc. is engaged in the
 business of creating and licensing software in the field of
 computational chemistry and represents and warrants to the
 licensee that it is not a competitor of Gaussian, Inc. and that
 it will not use this program in any manner prohibited above.
 ---------------------------------------------------------------
  

 Cite this work as:
 Gaussian 16, Revision A.03,
 M. J. Frisch, G. W. Trucks, H. B. Schlegel, G. E. Scuseria, 
 M. A. Robb, J. R. Cheeseman, G. Scalmani, V. Barone, 
 G. A. Petersson, H. Nakatsuji, X. Li, M. Caricato, A. V. Marenich, 
 J. Bloino, B. G. Janesko, R. Gomperts, B. Mennucci, H. P. Hratchian, 
 J. V. Ortiz, A. F. Izmaylov, J. L. Sonnenberg, D. Williams-Young, 
 F. Ding, F. Lipparini, F. Egidi, J. Goings, B. Peng, A. Petrone, 
 T. Henderson, D. Ranasinghe, V. G. Zakrzewski, J. Gao, N. Rega, 
 G. Zheng, W. Liang, M. Hada, M. Ehara, K. Toyota, R. Fukuda, 
 J. Hasegawa, M. Ishida, T. Nakajima, Y. Honda, O. Kitao, H. Nakai, 
 T. Vreven, K. Throssell, J. A. Montgomery, Jr., J. E. Peralta, 
 F. Ogliaro, M. J. Bearpark, J. J. Heyd, E. N. Brothers, K. N. Kudin, 
 V. N. Staroverov, T. A. Keith, R. Kobayashi, J. Normand, 
 K. Raghavachari, A. P. Rendell, J. C. Burant, S. S. Iyengar, 
 J. Tomasi, M. Cossi, J. M. Millam, M. Klene, C. Adamo, R. Cammi, 
 J. W. Ochterski, R. L. Martin, K. Morokuma, O. Farkas, 
 J. B. Foresman, and D. J. Fox, Gaussian, Inc., Wallingford CT, 2016.
 
 ******************************************
 Gaussian 16:  ES64L-G16RevA.03 25-Dec-2016
                10-Dec-2023 
 ******************************************
 %NProcShared=4
 Will use up to    4 processors via shared memory.
 %Mem=4GB
 %Chk=H2O_H2O_323.chk
 ------------------
 #p CCSD(T)/CEP-31G
 ------------------
 1/38=1,172=1/1;
 2/12=2,17=6,18=5,40=1/2;
 3/5=9,6=1,11=9,25=1,30=1/1,2,3;
 4//1;
 5/5=2,38=5/2;
 8/6=4,9=120000,10=1/1,4;
 9/5=7,14=2/13;
 6/7=2,8=2,9=2,10=2/1;
 99/5=1,9=1/99;
 Leave Link    1 at Sun Dec 10 06:30:47 2023, MaxMem=   536870912 cpu:               0.2 elap:               0.1
 (Enter /usr/site/hpc/x86_64/glibc-2.17/broadwell/gaussian/g16_a.03/pgi-16.5/g16/l101.exe)
 -----------
 H2O_H2O_323
 -----------
 Symbolic Z-matrix:
 Charge =  0 Multiplicity = 1
 O                     0.       -0.00983   0. 
 H                    -0.79957  -0.58097   0. 
 H                     0.79957  -0.58097   0. 
 O                    -0.00981   1.90728   0. 
 H                    -0.52743   2.74249   0. 
 H                    -0.63202   1.14677   0. 
 
 ITRead=  0  0  0  0  0  0
 MicOpt= -1 -1 -1 -1 -1 -1
 NAtoms=      6 NQM=        6 NQMF=       0 NMMI=      0 NMMIF=      0
                NMic=       0 NMicF=      0.
                    Isotopes and Nuclear Properties:
 (Nuclear quadrupole moments (NQMom) in fm**2, nuclear magnetic moments (NMagM)
  in nuclear magnetons)

  Atom         1           2           3           4           5           6
 IAtWgt=          16           1           1          16           1           1
 AtmWgt=  15.9949146   1.0078250   1.0078250  15.9949146   1.0078250   1.0078250
 NucSpn=           0           1           1           0           1           1
 AtZEff=  -0.0000000  -0.0000000  -0.0000000  -0.0000000  -0.0000000  -0.0000000
 NQMom=    0.0000000   0.0000000   0.0000000   0.0000000   0.0000000   0.0000000
 NMagM=    0.0000000   2.7928460   2.7928460   0.0000000   2.7928460   2.7928460
 AtZNuc=   8.0000000   1.0000000   1.0000000   8.0000000   1.0000000   1.0000000
 Leave Link  101 at Sun Dec 10 06:30:47 2023, MaxMem=   536870912 cpu:               0.3 elap:               0.1
 (Enter /usr/site/hpc/x86_64/glibc-2.17/broadwell/gaussian/g16_a.03/pgi-16.5/g16/l202.exe)
                          Input orientation:                          
 ---------------------------------------------------------------------
 Center     Atomic      Atomic             Coordinates (Angstroms)
 Number     Number       Type             X           Y           Z
 ---------------------------------------------------------------------
      1          8           0        0.000000   -0.009833    0.000000
      2          1           0       -0.799571   -0.580965    0.000000
      3          1           0        0.799571   -0.580965    0.000000
      4          8           0       -0.009812    1.907277    0.000000
      5          1           0       -0.527427    2.742490    0.000000
      6          1           0       -0.632016    1.146771    0.000000
 ---------------------------------------------------------------------
                    Distance matrix (angstroms):
                    1          2          3          4          5
     1  O    0.000000
     2  H    0.982601   0.000000
     3  H    0.982601   1.599142   0.000000
     4  O    1.917135   2.610568   2.616572   0.000000
     5  H    2.802403   3.334579   3.578586   0.982602   0.000000
     6  H    1.318020   1.735842   2.243772   0.982602   1.599143
                    6
     6  H    0.000000
 Stoichiometry    H4O2
 Framework group  CS[SG(H4O2)]
 Deg. of freedom     9
 Full point group                 CS      NOp   2
 Largest Abelian subgroup         CS      NOp   2
 Largest concise Abelian subgroup C1      NOp   1
                         Standard orientation:                         
 ---------------------------------------------------------------------
 Center     Atomic      Atomic             Coordinates (Angstroms)
 Number     Number       Type             X           Y           Z
 ---------------------------------------------------------------------
      1          8           0        0.057263   -0.905482    0.000000
      2          1           0       -0.745220   -1.472514    0.000000
      3          1           0        0.853901   -1.480699    0.000000
      4          8           0        0.057263    1.011653    0.000000
      5          1           0       -0.456070    1.849504    0.000000
      6          1           0       -0.568825    0.254341    0.000000
 ---------------------------------------------------------------------
 Rotational constants (GHZ):         268.9771155          13.5109092          12.8647060
 Leave Link  202 at Sun Dec 10 06:30:48 2023, MaxMem=   536870912 cpu:               0.1 elap:               0.0
 (Enter /usr/site/hpc/x86_64/glibc-2.17/broadwell/gaussian/g16_a.03/pgi-16.5/g16/l301.exe)
 Standard basis: CEP-31G (6D, 10F)
 Ernie: Thresh=  0.10000D-02 Tol=  0.10000D-05 Strict=F.
 There are    20 symmetry adapted cartesian basis functions of A'  symmetry.
 There are     4 symmetry adapted cartesian basis functions of A"  symmetry.
 There are    20 symmetry adapted basis functions of A'  symmetry.
 There are     4 symmetry adapted basis functions of A"  symmetry.
    24 basis functions,    48 primitive gaussians,    24 cartesian basis functions
     8 alpha electrons        8 beta electrons
       nuclear repulsion energy        30.3427391842 Hartrees.
 IExCor=    0 DFT=F Ex=HF Corr=None ExCW=0 ScaHFX=  1.000000
 ScaDFX=  1.000000  1.000000  1.000000  1.000000 ScalE2=  1.000000  1.000000
 IRadAn=      5 IRanWt=     -1 IRanGd=            0 ICorTp=0 IEmpDi=  4
 NAtoms=    6 NActive=    6 NUniq=    6 SFac= 1.00D+00 NAtFMM=   60 NAOKFM=F Big=F
 Integral buffers will be    131072 words long.
 Raffenetti 1 integral format.
 Two-electron integral symmetry is turned on.
 Leave Link  301 at Sun Dec 10 06:30:48 2023, MaxMem=   536870912 cpu:               0.2 elap:               0.1
 (Enter /usr/site/hpc/x86_64/glibc-2.17/broadwell/gaussian/g16_a.03/pgi-16.5/g16/l302.exe)
 NPDir=0 NMtPBC=     1 NCelOv=     1 NCel=       1 NClECP=     1 NCelD=      1
         NCelK=      1 NCelE2=     1 NClLst=     1 CellRange=     0.0.
 One-electron integrals computed using PRISM.
 One-electron integral symmetry used in STVInt
   2 Symmetry operations used in ECPInt.
 ECPInt:  NShTT=      78 NPrTT=     318 LenC2=      79 LenP2D=     302.
 LDataN:  DoStor=T MaxTD1= 2 Len=   12
 NBasis=    24 RedAO= T EigKep=  1.91D-02  NBF=    20     4
 NBsUse=    24 1.00D-06 EigRej= -1.00D+00 NBFU=    20     4
 Leave Link  302 at Sun Dec 10 06:30:48 2023, MaxMem=   536870912 cpu:               0.3 elap:               0.1
 (Enter /usr/site/hpc/x86_64/glibc-2.17/broadwell/gaussian/g16_a.03/pgi-16.5/g16/l303.exe)
 DipDrv:  MaxL=1.
 Leave Link  303 at Sun Dec 10 06:30:48 2023, MaxMem=   536870912 cpu:               0.1 elap:               0.0
 (Enter /usr/site/hpc/x86_64/glibc-2.17/broadwell/gaussian/g16_a.03/pgi-16.5/g16/l401.exe)
 ExpMin= 1.78D-01 ExpMax= 1.92D+01 ExpMxC= 1.92D+01 IAcc=3 IRadAn=         5 AccDes= 0.00D+00
 Harris functional with IExCor=  205 and IRadAn=       5 diagonalized for initial guess.
 HarFok:  IExCor=  205 AccDes= 0.00D+00 IRadAn=         5 IDoV= 1 UseB2=F ITyADJ=14
 ICtDFT=  3500011 ScaDFX=  1.000000  1.000000  1.000000  1.000000
 FoFCou: FMM=F IPFlag=           0 FMFlag=      100000 FMFlg1=           0
         NFxFlg=           0 DoJE=T BraDBF=F KetDBF=T FulRan=T
         wScrn=  0.000000 ICntrl=       500 IOpCl=  0 I1Cent=   200000004 NGrid=           0
         NMat0=    1 NMatS0=      1 NMatT0=    0 NMatD0=    1 NMtDS0=    0 NMtDT0=    0
 Petite list used in FoFCou.
 Harris En= -34.4257351079134    
 JPrj=0 DoOrth=F DoCkMO=F.
 Initial guess orbital symmetries:
       Occupied  (A') (A') (A') (A') (A') (A") (A') (A")
       Virtual   (A') (A') (A') (A') (A") (A') (A") (A') (A') (A')
                 (A') (A') (A') (A') (A') (A')
 The electronic state of the initial guess is 1-A'.
 Leave Link  401 at Sun Dec 10 06:30:48 2023, MaxMem=   536870912 cpu:               0.4 elap:               0.1
 (Enter /usr/site/hpc/x86_64/glibc-2.17/broadwell/gaussian/g16_a.03/pgi-16.5/g16/l502.exe)
 Keep R1 ints in memory in symmetry-blocked form, NReq=852802.
 FoFCou: FMM=F IPFlag=           0 FMFlag=           0 FMFlg1=           0
         NFxFlg=           0 DoJE=F BraDBF=F KetDBF=F FulRan=T
         wScrn=  0.000000 ICntrl=       600 IOpCl=  0 I1Cent=           0 NGrid=           0
         NMat0=    1 NMatS0=    300 NMatT0=    0 NMatD0=    1 NMtDS0=    0 NMtDT0=    0
 Petite list used in FoFCou.
 Closed shell SCF:
 Using DIIS extrapolation, IDIIS=  1040.
 NGot=   536870912 LenX=   536840576 LenY=   536839559
 Requested convergence on RMS density matrix=1.00D-08 within 128 cycles.
 Requested convergence on MAX density matrix=1.00D-06.
 Requested convergence on             energy=1.00D-06.
 No special actions if energy rises.

 Cycle   1  Pass 1  IDiag  1:
 E= -33.4567203387075    
 DIIS: error= 6.79D-02 at cycle   1 NSaved=   1.
 NSaved= 1 IEnMin= 1 EnMin= -33.4567203387075     IErMin= 1 ErrMin= 6.79D-02
 ErrMax= 6.79D-02  0.00D+00 EMaxC= 1.00D-01 BMatC= 1.17D-01 BMatP= 1.17D-01
 IDIUse=3 WtCom= 3.21D-01 WtEn= 6.79D-01
 Coeff-Com:  0.100D+01
 Coeff-En:   0.100D+01
 Coeff:      0.100D+01
 Gap=     0.505 Goal=   None    Shift=    0.000
 GapD=    0.505 DampG=2.000 DampE=0.500 DampFc=1.0000 IDamp=-1.
 RMSDP=2.05D-02 MaxDP=1.40D-01              OVMax= 1.24D-01

 Cycle   2  Pass 1  IDiag  1:
 E= -33.5285576952349     Delta-E=       -0.071837356527 Rises=F Damp=F
 DIIS: error= 4.10D-02 at cycle   2 NSaved=   2.
 NSaved= 2 IEnMin= 2 EnMin= -33.5285576952349     IErMin= 2 ErrMin= 4.10D-02
 ErrMax= 4.10D-02  0.00D+00 EMaxC= 1.00D-01 BMatC= 4.73D-02 BMatP= 1.17D-01
 IDIUse=3 WtCom= 5.90D-01 WtEn= 4.10D-01
 Coeff-Com:  0.386D+00 0.614D+00
 Coeff-En:   0.124D+00 0.876D+00
 Coeff:      0.279D+00 0.721D+00
 Gap=     0.624 Goal=   None    Shift=    0.000
 RMSDP=8.92D-03 MaxDP=6.82D-02 DE=-7.18D-02 OVMax= 4.70D-02

 Cycle   3  Pass 1  IDiag  1:
 E= -33.5659110588406     Delta-E=       -0.037353363606 Rises=F Damp=F
 DIIS: error= 7.73D-03 at cycle   3 NSaved=   3.
 NSaved= 3 IEnMin= 3 EnMin= -33.5659110588406     IErMin= 3 ErrMin= 7.73D-03
 ErrMax= 7.73D-03  0.00D+00 EMaxC= 1.00D-01 BMatC= 1.31D-03 BMatP= 4.73D-02
 IDIUse=3 WtCom= 9.23D-01 WtEn= 7.73D-02
 Coeff-Com: -0.109D+00 0.856D-02 0.110D+01
 Coeff-En:   0.000D+00 0.000D+00 0.100D+01
 Coeff:     -0.101D+00 0.790D-02 0.109D+01
 Gap=     0.612 Goal=   None    Shift=    0.000
 RMSDP=1.68D-03 MaxDP=1.19D-02 DE=-3.74D-02 OVMax= 1.03D-02

 Cycle   4  Pass 1  IDiag  1:
 E= -33.5671947963735     Delta-E=       -0.001283737533 Rises=F Damp=F
 DIIS: error= 7.85D-04 at cycle   4 NSaved=   4.
 NSaved= 4 IEnMin= 4 EnMin= -33.5671947963735     IErMin= 4 ErrMin= 7.85D-04
 ErrMax= 7.85D-04  0.00D+00 EMaxC= 1.00D-01 BMatC= 1.01D-05 BMatP= 1.31D-03
 IDIUse=3 WtCom= 9.92D-01 WtEn= 7.85D-03
 Coeff-Com:  0.344D-02-0.234D-01-0.124D+00 0.114D+01
 Coeff-En:   0.000D+00 0.000D+00 0.000D+00 0.100D+01
 Coeff:      0.342D-02-0.232D-01-0.123D+00 0.114D+01
 Gap=     0.616 Goal=   None    Shift=    0.000
 RMSDP=3.03D-04 MaxDP=2.40D-03 DE=-1.28D-03 OVMax= 1.47D-03

 Cycle   5  Pass 1  IDiag  1:
 E= -33.5672134738151     Delta-E=       -0.000018677442 Rises=F Damp=F
 DIIS: error= 1.88D-04 at cycle   5 NSaved=   5.
 NSaved= 5 IEnMin= 5 EnMin= -33.5672134738151     IErMin= 5 ErrMin= 1.88D-04
 ErrMax= 1.88D-04  0.00D+00 EMaxC= 1.00D-01 BMatC= 1.50D-06 BMatP= 1.01D-05
 IDIUse=3 WtCom= 9.98D-01 WtEn= 1.88D-03
 Coeff-Com:  0.164D-01-0.741D-02-0.187D+00 0.316D+00 0.862D+00
 Coeff-En:   0.000D+00 0.000D+00 0.000D+00 0.000D+00 0.100D+01
 Coeff:      0.164D-01-0.739D-02-0.187D+00 0.316D+00 0.862D+00
 Gap=     0.616 Goal=   None    Shift=    0.000
 RMSDP=1.03D-04 MaxDP=6.33D-04 DE=-1.87D-05 OVMax= 6.25D-04

 Cycle   6  Pass 1  IDiag  1:
 E= -33.5672155732480     Delta-E=       -0.000002099433 Rises=F Damp=F
 DIIS: error= 3.54D-05 at cycle   6 NSaved=   6.
 NSaved= 6 IEnMin= 6 EnMin= -33.5672155732480     IErMin= 6 ErrMin= 3.54D-05
 ErrMax= 3.54D-05  0.00D+00 EMaxC= 1.00D-01 BMatC= 2.60D-08 BMatP= 1.50D-06
 IDIUse=1 WtCom= 1.00D+00 WtEn= 0.00D+00
 Coeff-Com: -0.377D-02 0.205D-02 0.452D-01-0.115D+00-0.184D+00 0.126D+01
 Coeff:     -0.377D-02 0.205D-02 0.452D-01-0.115D+00-0.184D+00 0.126D+01
 Gap=     0.616 Goal=   None    Shift=    0.000
 RMSDP=2.19D-05 MaxDP=1.30D-04 DE=-2.10D-06 OVMax= 1.54D-04

 Cycle   7  Pass 1  IDiag  1:
 E= -33.5672156382835     Delta-E=       -0.000000065036 Rises=F Damp=F
 DIIS: error= 7.69D-06 at cycle   7 NSaved=   7.
 NSaved= 7 IEnMin= 7 EnMin= -33.5672156382835     IErMin= 7 ErrMin= 7.69D-06
 ErrMax= 7.69D-06  0.00D+00 EMaxC= 1.00D-01 BMatC= 8.74D-10 BMatP= 2.60D-08
 IDIUse=1 WtCom= 1.00D+00 WtEn= 0.00D+00
 Coeff-Com:  0.799D-03-0.400D-03-0.937D-02 0.278D-01 0.327D-01-0.369D+00
 Coeff-Com:  0.132D+01
 Coeff:      0.799D-03-0.400D-03-0.937D-02 0.278D-01 0.327D-01-0.369D+00
 Coeff:      0.132D+01
 Gap=     0.616 Goal=   None    Shift=    0.000
 RMSDP=3.67D-06 MaxDP=2.70D-05 DE=-6.50D-08 OVMax= 2.96D-05

 Cycle   8  Pass 1  IDiag  1:
 E= -33.5672156409253     Delta-E=       -0.000000002642 Rises=F Damp=F
 DIIS: error= 1.82D-06 at cycle   8 NSaved=   8.
 NSaved= 8 IEnMin= 8 EnMin= -33.5672156409253     IErMin= 8 ErrMin= 1.82D-06
 ErrMax= 1.82D-06  0.00D+00 EMaxC= 1.00D-01 BMatC= 5.38D-11 BMatP= 8.74D-10
 IDIUse=1 WtCom= 1.00D+00 WtEn= 0.00D+00
 Coeff-Com:  0.141D-04-0.324D-04-0.286D-03-0.225D-03 0.222D-02 0.235D-01
 Coeff-Com: -0.365D+00 0.134D+01
 Coeff:      0.141D-04-0.324D-04-0.286D-03-0.225D-03 0.222D-02 0.235D-01
 Coeff:     -0.365D+00 0.134D+01
 Gap=     0.616 Goal=   None    Shift=    0.000
 RMSDP=1.08D-06 MaxDP=8.42D-06 DE=-2.64D-09 OVMax= 8.54D-06

 Cycle   9  Pass 1  IDiag  1:
 E= -33.5672156411044     Delta-E=       -0.000000000179 Rises=F Damp=F
 DIIS: error= 2.43D-07 at cycle   9 NSaved=   9.
 NSaved= 9 IEnMin= 9 EnMin= -33.5672156411044     IErMin= 9 ErrMin= 2.43D-07
 ErrMax= 2.43D-07  0.00D+00 EMaxC= 1.00D-01 BMatC= 1.52D-12 BMatP= 5.38D-11
 IDIUse=1 WtCom= 1.00D+00 WtEn= 0.00D+00
 Coeff-Com:  0.346D-05 0.617D-05 0.240D-05 0.163D-03-0.540D-03-0.481D-02
 Coeff-Com:  0.951D-01-0.456D+00 0.137D+01
 Coeff:      0.346D-05 0.617D-05 0.240D-05 0.163D-03-0.540D-03-0.481D-02
 Coeff:      0.951D-01-0.456D+00 0.137D+01
 Gap=     0.616 Goal=   None    Shift=    0.000
 RMSDP=1.98D-07 MaxDP=1.09D-06 DE=-1.79D-10 OVMax= 1.27D-06

 Cycle  10  Pass 1  IDiag  1:
 E= -33.5672156411091     Delta-E=       -0.000000000005 Rises=F Damp=F
 DIIS: error= 3.74D-08 at cycle  10 NSaved=  10.
 NSaved=10 IEnMin=10 EnMin= -33.5672156411091     IErMin=10 ErrMin= 3.74D-08
 ErrMax= 3.74D-08  0.00D+00 EMaxC= 1.00D-01 BMatC= 2.80D-14 BMatP= 1.52D-12
 IDIUse=1 WtCom= 1.00D+00 WtEn= 0.00D+00
 Coeff-Com:  0.278D-06-0.269D-05-0.162D-04 0.289D-05 0.221D-03 0.689D-03
 Coeff-Com: -0.258D-01 0.136D+00-0.490D+00 0.138D+01
 Coeff:      0.278D-06-0.269D-05-0.162D-04 0.289D-05 0.221D-03 0.689D-03
 Coeff:     -0.258D-01 0.136D+00-0.490D+00 0.138D+01
 Gap=     0.616 Goal=   None    Shift=    0.000
 RMSDP=2.61D-08 MaxDP=1.28D-07 DE=-4.66D-12 OVMax= 1.71D-07

 Cycle  11  Pass 1  IDiag  1:
 E= -33.5672156411091     Delta-E=       -0.000000000000 Rises=F Damp=F
 DIIS: error= 7.01D-09 at cycle  11 NSaved=  11.
 NSaved=11 IEnMin=11 EnMin= -33.5672156411091     IErMin=11 ErrMin= 7.01D-09
 ErrMax= 7.01D-09  0.00D+00 EMaxC= 1.00D-01 BMatC= 7.81D-16 BMatP= 2.80D-14
 IDIUse=1 WtCom= 1.00D+00 WtEn= 0.00D+00
 Coeff-Com: -0.347D-06 0.936D-06 0.792D-05-0.963D-05-0.826D-04-0.814D-04
 Coeff-Com:  0.751D-02-0.417D-01 0.161D+00-0.561D+00 0.143D+01
 Coeff:     -0.347D-06 0.936D-06 0.792D-05-0.963D-05-0.826D-04-0.814D-04
 Coeff:      0.751D-02-0.417D-01 0.161D+00-0.561D+00 0.143D+01
 Gap=     0.616 Goal=   None    Shift=    0.000
 RMSDP=4.05D-09 MaxDP=2.56D-08 DE=-5.68D-14 OVMax= 2.55D-08

 SCF Done:  E(RHF) =  -33.5672156411     A.U. after   11 cycles
            NFock= 11  Conv=0.40D-08     -V/T= 2.2356
 KE= 2.716724329954D+01 PE=-1.427172148057D+02 EE= 5.164001668080D+01
 Leave Link  502 at Sun Dec 10 06:30:48 2023, MaxMem=   536870912 cpu:               0.3 elap:               0.1
 (Enter /usr/site/hpc/x86_64/glibc-2.17/broadwell/gaussian/g16_a.03/pgi-16.5/g16/l801.exe)
 Windowed orbitals will be sorted by symmetry type.
 Range of M.O.s used for correlation:     1    24
 NBasis=    24 NAE=     8 NBE=     8 NFC=     0 NFV=     0
 NROrb=     24 NOA=     8 NOB=     8 NVA=    16 NVB=    16
 Leave Link  801 at Sun Dec 10 06:30:48 2023, MaxMem=   536870912 cpu:               0.1 elap:               0.0
 (Enter /usr/site/hpc/x86_64/glibc-2.17/broadwell/gaussian/g16_a.03/pgi-16.5/g16/l804.exe)
 Closed-shell transformation, MDV=   536870912 ITran=4 ISComp=2.
 Unit  1 TFree=       1025975 TCopy=        210600.
 Semi-Direct transformation.
 ModeAB=           2 MOrb=             8 LenV=     536741432
 LASXX=        22470 LTotXX=       22470 LenRXX=       22470
 LTotAB=       26208 MaxLAS=       57600 LenRXY=       57600
 NonZer=       62208 LenScr=      524288 LnRSAI=           0
 LnScr1=           0 LExtra=           0 Total=       604358
 MaxDsk=          -1 SrtSym=           F ITran=            4
 DoSDTr:  NPSUse=  4
 JobTyp=0 Pass  1:  I=   1 to   8.
 (rs|ai) integrals will be sorted in core.
 Complete sort for first half transformation.
 First half transformation complete.
 Complete sort for second half transformation.
 Second half transformation complete.
 Spin components of T(2) and E(2):
     alpha-alpha T2 =       0.9566026558D-02 E2=     -0.2736339105D-01
     alpha-beta  T2 =       0.6016658157D-01 E2=     -0.1778918063D+00
     beta-beta   T2 =       0.9566026558D-02 E2=     -0.2736339105D-01
 ANorm=    0.1038892985D+01
 E2 =    -0.2326185884D+00 EUMP2 =    -0.33799834229499D+02
 Leave Link  804 at Sun Dec 10 06:30:48 2023, MaxMem=   536870912 cpu:               0.2 elap:               0.1
 (Enter /usr/site/hpc/x86_64/glibc-2.17/broadwell/gaussian/g16_a.03/pgi-16.5/g16/l913.exe)
 CIDS:  MDV=   536870912.
 IFCWin=0 IBDFC=1 NFBD=     0     0 NFCmp=     0     0 NFFFC=     0     0
 Using DD3R+UMP44R for 1st iteration.
 Using DD4RQ for 2nd and later iterations.
 Keep R2 and R3 ints in memory in symmetry-blocked form, NReq=865410.
 FoFCou: FMM=F IPFlag=           0 FMFlag=           0 FMFlg1=           0
         NFxFlg=           0 DoJE=F BraDBF=F KetDBF=F FulRan=T
         wScrn=  0.000000 ICntrl=       600 IOpCl=  0 I1Cent=           0 NGrid=           0
         NMat0=    1 NMatS0=    300 NMatT0=    0 NMatD0=    1 NMtDS0=    0 NMtDT0=    0
 Petite list used in FoFCou.
 CIDS: In Core Option IDoMem=           1.
 CCSD(T)
 =======
 Iterations=  50 Convergence= 0.100D-06
 Produce multiple copies of IABC intergrals
 Iteration Nr.   1
 **********************
 DD1Dir will call FoFMem   1 times, MxPair=        72
 NAB=    36 NAA=     0 NBB=     0.
 MP4(R+Q)= -0.40521956D-03
 Maximum subspace dimension=  5
 A-vector RMS=  6.5282498D-03 Max=  1.4034254D-02 conv= 1.00D-05.
 RLE energy=       -0.2365830951
 E3=       -0.38129084D-02        EUMP3=      -0.33803647138D+02
 E4(DQ)=   -0.55366951D-02        UMP4(DQ)=   -0.33809183833D+02
 E4(SDQ)=  -0.80021288D-02        UMP4(SDQ)=  -0.33811649267D+02
 VARIATIONAL ENERGIES WITH THE FIRST-ORDER WAVEFUNCTION:
 DE(Corr)= -0.23651711     E(Corr)=     -33.803732749    
 NORM(A)=   0.10418145D+01
 Iteration Nr.   2
 **********************
 DD1Dir will call FoFMem   1 times, MxPair=        72
 NAB=    36 NAA=     0 NBB=     0.
 A-vector RMS=  1.0547549D-03 Max=  2.6215000D-03 conv= 1.00D-05.
 RLE energy=       -0.2444845133
 DE(Corr)= -0.24274419     E(CORR)=     -33.809959827     Delta=-6.23D-03
 NORM(A)=   0.10456885D+01
 Iteration Nr.   3
 **********************
 DD1Dir will call FoFMem   1 times, MxPair=        72
 NAB=    36 NAA=     0 NBB=     0.
 A-vector RMS=  5.9366941D-04 Max=  1.6664633D-03 conv= 1.00D-05.
 RLE energy=       -0.2450838032
 DE(Corr)= -0.24455753     E(CORR)=     -33.811773168     Delta=-1.81D-03
 NORM(A)=   0.10463931D+01
 Iteration Nr.   4
 **********************
 DD1Dir will call FoFMem   1 times, MxPair=        72
 NAB=    36 NAA=     0 NBB=     0.
 A-vector RMS=  1.3088420D-04 Max=  3.3575058D-04 conv= 1.00D-05.
 RLE energy=       -0.2451485424
 DE(Corr)= -0.24510441     E(CORR)=     -33.812320050     Delta=-5.47D-04
 NORM(A)=   0.10465082D+01
 Iteration Nr.   5
 **********************
 DD1Dir will call FoFMem   1 times, MxPair=        72
 NAB=    36 NAA=     0 NBB=     0.
 A-vector RMS=  6.3435374D-05 Max=  2.5357578D-04 conv= 1.00D-05.
 RLE energy=       -0.2451494578
 DE(Corr)= -0.24514391     E(CORR)=     -33.812359548     Delta=-3.95D-05
 NORM(A)=   0.10465300D+01
 Iteration Nr.   6
 **********************
 DD1Dir will call FoFMem   1 times, MxPair=        72
 NAB=    36 NAA=     0 NBB=     0.
 A-vector RMS=  2.3830409D-05 Max=  9.2729752D-05 conv= 1.00D-05.
 RLE energy=       -0.2451432364
 DE(Corr)= -0.24514822     E(CORR)=     -33.812363863     Delta=-4.31D-06
 NORM(A)=   0.10465354D+01
 Iteration Nr.   7
 **********************
 DD1Dir will call FoFMem   1 times, MxPair=        72
 NAB=    36 NAA=     0 NBB=     0.
 A-vector RMS=  8.3920733D-06 Max=  3.6008116D-05 conv= 1.00D-05.
 RLE energy=       -0.2451462076
 DE(Corr)= -0.24514781     E(CORR)=     -33.812363448     Delta= 4.15D-07
 NORM(A)=   0.10465387D+01
 Iteration Nr.   8
 **********************
 DD1Dir will call FoFMem   1 times, MxPair=        72
 NAB=    36 NAA=     0 NBB=     0.
 A-vector RMS=  2.6400267D-06 Max=  1.2131977D-05 conv= 1.00D-05.
 RLE energy=       -0.2451466942
 DE(Corr)= -0.24514693     E(CORR)=     -33.812362570     Delta= 8.78D-07
 NORM(A)=   0.10465398D+01
 Iteration Nr.   9
 **********************
 DD1Dir will call FoFMem   1 times, MxPair=        72
 NAB=    36 NAA=     0 NBB=     0.
 A-vector RMS=  7.4213603D-07 Max=  2.5368636D-06 conv= 1.00D-05.
 RLE energy=       -0.2451472486
 DE(Corr)= -0.24514726     E(CORR)=     -33.812362897     Delta=-3.28D-07
 NORM(A)=   0.10465402D+01
 Iteration Nr.  10
 **********************
 DD1Dir will call FoFMem   1 times, MxPair=        72
 NAB=    36 NAA=     0 NBB=     0.
 A-vector RMS=  2.5952979D-07 Max=  1.0846343D-06 conv= 1.00D-05.
 RLE energy=       -0.2451474435
 DE(Corr)= -0.24514739     E(CORR)=     -33.812363028     Delta=-1.30D-07
 NORM(A)=   0.10465403D+01
 Iteration Nr.  11
 **********************
 DD1Dir will call FoFMem   1 times, MxPair=        72
 NAB=    36 NAA=     0 NBB=     0.
 A-vector RMS=  9.3273792D-08 Max=  3.7677679D-07 conv= 1.00D-05.
 RLE energy=       -0.2451475081
 DE(Corr)= -0.24514748     E(CORR)=     -33.812363124     Delta=-9.68D-08
 NORM(A)=   0.10465404D+01
 CI/CC converged in   11 iterations to DelEn=-9.68D-08 Conv= 1.00D-07 ErrA1= 9.33D-08 Conv= 1.00D-05
 Wavefunction amplitudes converged. E(Corr)=     -33.812363124    
 Largest amplitude= 4.43D-02
 IPart=  3 IA=    2   12.50% done.
 IPart=  4 IA=    3   24.17% done.
 IPart=  2 IA=    4   35.00% done.
 IPart=  4 IA=    5   45.00% done.
 IPart=  2 IA=    6   54.17% done.
 IPart=  3 IA=    7   62.50% done.
 IPart=  1 IA=    8   70.00% done.
 IPart=  1 IA=   10   82.50% done.
 IPart=  2 IA=   12   91.67% done.
 Time for triples=        0.27 seconds.
 T4(CCSD)= -0.39186834D-02
 T5(CCSD)=  0.64541062D-03
 CCSD(T)= -0.33815636397D+02
 Discarding MO integrals.
 Leave Link  913 at Sun Dec 10 06:30:48 2023, MaxMem=   536870912 cpu:               1.0 elap:               0.3
 (Enter /usr/site/hpc/x86_64/glibc-2.17/broadwell/gaussian/g16_a.03/pgi-16.5/g16/l601.exe)
 Copying SCF densities to generalized density rwf, IOpCl= 0 IROHF=0.

 **********************************************************************

            Population analysis using the SCF density.

 **********************************************************************

 Orbital symmetries:
       Occupied  (A') (A') (A') (A') (A") (A') (A') (A")
       Virtual   (A') (A') (A') (A') (A") (A') (A") (A') (A') (A')
                 (A') (A') (A') (A') (A') (A')
 The electronic state is 1-A'.
 Alpha  occ. eigenvalues --   -1.40785  -1.28619  -0.77348  -0.71931  -0.54200
 Alpha  occ. eigenvalues --   -0.49239  -0.48375  -0.42999
 Alpha virt. eigenvalues --    0.18575   0.27806   0.29710   0.38329   0.77422
 Alpha virt. eigenvalues --    0.84658   0.90535   0.93695   0.98838   1.16125
 Alpha virt. eigenvalues --    1.18404   1.21620   1.32551   1.33170   2.84231
 Alpha virt. eigenvalues --    2.98764
          Condensed to atoms (all electrons):
               1          2          3          4          5          6
     1  O    6.821071   0.222491   0.273290  -0.385666   0.016233  -0.148598
     2  H    0.222491   0.401764  -0.014196   0.015723  -0.000750   0.003167
     3  H    0.273290  -0.014196   0.277437   0.010095  -0.000335   0.004466
     4  O   -0.385666   0.015723   0.010095   6.528324   0.216316   0.308898
     5  H    0.016233  -0.000750  -0.000335   0.216316   0.485982  -0.014097
     6  H   -0.148598   0.003167   0.004466   0.308898  -0.014097   0.471349
 Mulliken charges:
               1
     1  O   -0.798821
     2  H    0.371800
     3  H    0.449243
     4  O   -0.693689
     5  H    0.296652
     6  H    0.374815
 Sum of Mulliken charges =   0.00000
 Mulliken charges with hydrogens summed into heavy atoms:
               1
     1  O    0.022222
     4  O   -0.022222
 Electronic spatial extent (au):  <R**2>=             98.0340
 Charge=              0.0000 electrons
 Dipole moment (field-independent basis, Debye):
    X=             -2.1846    Y=             -3.0910    Z=              0.0000  Tot=              3.7851
 Quadrupole moment (field-independent basis, Debye-Ang):
   XX=            -10.0887   YY=             -7.0891   ZZ=            -14.9593
   XY=             -2.6720   XZ=              0.0000   YZ=              0.0000
 Traceless Quadrupole moment (field-independent basis, Debye-Ang):
   XX=              0.6237   YY=              3.6233   ZZ=             -4.2469
   XY=             -2.6720   XZ=              0.0000   YZ=              0.0000
 Octapole moment (field-independent basis, Debye-Ang**2):
  XXX=             -0.5839  YYY=             -4.8026  ZZZ=              0.0000  XYY=             -2.3633
  XXY=             -4.3836  XXZ=              0.0000  XZZ=             -0.3761  YZZ=             -0.7190
  YYZ=              0.0000  XYZ=              0.0000
 Hexadecapole moment (field-independent basis, Debye-Ang**3):
 XXXX=            -12.7600 YYYY=            -69.6913 ZZZZ=            -12.2147 XXXY=             -0.2441
 XXXZ=              0.0000 YYYX=             -5.3561 YYYZ=              0.0000 ZZZX=              0.0000
 ZZZY=              0.0000 XXYY=            -12.1565 XXZZ=             -4.5463 YYZZ=            -19.8426
 XXYZ=              0.0000 YYXZ=              0.0000 ZZXY=              0.3359
 N-N= 3.034273918424D+01 E-N=-1.427172148077D+02  KE= 2.716724329954D+01
 Symmetry A'   KE= 1.831041003280D+01
 Symmetry A"   KE= 8.856833266734D+00
 Leave Link  601 at Sun Dec 10 06:30:48 2023, MaxMem=   536870912 cpu:               0.1 elap:               0.0
 (Enter /usr/site/hpc/x86_64/glibc-2.17/broadwell/gaussian/g16_a.03/pgi-16.5/g16/l9999.exe)
 1\1\GINC-N033\SP\RCCSD(T)-FC\CEP-31G\H4O2\ROOT\10-Dec-2023\0\\#p CCSD(
 T)/CEP-31G\\H2O_H2O_323\\0,1\O,0,0.,-0.009833,0.\H,0,-0.799571,-0.5809
 65,0.\H,0,0.799571,-0.580965,0.\O,0,-0.009812,1.907277,0.\H,0,-0.52742
 7,2.74249,0.\H,0,-0.632016,1.146771,0.\\Version=ES64L-G16RevA.03\State
 =1-A'\HF=-33.5672156\MP2=-33.7998342\MP3=-33.8036471\MP4D=-33.8087786\
 MP4DQ=-33.8091838\MP4SDQ=-33.8116493\CCSD=-33.8123631\CCSD(T)=-33.8156
 364\RMSD=4.046e-09\PG=CS [SG(H4O2)]\\@


 REALITY IS FOR PEOPLE WHO CAN'T FACE SCIENCE FICTION.
 Job cpu time:       0 days  0 hours  0 minutes  3.4 seconds.
 Elapsed time:       0 days  0 hours  0 minutes  1.0 seconds.
 File lengths (MBytes):  RWF=     72 Int=      0 D2E=      0 Chk=      8 Scr=      8
 Normal termination of Gaussian 16 at Sun Dec 10 06:30:48 2023.
