 Entering Gaussian System, Link 0=g16
 Input=H2O_H2O_3112.com
 Output=H2O_H2O_3112.log
 Initial command:
 /usr/site/hpc/x86_64/glibc-2.17/broadwell/gaussian/g16_a.03/pgi-16.5/g16/l1.exe "/gpfs/gpfs1/scratch/c7441090/OO Coord/Gau-1753881.inp" -scrdir="/gpfs/gpfs1/scratch/c7441090/OO Coord/"
 Entering Link 1 = /usr/site/hpc/x86_64/glibc-2.17/broadwell/gaussian/g16_a.03/pgi-16.5/g16/l1.exe PID=   1753882.
  
 Copyright (c) 1988,1990,1992,1993,1995,1998,2003,2009,2016,
            Gaussian, Inc.  All Rights Reserved.
  
 This is part of the Gaussian(R) 16 program.  It is based on
 the Gaussian(R) 09 system (copyright 2009, Gaussian, Inc.),
 the Gaussian(R) 03 system (copyright 2003, Gaussian, Inc.),
 the Gaussian(R) 98 system (copyright 1998, Gaussian, Inc.),
 the Gaussian(R) 94 system (copyright 1995, Gaussian, Inc.),
 the Gaussian 92(TM) system (copyright 1992, Gaussian, Inc.),
 the Gaussian 90(TM) system (copyright 1990, Gaussian, Inc.),
 the Gaussian 88(TM) system (copyright 1988, Gaussian, Inc.),
 the Gaussian 86(TM) system (copyright 1986, Carnegie Mellon
 University), and the Gaussian 82(TM) system (copyright 1983,
 Carnegie Mellon University). Gaussian is a federally registered
 trademark of Gaussian, Inc.
  
 This software contains proprietary and confidential information,
 including trade secrets, belonging to Gaussian, Inc.
  
 This software is provided under written license and may be
 used, copied, transmitted, or stored only in accord with that
 written license.
  
 The following legend is applicable only to US Government
 contracts under FAR:
  
                    RESTRICTED RIGHTS LEGEND
  
 Use, reproduction and disclosure by the US Government is
 subject to restrictions as set forth in subparagraphs (a)
 and (c) of the Commercial Computer Software - Restricted
 Rights clause in FAR 52.227-19.
  
 Gaussian, Inc.
 340 Quinnipiac St., Bldg. 40, Wallingford CT 06492
  
  
 ---------------------------------------------------------------
 Warning -- This program may not be used in any manner that
 competes with the business of Gaussian, Inc. or will provide
 assistance to any competitor of Gaussian, Inc.  The licensee
 of this program is prohibited from giving any competitor of
 Gaussian, Inc. access to this program.  By using this program,
 the user acknowledges that Gaussian, Inc. is engaged in the
 business of creating and licensing software in the field of
 computational chemistry and represents and warrants to the
 licensee that it is not a competitor of Gaussian, Inc. and that
 it will not use this program in any manner prohibited above.
 ---------------------------------------------------------------
  

 Cite this work as:
 Gaussian 16, Revision A.03,
 M. J. Frisch, G. W. Trucks, H. B. Schlegel, G. E. Scuseria, 
 M. A. Robb, J. R. Cheeseman, G. Scalmani, V. Barone, 
 G. A. Petersson, H. Nakatsuji, X. Li, M. Caricato, A. V. Marenich, 
 J. Bloino, B. G. Janesko, R. Gomperts, B. Mennucci, H. P. Hratchian, 
 J. V. Ortiz, A. F. Izmaylov, J. L. Sonnenberg, D. Williams-Young, 
 F. Ding, F. Lipparini, F. Egidi, J. Goings, B. Peng, A. Petrone, 
 T. Henderson, D. Ranasinghe, V. G. Zakrzewski, J. Gao, N. Rega, 
 G. Zheng, W. Liang, M. Hada, M. Ehara, K. Toyota, R. Fukuda, 
 J. Hasegawa, M. Ishida, T. Nakajima, Y. Honda, O. Kitao, H. Nakai, 
 T. Vreven, K. Throssell, J. A. Montgomery, Jr., J. E. Peralta, 
 F. Ogliaro, M. J. Bearpark, J. J. Heyd, E. N. Brothers, K. N. Kudin, 
 V. N. Staroverov, T. A. Keith, R. Kobayashi, J. Normand, 
 K. Raghavachari, A. P. Rendell, J. C. Burant, S. S. Iyengar, 
 J. Tomasi, M. Cossi, J. M. Millam, M. Klene, C. Adamo, R. Cammi, 
 J. W. Ochterski, R. L. Martin, K. Morokuma, O. Farkas, 
 J. B. Foresman, and D. J. Fox, Gaussian, Inc., Wallingford CT, 2016.
 
 ******************************************
 Gaussian 16:  ES64L-G16RevA.03 25-Dec-2016
                10-Dec-2023 
 ******************************************
 %NProcShared=4
 Will use up to    4 processors via shared memory.
 %Mem=4GB
 %Chk=H2O_H2O_3112.chk
 ------------------
 #p CCSD(T)/CEP-31G
 ------------------
 1/38=1,172=1/1;
 2/12=2,17=6,18=5,40=1/2;
 3/5=9,6=1,11=9,25=1,30=1/1,2,3;
 4//1;
 5/5=2,38=5/2;
 8/6=4,9=120000,10=1/1,4;
 9/5=7,14=2/13;
 6/7=2,8=2,9=2,10=2/1;
 99/5=1,9=1/99;
 Leave Link    1 at Sun Dec 10 06:35:54 2023, MaxMem=   536870912 cpu:               0.2 elap:               0.1
 (Enter /usr/site/hpc/x86_64/glibc-2.17/broadwell/gaussian/g16_a.03/pgi-16.5/g16/l101.exe)
 ------------
 H2O_H2O_3112
 ------------
 Symbolic Z-matrix:
 Charge =  0 Multiplicity = 1
 O                     0.       -0.00983   0. 
 H                    -0.79957  -0.58097   0. 
 H                     0.79957  -0.58097   0. 
 O                    -0.00695   4.89187   0. 
 H                     0.15458   5.8611    0. 
 H                    -0.97619   4.73034   0. 
 
 ITRead=  0  0  0  0  0  0
 MicOpt= -1 -1 -1 -1 -1 -1
 NAtoms=      6 NQM=        6 NQMF=       0 NMMI=      0 NMMIF=      0
                NMic=       0 NMicF=      0.
                    Isotopes and Nuclear Properties:
 (Nuclear quadrupole moments (NQMom) in fm**2, nuclear magnetic moments (NMagM)
  in nuclear magnetons)

  Atom         1           2           3           4           5           6
 IAtWgt=          16           1           1          16           1           1
 AtmWgt=  15.9949146   1.0078250   1.0078250  15.9949146   1.0078250   1.0078250
 NucSpn=           0           1           1           0           1           1
 AtZEff=  -0.0000000  -0.0000000  -0.0000000  -0.0000000  -0.0000000  -0.0000000
 NQMom=    0.0000000   0.0000000   0.0000000   0.0000000   0.0000000   0.0000000
 NMagM=    0.0000000   2.7928460   2.7928460   0.0000000   2.7928460   2.7928460
 AtZNuc=   8.0000000   1.0000000   1.0000000   8.0000000   1.0000000   1.0000000
 Leave Link  101 at Sun Dec 10 06:35:54 2023, MaxMem=   536870912 cpu:               0.3 elap:               0.1
 (Enter /usr/site/hpc/x86_64/glibc-2.17/broadwell/gaussian/g16_a.03/pgi-16.5/g16/l202.exe)
                          Input orientation:                          
 ---------------------------------------------------------------------
 Center     Atomic      Atomic             Coordinates (Angstroms)
 Number     Number       Type             X           Y           Z
 ---------------------------------------------------------------------
      1          8           0        0.000000   -0.009833    0.000000
      2          1           0       -0.799571   -0.580965    0.000000
      3          1           0        0.799571   -0.580965    0.000000
      4          8           0       -0.006953    4.891870    0.000000
      5          1           0        0.154578    5.861104    0.000000
      6          1           0       -0.976187    4.730339    0.000000
 ---------------------------------------------------------------------
                    Distance matrix (angstroms):
                    1          2          3          4          5
     1  O    0.000000
     2  H    0.982601   0.000000
     3  H    0.982601   1.599142   0.000000
     4  O    4.901708   5.529934   5.531944   0.000000
     5  H    5.872972   6.512346   6.474277   0.982602   0.000000
     6  H    4.839646   5.314240   5.600292   0.982602   1.599143
                    6
     6  H    0.000000
 Stoichiometry    H4O2
 Framework group  CS[SG(H4O2)]
 Deg. of freedom     9
 Full point group                 CS      NOp   2
 Largest Abelian subgroup         CS      NOp   2
 Largest concise Abelian subgroup C1      NOp   1
                         Standard orientation:                         
 ---------------------------------------------------------------------
 Center     Atomic      Atomic             Coordinates (Angstroms)
 Number     Number       Type             X           Y           Z
 ---------------------------------------------------------------------
      1          8           0        0.040409   -2.434183    0.000000
      2          1           0       -0.759972   -3.004180    0.000000
      3          1           0        0.839169   -3.006449    0.000000
      4          8           0        0.040409    2.467525    0.000000
      5          1           0        0.203315    3.436529    0.000000
      6          1           0       -0.929053    2.307369    0.000000
 ---------------------------------------------------------------------
 Rotational constants (GHZ):         226.4615389           2.2200287           2.1984768
 Leave Link  202 at Sun Dec 10 06:35:54 2023, MaxMem=   536870912 cpu:               0.0 elap:               0.0
 (Enter /usr/site/hpc/x86_64/glibc-2.17/broadwell/gaussian/g16_a.03/pgi-16.5/g16/l301.exe)
 Standard basis: CEP-31G (6D, 10F)
 Ernie: Thresh=  0.10000D-02 Tol=  0.10000D-05 Strict=F.
 There are    20 symmetry adapted cartesian basis functions of A'  symmetry.
 There are     4 symmetry adapted cartesian basis functions of A"  symmetry.
 There are    20 symmetry adapted basis functions of A'  symmetry.
 There are     4 symmetry adapted basis functions of A"  symmetry.
    24 basis functions,    48 primitive gaussians,    24 cartesian basis functions
     8 alpha electrons        8 beta electrons
       nuclear repulsion energy        20.1752788567 Hartrees.
 IExCor=    0 DFT=F Ex=HF Corr=None ExCW=0 ScaHFX=  1.000000
 ScaDFX=  1.000000  1.000000  1.000000  1.000000 ScalE2=  1.000000  1.000000
 IRadAn=      5 IRanWt=     -1 IRanGd=            0 ICorTp=0 IEmpDi=  4
 NAtoms=    6 NActive=    6 NUniq=    6 SFac= 1.00D+00 NAtFMM=   60 NAOKFM=F Big=F
 Integral buffers will be    131072 words long.
 Raffenetti 1 integral format.
 Two-electron integral symmetry is turned on.
 Leave Link  301 at Sun Dec 10 06:35:54 2023, MaxMem=   536870912 cpu:               0.2 elap:               0.1
 (Enter /usr/site/hpc/x86_64/glibc-2.17/broadwell/gaussian/g16_a.03/pgi-16.5/g16/l302.exe)
 NPDir=0 NMtPBC=     1 NCelOv=     1 NCel=       1 NClECP=     1 NCelD=      1
         NCelK=      1 NCelE2=     1 NClLst=     1 CellRange=     0.0.
 One-electron integrals computed using PRISM.
 One-electron integral symmetry used in STVInt
   2 Symmetry operations used in ECPInt.
 ECPInt:  NShTT=      78 NPrTT=     318 LenC2=      79 LenP2D=     255.
 LDataN:  DoStor=T MaxTD1= 2 Len=   12
 NBasis=    24 RedAO= T EigKep=  3.86D-02  NBF=    20     4
 NBsUse=    24 1.00D-06 EigRej= -1.00D+00 NBFU=    20     4
 Leave Link  302 at Sun Dec 10 06:35:55 2023, MaxMem=   536870912 cpu:               0.3 elap:               0.1
 (Enter /usr/site/hpc/x86_64/glibc-2.17/broadwell/gaussian/g16_a.03/pgi-16.5/g16/l303.exe)
 DipDrv:  MaxL=1.
 Leave Link  303 at Sun Dec 10 06:35:55 2023, MaxMem=   536870912 cpu:               0.1 elap:               0.0
 (Enter /usr/site/hpc/x86_64/glibc-2.17/broadwell/gaussian/g16_a.03/pgi-16.5/g16/l401.exe)
 ExpMin= 1.78D-01 ExpMax= 1.92D+01 ExpMxC= 1.92D+01 IAcc=3 IRadAn=         5 AccDes= 0.00D+00
 Harris functional with IExCor=  205 and IRadAn=       5 diagonalized for initial guess.
 HarFok:  IExCor=  205 AccDes= 0.00D+00 IRadAn=         5 IDoV= 1 UseB2=F ITyADJ=14
 ICtDFT=  3500011 ScaDFX=  1.000000  1.000000  1.000000  1.000000
 FoFCou: FMM=F IPFlag=           0 FMFlag=      100000 FMFlg1=           0
         NFxFlg=           0 DoJE=T BraDBF=F KetDBF=T FulRan=T
         wScrn=  0.000000 ICntrl=       500 IOpCl=  0 I1Cent=   200000004 NGrid=           0
         NMat0=    1 NMatS0=      1 NMatT0=    0 NMatD0=    1 NMtDS0=    0 NMtDT0=    0
 Petite list used in FoFCou.
 Harris En= -34.4763682997882    
 JPrj=0 DoOrth=F DoCkMO=F.
 Initial guess orbital symmetries:
       Occupied  (A') (A') (A') (A') (A') (A') (A") (A")
       Virtual   (A') (A') (A') (A') (A") (A") (A') (A') (A') (A')
                 (A') (A') (A') (A') (A') (A')
 The electronic state of the initial guess is 1-A'.
 Leave Link  401 at Sun Dec 10 06:35:55 2023, MaxMem=   536870912 cpu:               0.4 elap:               0.1
 (Enter /usr/site/hpc/x86_64/glibc-2.17/broadwell/gaussian/g16_a.03/pgi-16.5/g16/l502.exe)
 Keep R1 ints in memory in symmetry-blocked form, NReq=851991.
 FoFCou: FMM=F IPFlag=           0 FMFlag=           0 FMFlg1=           0
         NFxFlg=           0 DoJE=F BraDBF=F KetDBF=F FulRan=T
         wScrn=  0.000000 ICntrl=       600 IOpCl=  0 I1Cent=           0 NGrid=           0
         NMat0=    1 NMatS0=    300 NMatT0=    0 NMatD0=    1 NMtDS0=    0 NMtDT0=    0
 Petite list used in FoFCou.
 Closed shell SCF:
 Using DIIS extrapolation, IDIIS=  1040.
 NGot=   536870912 LenX=   536840576 LenY=   536839559
 Requested convergence on RMS density matrix=1.00D-08 within 128 cycles.
 Requested convergence on MAX density matrix=1.00D-06.
 Requested convergence on             energy=1.00D-06.
 No special actions if energy rises.

 Cycle   1  Pass 1  IDiag  1:
 E= -33.5549284522203    
 DIIS: error= 6.92D-02 at cycle   1 NSaved=   1.
 NSaved= 1 IEnMin= 1 EnMin= -33.5549284522203     IErMin= 1 ErrMin= 6.92D-02
 ErrMax= 6.92D-02  0.00D+00 EMaxC= 1.00D-01 BMatC= 1.03D-01 BMatP= 1.03D-01
 IDIUse=3 WtCom= 3.08D-01 WtEn= 6.92D-01
 Coeff-Com:  0.100D+01
 Coeff-En:   0.100D+01
 Coeff:      0.100D+01
 Gap=     0.604 Goal=   None    Shift=    0.000
 GapD=    0.604 DampG=2.000 DampE=0.500 DampFc=1.0000 IDamp=-1.
 RMSDP=1.50D-02 MaxDP=1.18D-01              OVMax= 1.00D-01

 Cycle   2  Pass 1  IDiag  1:
 E= -33.6183900458689     Delta-E=       -0.063461593649 Rises=F Damp=F
 DIIS: error= 3.76D-02 at cycle   2 NSaved=   2.
 NSaved= 2 IEnMin= 2 EnMin= -33.6183900458689     IErMin= 2 ErrMin= 3.76D-02
 ErrMax= 3.76D-02  0.00D+00 EMaxC= 1.00D-01 BMatC= 3.87D-02 BMatP= 1.03D-01
 IDIUse=3 WtCom= 6.24D-01 WtEn= 3.76D-01
 Coeff-Com:  0.378D+00 0.622D+00
 Coeff-En:   0.108D+00 0.892D+00
 Coeff:      0.276D+00 0.724D+00
 Gap=     0.704 Goal=   None    Shift=    0.000
 RMSDP=6.45D-03 MaxDP=5.46D-02 DE=-6.35D-02 OVMax= 3.60D-02

 Cycle   3  Pass 1  IDiag  1:
 E= -33.6492644984120     Delta-E=       -0.030874452543 Rises=F Damp=F
 DIIS: error= 7.29D-03 at cycle   3 NSaved=   3.
 NSaved= 3 IEnMin= 3 EnMin= -33.6492644984120     IErMin= 3 ErrMin= 7.29D-03
 ErrMax= 7.29D-03  0.00D+00 EMaxC= 1.00D-01 BMatC= 9.29D-04 BMatP= 3.87D-02
 IDIUse=3 WtCom= 9.27D-01 WtEn= 7.29D-02
 Coeff-Com: -0.114D+00-0.146D-01 0.113D+01
 Coeff-En:   0.000D+00 0.000D+00 0.100D+01
 Coeff:     -0.106D+00-0.136D-01 0.112D+01
 Gap=     0.696 Goal=   None    Shift=    0.000
 RMSDP=1.11D-03 MaxDP=9.41D-03 DE=-3.09D-02 OVMax= 8.23D-03

 Cycle   4  Pass 1  IDiag  1:
 E= -33.6501945382522     Delta-E=       -0.000930039840 Rises=F Damp=F
 DIIS: error= 7.73D-04 at cycle   4 NSaved=   4.
 NSaved= 4 IEnMin= 4 EnMin= -33.6501945382522     IErMin= 4 ErrMin= 7.73D-04
 ErrMax= 7.73D-04  0.00D+00 EMaxC= 1.00D-01 BMatC= 6.18D-06 BMatP= 9.29D-04
 IDIUse=3 WtCom= 9.92D-01 WtEn= 7.73D-03
 Coeff-Com:  0.436D-01-0.183D-01-0.520D+00 0.149D+01
 Coeff-En:   0.000D+00 0.000D+00 0.000D+00 0.100D+01
 Coeff:      0.433D-01-0.182D-01-0.516D+00 0.149D+01
 Gap=     0.698 Goal=   None    Shift=    0.000
 RMSDP=2.38D-04 MaxDP=2.06D-03 DE=-9.30D-04 OVMax= 9.75D-04

 Cycle   5  Pass 1  IDiag  1:
 E= -33.6502080943518     Delta-E=       -0.000013556100 Rises=F Damp=F
 DIIS: error= 5.25D-05 at cycle   5 NSaved=   5.
 NSaved= 5 IEnMin= 5 EnMin= -33.6502080943518     IErMin= 5 ErrMin= 5.25D-05
 ErrMax= 5.25D-05  0.00D+00 EMaxC= 1.00D-01 BMatC= 4.27D-08 BMatP= 6.18D-06
 IDIUse=1 WtCom= 1.00D+00 WtEn= 0.00D+00
 Coeff-Com: -0.710D-02 0.332D-02 0.854D-01-0.296D+00 0.121D+01
 Coeff:     -0.710D-02 0.332D-02 0.854D-01-0.296D+00 0.121D+01
 Gap=     0.698 Goal=   None    Shift=    0.000
 RMSDP=1.66D-05 MaxDP=1.62D-04 DE=-1.36D-05 OVMax= 1.11D-04

 Cycle   6  Pass 1  IDiag  1:
 E= -33.6502082007581     Delta-E=       -0.000000106406 Rises=F Damp=F
 DIIS: error= 1.13D-05 at cycle   6 NSaved=   6.
 NSaved= 6 IEnMin= 6 EnMin= -33.6502082007581     IErMin= 6 ErrMin= 1.13D-05
 ErrMax= 1.13D-05  0.00D+00 EMaxC= 1.00D-01 BMatC= 2.46D-09 BMatP= 4.27D-08
 IDIUse=1 WtCom= 1.00D+00 WtEn= 0.00D+00
 Coeff-Com:  0.914D-03-0.301D-03-0.104D-01 0.431D-01-0.352D+00 0.132D+01
 Coeff:      0.914D-03-0.301D-03-0.104D-01 0.431D-01-0.352D+00 0.132D+01
 Gap=     0.698 Goal=   None    Shift=    0.000
 RMSDP=4.00D-06 MaxDP=4.36D-05 DE=-1.06D-07 OVMax= 3.72D-05

 Cycle   7  Pass 1  IDiag  1:
 E= -33.6502082072081     Delta-E=       -0.000000006450 Rises=F Damp=F
 DIIS: error= 2.54D-06 at cycle   7 NSaved=   7.
 NSaved= 7 IEnMin= 7 EnMin= -33.6502082072081     IErMin= 7 ErrMin= 2.54D-06
 ErrMax= 2.54D-06  0.00D+00 EMaxC= 1.00D-01 BMatC= 2.38D-10 BMatP= 2.46D-09
 IDIUse=1 WtCom= 1.00D+00 WtEn= 0.00D+00
 Coeff-Com:  0.630D-03-0.283D-03-0.748D-02 0.265D-01-0.126D+00 0.190D+00
 Coeff-Com:  0.916D+00
 Coeff:      0.630D-03-0.283D-03-0.748D-02 0.265D-01-0.126D+00 0.190D+00
 Coeff:      0.916D+00
 Gap=     0.698 Goal=   None    Shift=    0.000
 RMSDP=9.67D-07 MaxDP=6.92D-06 DE=-6.45D-09 OVMax= 9.29D-06

 Cycle   8  Pass 1  IDiag  1:
 E= -33.6502082076185     Delta-E=       -0.000000000410 Rises=F Damp=F
 DIIS: error= 9.05D-07 at cycle   8 NSaved=   8.
 NSaved= 8 IEnMin= 8 EnMin= -33.6502082076185     IErMin= 8 ErrMin= 9.05D-07
 ErrMax= 9.05D-07  0.00D+00 EMaxC= 1.00D-01 BMatC= 2.99D-11 BMatP= 2.38D-10
 IDIUse=1 WtCom= 1.00D+00 WtEn= 0.00D+00
 Coeff-Com:  0.403D-06-0.279D-04-0.100D-03-0.859D-03 0.325D-01-0.176D+00
 Coeff-Com:  0.115D+00 0.103D+01
 Coeff:      0.403D-06-0.279D-04-0.100D-03-0.859D-03 0.325D-01-0.176D+00
 Coeff:      0.115D+00 0.103D+01
 Gap=     0.698 Goal=   None    Shift=    0.000
 RMSDP=4.88D-07 MaxDP=3.54D-06 DE=-4.10D-10 OVMax= 3.84D-06

 Cycle   9  Pass 1  IDiag  1:
 E= -33.6502082076774     Delta-E=       -0.000000000059 Rises=F Damp=F
 DIIS: error= 1.96D-07 at cycle   9 NSaved=   9.
 NSaved= 9 IEnMin= 9 EnMin= -33.6502082076774     IErMin= 9 ErrMin= 1.96D-07
 ErrMax= 1.96D-07  0.00D+00 EMaxC= 1.00D-01 BMatC= 7.80D-13 BMatP= 2.99D-11
 IDIUse=1 WtCom= 1.00D+00 WtEn= 0.00D+00
 Coeff-Com:  0.313D-05 0.845D-05 0.662D-05 0.400D-03-0.125D-01 0.706D-01
 Coeff-Com: -0.731D-01-0.430D+00 0.144D+01
 Coeff:      0.313D-05 0.845D-05 0.662D-05 0.400D-03-0.125D-01 0.706D-01
 Coeff:     -0.731D-01-0.430D+00 0.144D+01
 Gap=     0.698 Goal=   None    Shift=    0.000
 RMSDP=1.36D-07 MaxDP=6.31D-07 DE=-5.89D-11 OVMax= 9.16D-07

 Cycle  10  Pass 1  IDiag  1:
 E= -33.6502082076795     Delta-E=       -0.000000000002 Rises=F Damp=F
 DIIS: error= 8.86D-09 at cycle  10 NSaved=  10.
 NSaved=10 IEnMin=10 EnMin= -33.6502082076795     IErMin=10 ErrMin= 8.86D-09
 ErrMax= 8.86D-09  0.00D+00 EMaxC= 1.00D-01 BMatC= 2.80D-15 BMatP= 7.80D-13
 IDIUse=1 WtCom= 1.00D+00 WtEn= 0.00D+00
 Coeff-Com:  0.144D-06-0.211D-05-0.116D-04-0.541D-04 0.265D-02-0.156D-01
 Coeff-Com:  0.167D-01 0.946D-01-0.365D+00 0.127D+01
 Coeff:      0.144D-06-0.211D-05-0.116D-04-0.541D-04 0.265D-02-0.156D-01
 Coeff:      0.167D-01 0.946D-01-0.365D+00 0.127D+01
 Gap=     0.698 Goal=   None    Shift=    0.000
 RMSDP=1.18D-08 MaxDP=5.39D-08 DE=-2.07D-12 OVMax= 6.74D-08

 Cycle  11  Pass 1  IDiag  1:
 E= -33.6502082076796     Delta-E=       -0.000000000000 Rises=F Damp=F
 DIIS: error= 3.75D-10 at cycle  11 NSaved=  11.
 NSaved=11 IEnMin=11 EnMin= -33.6502082076796     IErMin=11 ErrMin= 3.75D-10
 ErrMax= 3.75D-10  0.00D+00 EMaxC= 1.00D-01 BMatC= 4.36D-18 BMatP= 2.80D-15
 IDIUse=1 WtCom= 1.00D+00 WtEn= 0.00D+00
 Coeff-Com: -0.813D-07 0.350D-06 0.251D-05 0.667D-05-0.426D-03 0.254D-02
 Coeff-Com: -0.276D-02-0.155D-01 0.608D-01-0.232D+00 0.119D+01
 Coeff:     -0.813D-07 0.350D-06 0.251D-05 0.667D-05-0.426D-03 0.254D-02
 Coeff:     -0.276D-02-0.155D-01 0.608D-01-0.232D+00 0.119D+01
 Gap=     0.698 Goal=   None    Shift=    0.000
 RMSDP=2.50D-10 MaxDP=1.33D-09 DE=-9.95D-14 OVMax= 1.12D-09

 SCF Done:  E(RHF) =  -33.6502082077     A.U. after   11 cycles
            NFock= 11  Conv=0.25D-09     -V/T= 2.2570
 KE= 2.676992817444D+01 PE=-1.220657862684D+02 EE= 4.147037102956D+01
 Leave Link  502 at Sun Dec 10 06:35:55 2023, MaxMem=   536870912 cpu:               0.3 elap:               0.1
 (Enter /usr/site/hpc/x86_64/glibc-2.17/broadwell/gaussian/g16_a.03/pgi-16.5/g16/l801.exe)
 Windowed orbitals will be sorted by symmetry type.
 Range of M.O.s used for correlation:     1    24
 NBasis=    24 NAE=     8 NBE=     8 NFC=     0 NFV=     0
 NROrb=     24 NOA=     8 NOB=     8 NVA=    16 NVB=    16
 Leave Link  801 at Sun Dec 10 06:35:55 2023, MaxMem=   536870912 cpu:               0.1 elap:               0.0
 (Enter /usr/site/hpc/x86_64/glibc-2.17/broadwell/gaussian/g16_a.03/pgi-16.5/g16/l804.exe)
 Closed-shell transformation, MDV=   536870912 ITran=4 ISComp=2.
 Unit  1 TFree=       1025975 TCopy=        210600.
 Semi-Direct transformation.
 ModeAB=           2 MOrb=             8 LenV=     536742370
 LASXX=        22470 LTotXX=       22470 LenRXX=       22470
 LTotAB=       26208 MaxLAS=       57600 LenRXY=       57600
 NonZer=       59136 LenScr=      524288 LnRSAI=           0
 LnScr1=           0 LExtra=           0 Total=       604358
 MaxDsk=          -1 SrtSym=           F ITran=            4
 DoSDTr:  NPSUse=  4
 JobTyp=0 Pass  1:  I=   1 to   8.
 (rs|ai) integrals will be sorted in core.
 Complete sort for first half transformation.
 First half transformation complete.
 Complete sort for second half transformation.
 Second half transformation complete.
 Spin components of T(2) and E(2):
     alpha-alpha T2 =       0.9074191355D-02 E2=     -0.2589493773D-01
     alpha-beta  T2 =       0.6002120969D-01 E2=     -0.1767030812D+00
     beta-beta   T2 =       0.9074191355D-02 E2=     -0.2589493773D-01
 ANorm=    0.1038349456D+01
 E2 =    -0.2284929567D+00 EUMP2 =    -0.33878701164333D+02
 Leave Link  804 at Sun Dec 10 06:35:55 2023, MaxMem=   536870912 cpu:               0.2 elap:               0.1
 (Enter /usr/site/hpc/x86_64/glibc-2.17/broadwell/gaussian/g16_a.03/pgi-16.5/g16/l913.exe)
 CIDS:  MDV=   536870912.
 IFCWin=0 IBDFC=1 NFBD=     0     0 NFCmp=     0     0 NFFFC=     0     0
 Using DD3R+UMP44R for 1st iteration.
 Using DD4RQ for 2nd and later iterations.
 Keep R2 and R3 ints in memory in symmetry-blocked form, NReq=864599.
 FoFCou: FMM=F IPFlag=           0 FMFlag=           0 FMFlg1=           0
         NFxFlg=           0 DoJE=F BraDBF=F KetDBF=F FulRan=T
         wScrn=  0.000000 ICntrl=       600 IOpCl=  0 I1Cent=           0 NGrid=           0
         NMat0=    1 NMatS0=    300 NMatT0=    0 NMatD0=    1 NMtDS0=    0 NMtDT0=    0
 Petite list used in FoFCou.
 CIDS: In Core Option IDoMem=           1.
 CCSD(T)
 =======
 Iterations=  50 Convergence= 0.100D-06
 Produce multiple copies of IABC intergrals
 Iteration Nr.   1
 **********************
 DD1Dir will call FoFMem   1 times, MxPair=        72
 NAB=    36 NAA=     0 NBB=     0.
 MP4(R+Q)= -0.73237610D-03
 Maximum subspace dimension=  5
 A-vector RMS=  5.7710660D-03 Max=  1.3165104D-02 conv= 1.00D-05.
 RLE energy=       -0.2345788696
 E3=       -0.54706832D-02        EUMP3=      -0.33884171848D+02
 E4(DQ)=   -0.59183573D-02        UMP4(DQ)=   -0.33890090205D+02
 E4(SDQ)=  -0.79508836D-02        UMP4(SDQ)=  -0.33892122731D+02
 VARIATIONAL ENERGIES WITH THE FIRST-ORDER WAVEFUNCTION:
 DE(Corr)= -0.23442132     E(Corr)=     -33.884629524    
 NORM(A)=   0.10418044D+01
 Iteration Nr.   2
 **********************
 DD1Dir will call FoFMem   1 times, MxPair=        72
 NAB=    36 NAA=     0 NBB=     0.
 A-vector RMS=  9.8525257D-04 Max=  2.7339335D-03 conv= 1.00D-05.
 RLE energy=       -0.2423744441
 DE(Corr)= -0.24042578     E(CORR)=     -33.890633990     Delta=-6.00D-03
 NORM(A)=   0.10456169D+01
 Iteration Nr.   3
 **********************
 DD1Dir will call FoFMem   1 times, MxPair=        72
 NAB=    36 NAA=     0 NBB=     0.
 A-vector RMS=  3.8853075D-04 Max=  1.1662755D-03 conv= 1.00D-05.
 RLE energy=       -0.2429264074
 DE(Corr)= -0.24247663     E(CORR)=     -33.892684836     Delta=-2.05D-03
 NORM(A)=   0.10461833D+01
 Iteration Nr.   4
 **********************
 DD1Dir will call FoFMem   1 times, MxPair=        72
 NAB=    36 NAA=     0 NBB=     0.
 A-vector RMS=  9.3986689D-05 Max=  2.5296473D-04 conv= 1.00D-05.
 RLE energy=       -0.2429738258
 DE(Corr)= -0.24293750     E(CORR)=     -33.893145707     Delta=-4.61D-04
 NORM(A)=   0.10462593D+01
 Iteration Nr.   5
 **********************
 DD1Dir will call FoFMem   1 times, MxPair=        72
 NAB=    36 NAA=     0 NBB=     0.
 A-vector RMS=  4.2454282D-05 Max=  1.5393552D-04 conv= 1.00D-05.
 RLE energy=       -0.2429720239
 DE(Corr)= -0.24296995     E(CORR)=     -33.893178154     Delta=-3.24D-05
 NORM(A)=   0.10462704D+01
 Iteration Nr.   6
 **********************
 DD1Dir will call FoFMem   1 times, MxPair=        72
 NAB=    36 NAA=     0 NBB=     0.
 A-vector RMS=  1.1578461D-05 Max=  4.1421095D-05 conv= 1.00D-05.
 RLE energy=       -0.2429711208
 DE(Corr)= -0.24297216     E(CORR)=     -33.893180370     Delta=-2.22D-06
 NORM(A)=   0.10462741D+01
 Iteration Nr.   7
 **********************
 DD1Dir will call FoFMem   1 times, MxPair=        72
 NAB=    36 NAA=     0 NBB=     0.
 A-vector RMS=  3.3981711D-06 Max=  1.2185035D-05 conv= 1.00D-05.
 RLE energy=       -0.2429720544
 DE(Corr)= -0.24297152     E(CORR)=     -33.893179726     Delta= 6.44D-07
 NORM(A)=   0.10462755D+01
 Iteration Nr.   8
 **********************
 DD1Dir will call FoFMem   1 times, MxPair=        72
 NAB=    36 NAA=     0 NBB=     0.
 A-vector RMS=  6.1624857D-07 Max=  2.0467367D-06 conv= 1.00D-05.
 RLE energy=       -0.2429715536
 DE(Corr)= -0.24297157     E(CORR)=     -33.893179775     Delta=-4.94D-08
 NORM(A)=   0.10462756D+01
 CI/CC converged in    8 iterations to DelEn=-4.94D-08 Conv= 1.00D-07 ErrA1= 6.16D-07 Conv= 1.00D-05
 Wavefunction amplitudes converged. E(Corr)=     -33.893179775    
 Largest amplitude= 5.79D-02
 IPart=  2 IA=    2   12.50% done.
 IPart=  3 IA=    3   24.17% done.
 IPart=  4 IA=    4   35.00% done.
 IPart=  4 IA=    5   45.00% done.
 IPart=  3 IA=    6   54.17% done.
 IPart=  2 IA=    7   62.50% done.
 IPart=  1 IA=    8   70.00% done.
 IPart=  4 IA=   10   82.50% done.
 IPart=  2 IA=   12   91.67% done.
 Time for triples=        0.24 seconds.
 T4(CCSD)= -0.30953728D-02
 T5(CCSD)=  0.52771485D-03
 CCSD(T)= -0.33895747433D+02
 Discarding MO integrals.
 Leave Link  913 at Sun Dec 10 06:35:55 2023, MaxMem=   536870912 cpu:               0.8 elap:               0.2
 (Enter /usr/site/hpc/x86_64/glibc-2.17/broadwell/gaussian/g16_a.03/pgi-16.5/g16/l601.exe)
 Copying SCF densities to generalized density rwf, IOpCl= 0 IROHF=0.

 **********************************************************************

            Population analysis using the SCF density.

 **********************************************************************

 Orbital symmetries:
       Occupied  (A') (A') (A') (A') (A') (A') (A") (A")
       Virtual   (A') (A') (A') (A') (A") (A") (A') (A') (A') (A')
                 (A') (A') (A') (A') (A') (A')
 The electronic state is 1-A'.
 Alpha  occ. eigenvalues --   -1.34978  -1.34554  -0.70606  -0.70166  -0.54624
 Alpha  occ. eigenvalues --   -0.54197  -0.49526  -0.49104
 Alpha virt. eigenvalues --    0.20684   0.21157   0.30938   0.31350   0.81023
 Alpha virt. eigenvalues --    0.81445   0.83659   0.85030   0.87251   0.87938
 Alpha virt. eigenvalues --    1.17857   1.18276   1.22328   1.22751   2.57911
 Alpha virt. eigenvalues --    2.58328
          Condensed to atoms (all electrons):
               1          2          3          4          5          6
     1  O    6.210999   0.261202   0.263427   0.000004   0.000000   0.000001
     2  H    0.261202   0.396773  -0.023684   0.000000  -0.000000  -0.000000
     3  H    0.263427  -0.023684   0.390328   0.000000  -0.000000  -0.000000
     4  O    0.000004   0.000000   0.000000   6.210582   0.260312   0.263818
     5  H    0.000000  -0.000000  -0.000000   0.260312   0.399344  -0.023802
     6  H    0.000001  -0.000000  -0.000000   0.263818  -0.023802   0.389418
 Mulliken charges:
               1
     1  O   -0.735633
     2  H    0.365709
     3  H    0.369929
     4  O   -0.734715
     5  H    0.364146
     6  H    0.370565
 Sum of Mulliken charges =   0.00000
 Mulliken charges with hydrogens summed into heavy atoms:
               1
     1  O    0.000004
     4  O   -0.000004
 Electronic spatial extent (au):  <R**2>=            400.6889
 Charge=              0.0000 electrons
 Dipole moment (field-independent basis, Debye):
    X=             -1.8576    Y=             -0.7886    Z=              0.0000  Tot=              2.0180
 Quadrupole moment (field-independent basis, Debye-Ang):
   XX=             -9.1035   YY=             11.0380   ZZ=            -14.9868
   XY=             -3.7734   XZ=              0.0000   YZ=              0.0000
 Traceless Quadrupole moment (field-independent basis, Debye-Ang):
   XX=             -4.7527   YY=             15.3888   ZZ=            -10.6360
   XY=             -3.7734   XZ=              0.0000   YZ=              0.0000
 Octapole moment (field-independent basis, Debye-Ang**2):
  XXX=             -1.9418  YYY=             -5.7482  ZZZ=              0.0000  XYY=             -5.7728
  XXY=             -4.1214  XXZ=              0.0000  XZZ=             -0.3475  YZZ=             -0.1505
  YYZ=              0.0000  XYZ=              0.0000
 Hexadecapole moment (field-independent basis, Debye-Ang**3):
 XXXX=            -11.8554 YYYY=           -136.5638 ZZZZ=            -12.2179 XXXY=             -2.4976
 XXXZ=              0.0000 YYYX=             -8.2181 YYYZ=              0.0000 ZZZX=              0.0000
 ZZZY=              0.0000 XXYY=            -56.2402 XXZZ=             -4.5781 YYZZ=            -97.5932
 XXYZ=              0.0000 YYXZ=              0.0000 ZZXY=              0.5595
 N-N= 2.017527885672D+01 E-N=-1.220657862737D+02  KE= 2.676992817444D+01
 Symmetry A'   KE= 1.788457841788D+01
 Symmetry A"   KE= 8.885349756559D+00
 Leave Link  601 at Sun Dec 10 06:35:55 2023, MaxMem=   536870912 cpu:               0.1 elap:               0.0
 (Enter /usr/site/hpc/x86_64/glibc-2.17/broadwell/gaussian/g16_a.03/pgi-16.5/g16/l9999.exe)
 1\1\GINC-N045\SP\RCCSD(T)-FC\CEP-31G\H4O2\ROOT\10-Dec-2023\0\\#p CCSD(
 T)/CEP-31G\\H2O_H2O_3112\\0,1\O,0,0.,-0.009833,0.\H,0,-0.799571,-0.580
 965,0.\H,0,0.799571,-0.580965,0.\O,0,-0.006953,4.89187,0.\H,0,0.154578
 ,5.861104,0.\H,0,-0.976187,4.730339,0.\\Version=ES64L-G16RevA.03\State
 =1-A'\HF=-33.6502082\MP2=-33.8787012\MP3=-33.8841718\MP4D=-33.8893578\
 MP4DQ=-33.8900902\MP4SDQ=-33.8921227\CCSD=-33.8931798\CCSD(T)=-33.8957
 474\RMSD=2.502e-10\PG=CS [SG(H4O2)]\\@


 DEFINE YOUR TERMS, YOU WILL PERMIT ME AGAIN TO SAY, 
 OR WE SHALL NEVER UNDERSTAND ONE ANOTHER.

                                    -- VOLTAIRE
 Job cpu time:       0 days  0 hours  0 minutes  3.2 seconds.
 Elapsed time:       0 days  0 hours  0 minutes  1.0 seconds.
 File lengths (MBytes):  RWF=     72 Int=      0 D2E=      0 Chk=      8 Scr=      8
 Normal termination of Gaussian 16 at Sun Dec 10 06:35:55 2023.
