 Entering Gaussian System, Link 0=g16
 Input=H2O_H2O_4174.com
 Output=H2O_H2O_4174.log
 Initial command:
 /usr/site/hpc/x86_64/glibc-2.17/broadwell/gaussian/g16_a.03/pgi-16.5/g16/l1.exe "/gpfs/gpfs1/scratch/c7441090/OO Coord/Gau-1803335.inp" -scrdir="/gpfs/gpfs1/scratch/c7441090/OO Coord/"
 Entering Link 1 = /usr/site/hpc/x86_64/glibc-2.17/broadwell/gaussian/g16_a.03/pgi-16.5/g16/l1.exe PID=   1803336.
  
 Copyright (c) 1988,1990,1992,1993,1995,1998,2003,2009,2016,
            Gaussian, Inc.  All Rights Reserved.
  
 This is part of the Gaussian(R) 16 program.  It is based on
 the Gaussian(R) 09 system (copyright 2009, Gaussian, Inc.),
 the Gaussian(R) 03 system (copyright 2003, Gaussian, Inc.),
 the Gaussian(R) 98 system (copyright 1998, Gaussian, Inc.),
 the Gaussian(R) 94 system (copyright 1995, Gaussian, Inc.),
 the Gaussian 92(TM) system (copyright 1992, Gaussian, Inc.),
 the Gaussian 90(TM) system (copyright 1990, Gaussian, Inc.),
 the Gaussian 88(TM) system (copyright 1988, Gaussian, Inc.),
 the Gaussian 86(TM) system (copyright 1986, Carnegie Mellon
 University), and the Gaussian 82(TM) system (copyright 1983,
 Carnegie Mellon University). Gaussian is a federally registered
 trademark of Gaussian, Inc.
  
 This software contains proprietary and confidential information,
 including trade secrets, belonging to Gaussian, Inc.
  
 This software is provided under written license and may be
 used, copied, transmitted, or stored only in accord with that
 written license.
  
 The following legend is applicable only to US Government
 contracts under FAR:
  
                    RESTRICTED RIGHTS LEGEND
  
 Use, reproduction and disclosure by the US Government is
 subject to restrictions as set forth in subparagraphs (a)
 and (c) of the Commercial Computer Software - Restricted
 Rights clause in FAR 52.227-19.
  
 Gaussian, Inc.
 340 Quinnipiac St., Bldg. 40, Wallingford CT 06492
  
  
 ---------------------------------------------------------------
 Warning -- This program may not be used in any manner that
 competes with the business of Gaussian, Inc. or will provide
 assistance to any competitor of Gaussian, Inc.  The licensee
 of this program is prohibited from giving any competitor of
 Gaussian, Inc. access to this program.  By using this program,
 the user acknowledges that Gaussian, Inc. is engaged in the
 business of creating and licensing software in the field of
 computational chemistry and represents and warrants to the
 licensee that it is not a competitor of Gaussian, Inc. and that
 it will not use this program in any manner prohibited above.
 ---------------------------------------------------------------
  

 Cite this work as:
 Gaussian 16, Revision A.03,
 M. J. Frisch, G. W. Trucks, H. B. Schlegel, G. E. Scuseria, 
 M. A. Robb, J. R. Cheeseman, G. Scalmani, V. Barone, 
 G. A. Petersson, H. Nakatsuji, X. Li, M. Caricato, A. V. Marenich, 
 J. Bloino, B. G. Janesko, R. Gomperts, B. Mennucci, H. P. Hratchian, 
 J. V. Ortiz, A. F. Izmaylov, J. L. Sonnenberg, D. Williams-Young, 
 F. Ding, F. Lipparini, F. Egidi, J. Goings, B. Peng, A. Petrone, 
 T. Henderson, D. Ranasinghe, V. G. Zakrzewski, J. Gao, N. Rega, 
 G. Zheng, W. Liang, M. Hada, M. Ehara, K. Toyota, R. Fukuda, 
 J. Hasegawa, M. Ishida, T. Nakajima, Y. Honda, O. Kitao, H. Nakai, 
 T. Vreven, K. Throssell, J. A. Montgomery, Jr., J. E. Peralta, 
 F. Ogliaro, M. J. Bearpark, J. J. Heyd, E. N. Brothers, K. N. Kudin, 
 V. N. Staroverov, T. A. Keith, R. Kobayashi, J. Normand, 
 K. Raghavachari, A. P. Rendell, J. C. Burant, S. S. Iyengar, 
 J. Tomasi, M. Cossi, J. M. Millam, M. Klene, C. Adamo, R. Cammi, 
 J. W. Ochterski, R. L. Martin, K. Morokuma, O. Farkas, 
 J. B. Foresman, and D. J. Fox, Gaussian, Inc., Wallingford CT, 2016.
 
 ******************************************
 Gaussian 16:  ES64L-G16RevA.03 25-Dec-2016
                10-Dec-2023 
 ******************************************
 %NProcShared=4
 Will use up to    4 processors via shared memory.
 %Mem=4GB
 %Chk=H2O_H2O_4174.chk
 ------------------
 #p CCSD(T)/CEP-31G
 ------------------
 1/38=1,172=1/1;
 2/12=2,17=6,18=5,40=1/2;
 3/5=9,6=1,11=9,25=1,30=1/1,2,3;
 4//1;
 5/5=2,38=5/2;
 8/6=4,9=120000,10=1/1,4;
 9/5=7,14=2/13;
 6/7=2,8=2,9=2,10=2/1;
 99/5=1,9=1/99;
 Leave Link    1 at Sun Dec 10 06:55:14 2023, MaxMem=   536870912 cpu:               0.2 elap:               0.1
 (Enter /usr/site/hpc/x86_64/glibc-2.17/broadwell/gaussian/g16_a.03/pgi-16.5/g16/l101.exe)
 ------------
 H2O_H2O_4174
 ------------
 Symbolic Z-matrix:
 Charge =  0 Multiplicity = 1
 O                     0.       -0.00983   0. 
 H                    -0.79957  -0.58097   0. 
 H                     0.79957  -0.58097   0. 
 O                    -0.00983   6.00177   0. 
 H                    -0.58097   6.80135   0. 
 H                    -0.58097   5.2022    0. 
 
 ITRead=  0  0  0  0  0  0
 MicOpt= -1 -1 -1 -1 -1 -1
 NAtoms=      6 NQM=        6 NQMF=       0 NMMI=      0 NMMIF=      0
                NMic=       0 NMicF=      0.
                    Isotopes and Nuclear Properties:
 (Nuclear quadrupole moments (NQMom) in fm**2, nuclear magnetic moments (NMagM)
  in nuclear magnetons)

  Atom         1           2           3           4           5           6
 IAtWgt=          16           1           1          16           1           1
 AtmWgt=  15.9949146   1.0078250   1.0078250  15.9949146   1.0078250   1.0078250
 NucSpn=           0           1           1           0           1           1
 AtZEff=  -0.0000000  -0.0000000  -0.0000000  -0.0000000  -0.0000000  -0.0000000
 NQMom=    0.0000000   0.0000000   0.0000000   0.0000000   0.0000000   0.0000000
 NMagM=    0.0000000   2.7928460   2.7928460   0.0000000   2.7928460   2.7928460
 AtZNuc=   8.0000000   1.0000000   1.0000000   8.0000000   1.0000000   1.0000000
 Leave Link  101 at Sun Dec 10 06:55:14 2023, MaxMem=   536870912 cpu:               0.3 elap:               0.1
 (Enter /usr/site/hpc/x86_64/glibc-2.17/broadwell/gaussian/g16_a.03/pgi-16.5/g16/l202.exe)
                          Input orientation:                          
 ---------------------------------------------------------------------
 Center     Atomic      Atomic             Coordinates (Angstroms)
 Number     Number       Type             X           Y           Z
 ---------------------------------------------------------------------
      1          8           0        0.000000   -0.009833    0.000000
      2          1           0       -0.799571   -0.580965    0.000000
      3          1           0        0.799571   -0.580965    0.000000
      4          8           0       -0.009833    6.001774    0.000000
      5          1           0       -0.580965    6.801345    0.000000
      6          1           0       -0.580965    5.202202    0.000000
 ---------------------------------------------------------------------
                    Distance matrix (angstroms):
                    1          2          3          4          5
     1  O    0.000000
     2  H    0.982601   0.000000
     3  H    0.982601   1.599142   0.000000
     4  O    6.011615   6.629943   6.632314   0.000000
     5  H    6.835910   7.385546   7.510285   0.982601   0.000000
     6  H    5.244314   5.787297   5.945662   0.982602   1.599143
                    6
     6  H    0.000000
 Stoichiometry    H4O2
 Framework group  CS[SG(H4O2)]
 Deg. of freedom     9
 Full point group                 CS      NOp   2
 Largest Abelian subgroup         CS      NOp   2
 Largest concise Abelian subgroup C1      NOp   1
                         Standard orientation:                         
 ---------------------------------------------------------------------
 Center     Atomic      Atomic             Coordinates (Angstroms)
 Number     Number       Type             X           Y           Z
 ---------------------------------------------------------------------
      1          8           0        0.057207   -2.948788    0.000000
      2          1           0       -0.743298   -3.518611    0.000000
      3          1           0        0.855842   -3.521227    0.000000
      4          8           0        0.057207    3.062827    0.000000
      5          1           0       -0.512617    3.863331    0.000000
      6          1           0       -0.515233    2.264191    0.000000
 ---------------------------------------------------------------------
 Rotational constants (GHZ):         269.8897684           1.5116419           1.5032224
 Leave Link  202 at Sun Dec 10 06:55:15 2023, MaxMem=   536870912 cpu:               0.1 elap:               0.0
 (Enter /usr/site/hpc/x86_64/glibc-2.17/broadwell/gaussian/g16_a.03/pgi-16.5/g16/l301.exe)
 Standard basis: CEP-31G (6D, 10F)
 Ernie: Thresh=  0.10000D-02 Tol=  0.10000D-05 Strict=F.
 There are    20 symmetry adapted cartesian basis functions of A'  symmetry.
 There are     4 symmetry adapted cartesian basis functions of A"  symmetry.
 There are    20 symmetry adapted basis functions of A'  symmetry.
 There are     4 symmetry adapted basis functions of A"  symmetry.
    24 basis functions,    48 primitive gaussians,    24 cartesian basis functions
     8 alpha electrons        8 beta electrons
       nuclear repulsion energy        19.1059567701 Hartrees.
 IExCor=    0 DFT=F Ex=HF Corr=None ExCW=0 ScaHFX=  1.000000
 ScaDFX=  1.000000  1.000000  1.000000  1.000000 ScalE2=  1.000000  1.000000
 IRadAn=      5 IRanWt=     -1 IRanGd=            0 ICorTp=0 IEmpDi=  4
 NAtoms=    6 NActive=    6 NUniq=    6 SFac= 1.00D+00 NAtFMM=   60 NAOKFM=F Big=F
 Integral buffers will be    131072 words long.
 Raffenetti 1 integral format.
 Two-electron integral symmetry is turned on.
 Leave Link  301 at Sun Dec 10 06:55:15 2023, MaxMem=   536870912 cpu:               0.2 elap:               0.1
 (Enter /usr/site/hpc/x86_64/glibc-2.17/broadwell/gaussian/g16_a.03/pgi-16.5/g16/l302.exe)
 NPDir=0 NMtPBC=     1 NCelOv=     1 NCel=       1 NClECP=     1 NCelD=      1
         NCelK=      1 NCelE2=     1 NClLst=     1 CellRange=     0.0.
 One-electron integrals computed using PRISM.
 One-electron integral symmetry used in STVInt
   2 Symmetry operations used in ECPInt.
 ECPInt:  NShTT=      78 NPrTT=     318 LenC2=      77 LenP2D=     244.
 LDataN:  DoStor=T MaxTD1= 2 Len=   12
 NBasis=    24 RedAO= T EigKep=  3.86D-02  NBF=    20     4
 NBsUse=    24 1.00D-06 EigRej= -1.00D+00 NBFU=    20     4
 Leave Link  302 at Sun Dec 10 06:55:15 2023, MaxMem=   536870912 cpu:               0.3 elap:               0.1
 (Enter /usr/site/hpc/x86_64/glibc-2.17/broadwell/gaussian/g16_a.03/pgi-16.5/g16/l303.exe)
 DipDrv:  MaxL=1.
 Leave Link  303 at Sun Dec 10 06:55:15 2023, MaxMem=   536870912 cpu:               0.1 elap:               0.0
 (Enter /usr/site/hpc/x86_64/glibc-2.17/broadwell/gaussian/g16_a.03/pgi-16.5/g16/l401.exe)
 ExpMin= 1.78D-01 ExpMax= 1.92D+01 ExpMxC= 1.92D+01 IAcc=3 IRadAn=         5 AccDes= 0.00D+00
 Harris functional with IExCor=  205 and IRadAn=       5 diagonalized for initial guess.
 HarFok:  IExCor=  205 AccDes= 0.00D+00 IRadAn=         5 IDoV= 1 UseB2=F ITyADJ=14
 ICtDFT=  3500011 ScaDFX=  1.000000  1.000000  1.000000  1.000000
 FoFCou: FMM=F IPFlag=           0 FMFlag=      100000 FMFlg1=           0
         NFxFlg=           0 DoJE=T BraDBF=F KetDBF=T FulRan=T
         wScrn=  0.000000 ICntrl=       500 IOpCl=  0 I1Cent=   200000004 NGrid=           0
         NMat0=    1 NMatS0=      1 NMatT0=    0 NMatD0=    1 NMtDS0=    0 NMtDT0=    0
 Petite list used in FoFCou.
 Harris En= -34.4763673829482    
 JPrj=0 DoOrth=F DoCkMO=F.
 Initial guess orbital symmetries:
       Occupied  (A') (A') (A') (A') (A') (A') (A") (A")
       Virtual   (A') (A') (A') (A') (A") (A") (A') (A') (A') (A')
                 (A') (A') (A') (A') (A') (A')
 The electronic state of the initial guess is 1-A'.
 Leave Link  401 at Sun Dec 10 06:55:15 2023, MaxMem=   536870912 cpu:               0.4 elap:               0.1
 (Enter /usr/site/hpc/x86_64/glibc-2.17/broadwell/gaussian/g16_a.03/pgi-16.5/g16/l502.exe)
 Keep R1 ints in memory in symmetry-blocked form, NReq=851795.
 FoFCou: FMM=F IPFlag=           0 FMFlag=           0 FMFlg1=           0
         NFxFlg=           0 DoJE=F BraDBF=F KetDBF=F FulRan=T
         wScrn=  0.000000 ICntrl=       600 IOpCl=  0 I1Cent=           0 NGrid=           0
         NMat0=    1 NMatS0=    300 NMatT0=    0 NMatD0=    1 NMtDS0=    0 NMtDT0=    0
 Petite list used in FoFCou.
 Closed shell SCF:
 Using DIIS extrapolation, IDIIS=  1040.
 NGot=   536870912 LenX=   536840576 LenY=   536839559
 Requested convergence on RMS density matrix=1.00D-08 within 128 cycles.
 Requested convergence on MAX density matrix=1.00D-06.
 Requested convergence on             energy=1.00D-06.
 No special actions if energy rises.

 Cycle   1  Pass 1  IDiag  1:
 E= -33.5580401549511    
 DIIS: error= 6.87D-02 at cycle   1 NSaved=   1.
 NSaved= 1 IEnMin= 1 EnMin= -33.5580401549511     IErMin= 1 ErrMin= 6.87D-02
 ErrMax= 6.87D-02  0.00D+00 EMaxC= 1.00D-01 BMatC= 1.02D-01 BMatP= 1.02D-01
 IDIUse=3 WtCom= 3.13D-01 WtEn= 6.87D-01
 Coeff-Com:  0.100D+01
 Coeff-En:   0.100D+01
 Coeff:      0.100D+01
 Gap=     0.606 Goal=   None    Shift=    0.000
 GapD=    0.606 DampG=2.000 DampE=0.500 DampFc=1.0000 IDamp=-1.
 RMSDP=1.48D-02 MaxDP=1.17D-01              OVMax= 9.89D-02

 Cycle   2  Pass 1  IDiag  1:
 E= -33.6207729468280     Delta-E=       -0.062732791877 Rises=F Damp=F
 DIIS: error= 3.73D-02 at cycle   2 NSaved=   2.
 NSaved= 2 IEnMin= 2 EnMin= -33.6207729468280     IErMin= 2 ErrMin= 3.73D-02
 ErrMax= 3.73D-02  0.00D+00 EMaxC= 1.00D-01 BMatC= 3.82D-02 BMatP= 1.02D-01
 IDIUse=3 WtCom= 6.27D-01 WtEn= 3.73D-01
 Coeff-Com:  0.377D+00 0.623D+00
 Coeff-En:   0.109D+00 0.891D+00
 Coeff:      0.277D+00 0.723D+00
 Gap=     0.700 Goal=   None    Shift=    0.000
 RMSDP=6.40D-03 MaxDP=5.42D-02 DE=-6.27D-02 OVMax= 3.57D-02

 Cycle   3  Pass 1  IDiag  1:
 E= -33.6512928218073     Delta-E=       -0.030519874979 Rises=F Damp=F
 DIIS: error= 7.15D-03 at cycle   3 NSaved=   3.
 NSaved= 3 IEnMin= 3 EnMin= -33.6512928218073     IErMin= 3 ErrMin= 7.15D-03
 ErrMax= 7.15D-03  0.00D+00 EMaxC= 1.00D-01 BMatC= 8.97D-04 BMatP= 3.82D-02
 IDIUse=3 WtCom= 9.28D-01 WtEn= 7.15D-02
 Coeff-Com: -0.114D+00-0.163D-01 0.113D+01
 Coeff-En:   0.000D+00 0.000D+00 0.100D+01
 Coeff:     -0.106D+00-0.151D-01 0.112D+01
 Gap=     0.693 Goal=   None    Shift=    0.000
 RMSDP=1.07D-03 MaxDP=9.24D-03 DE=-3.05D-02 OVMax= 8.04D-03

 Cycle   4  Pass 1  IDiag  1:
 E= -33.6521872601426     Delta-E=       -0.000894438335 Rises=F Damp=F
 DIIS: error= 7.51D-04 at cycle   4 NSaved=   4.
 NSaved= 4 IEnMin= 4 EnMin= -33.6521872601426     IErMin= 4 ErrMin= 7.51D-04
 ErrMax= 7.51D-04  0.00D+00 EMaxC= 1.00D-01 BMatC= 5.85D-06 BMatP= 8.97D-04
 IDIUse=3 WtCom= 9.92D-01 WtEn= 7.51D-03
 Coeff-Com:  0.438D-01-0.175D-01-0.527D+00 0.150D+01
 Coeff-En:   0.000D+00 0.000D+00 0.000D+00 0.100D+01
 Coeff:      0.435D-01-0.174D-01-0.523D+00 0.150D+01
 Gap=     0.694 Goal=   None    Shift=    0.000
 RMSDP=2.35D-04 MaxDP=2.02D-03 DE=-8.94D-04 OVMax= 9.56D-04

 Cycle   5  Pass 1  IDiag  1:
 E= -33.6522002756270     Delta-E=       -0.000013015484 Rises=F Damp=F
 DIIS: error= 4.97D-05 at cycle   5 NSaved=   5.
 NSaved= 5 IEnMin= 5 EnMin= -33.6522002756270     IErMin= 5 ErrMin= 4.97D-05
 ErrMax= 4.97D-05  0.00D+00 EMaxC= 1.00D-01 BMatC= 3.79D-08 BMatP= 5.85D-06
 IDIUse=1 WtCom= 1.00D+00 WtEn= 0.00D+00
 Coeff-Com: -0.706D-02 0.317D-02 0.860D-01-0.293D+00 0.121D+01
 Coeff:     -0.706D-02 0.317D-02 0.860D-01-0.293D+00 0.121D+01
 Gap=     0.694 Goal=   None    Shift=    0.000
 RMSDP=1.57D-05 MaxDP=1.49D-04 DE=-1.30D-05 OVMax= 1.02D-04

 Cycle   6  Pass 1  IDiag  1:
 E= -33.6522003693850     Delta-E=       -0.000000093758 Rises=F Damp=F
 DIIS: error= 1.08D-05 at cycle   6 NSaved=   6.
 NSaved= 6 IEnMin= 6 EnMin= -33.6522003693850     IErMin= 6 ErrMin= 1.08D-05
 ErrMax= 1.08D-05  0.00D+00 EMaxC= 1.00D-01 BMatC= 2.13D-09 BMatP= 3.79D-08
 IDIUse=1 WtCom= 1.00D+00 WtEn= 0.00D+00
 Coeff-Com:  0.118D-02-0.416D-03-0.139D-01 0.537D-01-0.392D+00 0.135D+01
 Coeff:      0.118D-02-0.416D-03-0.139D-01 0.537D-01-0.392D+00 0.135D+01
 Gap=     0.694 Goal=   None    Shift=    0.000
 RMSDP=3.86D-06 MaxDP=4.01D-05 DE=-9.38D-08 OVMax= 3.47D-05

 Cycle   7  Pass 1  IDiag  1:
 E= -33.6522003752052     Delta-E=       -0.000000005820 Rises=F Damp=F
 DIIS: error= 2.25D-06 at cycle   7 NSaved=   7.
 NSaved= 7 IEnMin= 7 EnMin= -33.6522003752052     IErMin= 7 ErrMin= 2.25D-06
 ErrMax= 2.25D-06  0.00D+00 EMaxC= 1.00D-01 BMatC= 1.37D-10 BMatP= 2.13D-09
 IDIUse=1 WtCom= 1.00D+00 WtEn= 0.00D+00
 Coeff-Com:  0.403D-03-0.198D-03-0.493D-02 0.162D-01-0.518D-01-0.448D-01
 Coeff-Com:  0.109D+01
 Coeff:      0.403D-03-0.198D-03-0.493D-02 0.162D-01-0.518D-01-0.448D-01
 Coeff:      0.109D+01
 Gap=     0.694 Goal=   None    Shift=    0.000
 RMSDP=9.31D-07 MaxDP=9.20D-06 DE=-5.82D-09 OVMax= 8.48D-06

 Cycle   8  Pass 1  IDiag  1:
 E= -33.6522003754982     Delta-E=       -0.000000000293 Rises=F Damp=F
 DIIS: error= 7.05D-07 at cycle   8 NSaved=   8.
 NSaved= 8 IEnMin= 8 EnMin= -33.6522003754982     IErMin= 8 ErrMin= 7.05D-07
 ErrMax= 7.05D-07  0.00D+00 EMaxC= 1.00D-01 BMatC= 2.32D-11 BMatP= 1.37D-10
 IDIUse=1 WtCom= 1.00D+00 WtEn= 0.00D+00
 Coeff-Com: -0.537D-06-0.241D-04-0.629D-04-0.818D-03 0.308D-01-0.177D+00
 Coeff-Com:  0.287D+00 0.860D+00
 Coeff:     -0.537D-06-0.241D-04-0.629D-04-0.818D-03 0.308D-01-0.177D+00
 Coeff:      0.287D+00 0.860D+00
 Gap=     0.694 Goal=   None    Shift=    0.000
 RMSDP=3.35D-07 MaxDP=2.62D-06 DE=-2.93D-10 OVMax= 2.76D-06

 Cycle   9  Pass 1  IDiag  1:
 E= -33.6522003755335     Delta-E=       -0.000000000035 Rises=F Damp=F
 DIIS: error= 1.83D-07 at cycle   9 NSaved=   9.
 NSaved= 9 IEnMin= 9 EnMin= -33.6522003755335     IErMin= 9 ErrMin= 1.83D-07
 ErrMax= 1.83D-07  0.00D+00 EMaxC= 1.00D-01 BMatC= 6.86D-13 BMatP= 2.32D-11
 IDIUse=1 WtCom= 1.00D+00 WtEn= 0.00D+00
 Coeff-Com:  0.370D-05 0.705D-05-0.106D-04 0.406D-03-0.123D-01 0.731D-01
 Coeff-Com: -0.157D+00-0.324D+00 0.142D+01
 Coeff:      0.370D-05 0.705D-05-0.106D-04 0.406D-03-0.123D-01 0.731D-01
 Coeff:     -0.157D+00-0.324D+00 0.142D+01
 Gap=     0.694 Goal=   None    Shift=    0.000
 RMSDP=1.23D-07 MaxDP=5.90D-07 DE=-3.53D-11 OVMax= 8.33D-07

 Cycle  10  Pass 1  IDiag  1:
 E= -33.6522003755353     Delta-E=       -0.000000000002 Rises=F Damp=F
 DIIS: error= 8.57D-09 at cycle  10 NSaved=  10.
 NSaved=10 IEnMin=10 EnMin= -33.6522003755353     IErMin=10 ErrMin= 8.57D-09
 ErrMax= 8.57D-09  0.00D+00 EMaxC= 1.00D-01 BMatC= 2.82D-15 BMatP= 6.86D-13
 IDIUse=1 WtCom= 1.00D+00 WtEn= 0.00D+00
 Coeff-Com:  0.812D-07-0.189D-05-0.900D-05-0.549D-04 0.268D-02-0.167D-01
 Coeff-Com:  0.368D-01 0.723D-01-0.373D+00 0.128D+01
 Coeff:      0.812D-07-0.189D-05-0.900D-05-0.549D-04 0.268D-02-0.167D-01
 Coeff:      0.368D-01 0.723D-01-0.373D+00 0.128D+01
 Gap=     0.694 Goal=   None    Shift=    0.000
 RMSDP=1.18D-08 MaxDP=5.51D-08 DE=-1.78D-12 OVMax= 6.84D-08

 Cycle  11  Pass 1  IDiag  1:
 E= -33.6522003755354     Delta-E=       -0.000000000000 Rises=F Damp=F
 DIIS: error= 3.82D-10 at cycle  11 NSaved=  11.
 NSaved=11 IEnMin=11 EnMin= -33.6522003755354     IErMin=11 ErrMin= 3.82D-10
 ErrMax= 3.82D-10  0.00D+00 EMaxC= 1.00D-01 BMatC= 3.96D-18 BMatP= 2.82D-15
 IDIUse=1 WtCom= 1.00D+00 WtEn= 0.00D+00
 Coeff-Com: -0.751D-07 0.322D-06 0.217D-05 0.676D-05-0.437D-03 0.276D-02
 Coeff-Com: -0.614D-02-0.119D-01 0.631D-01-0.236D+00 0.119D+01
 Coeff:     -0.751D-07 0.322D-06 0.217D-05 0.676D-05-0.437D-03 0.276D-02
 Coeff:     -0.614D-02-0.119D-01 0.631D-01-0.236D+00 0.119D+01
 Gap=     0.694 Goal=   None    Shift=    0.000
 RMSDP=2.39D-10 MaxDP=1.10D-09 DE=-7.82D-14 OVMax= 1.04D-09

 SCF Done:  E(RHF) =  -33.6522003755     A.U. after   11 cycles
            NFock= 11  Conv=0.24D-09     -V/T= 2.2569
 KE= 2.677342665887D+01 PE=-1.198431538775D+02 EE= 4.031157007298D+01
 Leave Link  502 at Sun Dec 10 06:55:15 2023, MaxMem=   536870912 cpu:               0.3 elap:               0.1
 (Enter /usr/site/hpc/x86_64/glibc-2.17/broadwell/gaussian/g16_a.03/pgi-16.5/g16/l801.exe)
 Windowed orbitals will be sorted by symmetry type.
 Range of M.O.s used for correlation:     1    24
 NBasis=    24 NAE=     8 NBE=     8 NFC=     0 NFV=     0
 NROrb=     24 NOA=     8 NOB=     8 NVA=    16 NVB=    16
 Leave Link  801 at Sun Dec 10 06:55:15 2023, MaxMem=   536870912 cpu:               0.1 elap:               0.0
 (Enter /usr/site/hpc/x86_64/glibc-2.17/broadwell/gaussian/g16_a.03/pgi-16.5/g16/l804.exe)
 Closed-shell transformation, MDV=   536870912 ITran=4 ISComp=2.
 Unit  1 TFree=       1025975 TCopy=        210600.
 Semi-Direct transformation.
 ModeAB=           4 MOrb=             8 LenV=     536742614
 LASXX=        22470 LTotXX=       22470 LenRXX=       48678
 LTotAB=       26208 MaxLAS=       55296 LenRXY=           0
 NonZer=       71148 LenScr=      524288 LnRSAI=       55296
 LnScr1=      524288 LExtra=           0 Total=      1152550
 MaxDsk=          -1 SrtSym=           T ITran=            4
 DoSDTr:  NPSUse=  4
 JobTyp=0 Pass  1:  I=   1 to   8.
 (rs|ai) integrals will be sorted in core.
 Complete sort for first half transformation.
 First half transformation complete.
 Complete sort for second half transformation.
 Second half transformation complete.
 Spin components of T(2) and E(2):
     alpha-alpha T2 =       0.9066457159D-02 E2=     -0.2589162648D-01
     alpha-beta  T2 =       0.5992168866D-01 E2=     -0.1765824610D+00
     beta-beta   T2 =       0.9066457159D-02 E2=     -0.2589162648D-01
 ANorm=    0.1038294083D+01
 E2 =    -0.2283657139D+00 EUMP2 =    -0.33880566089458D+02
 Leave Link  804 at Sun Dec 10 06:55:15 2023, MaxMem=   536870912 cpu:               0.2 elap:               0.1
 (Enter /usr/site/hpc/x86_64/glibc-2.17/broadwell/gaussian/g16_a.03/pgi-16.5/g16/l913.exe)
 CIDS:  MDV=   536870912.
 IFCWin=0 IBDFC=1 NFBD=     0     0 NFCmp=     0     0 NFFFC=     0     0
 Using DD3R+UMP44R for 1st iteration.
 Using DD4RQ for 2nd and later iterations.
 Keep R2 and R3 ints in memory in symmetry-blocked form, NReq=864403.
 FoFCou: FMM=F IPFlag=           0 FMFlag=           0 FMFlg1=           0
         NFxFlg=           0 DoJE=F BraDBF=F KetDBF=F FulRan=T
         wScrn=  0.000000 ICntrl=       600 IOpCl=  0 I1Cent=           0 NGrid=           0
         NMat0=    1 NMatS0=    300 NMatT0=    0 NMatD0=    1 NMtDS0=    0 NMtDT0=    0
 Petite list used in FoFCou.
 CIDS: In Core Option IDoMem=           1.
 CCSD(T)
 =======
 Iterations=  50 Convergence= 0.100D-06
 Produce multiple copies of IABC intergrals
 Iteration Nr.   1
 **********************
 DD1Dir will call FoFMem   1 times, MxPair=        72
 NAB=    36 NAA=     0 NBB=     0.
 MP4(R+Q)= -0.74222309D-03
 Maximum subspace dimension=  5
 A-vector RMS=  5.7560642D-03 Max=  1.3213041D-02 conv= 1.00D-05.
 RLE energy=       -0.2344262784
 E3=       -0.54364890D-02        EUMP3=      -0.33886002578D+02
 E4(DQ)=   -0.59105510D-02        UMP4(DQ)=   -0.33891913129D+02
 E4(SDQ)=  -0.79371364D-02        UMP4(SDQ)=  -0.33893939715D+02
 VARIATIONAL ENERGIES WITH THE FIRST-ORDER WAVEFUNCTION:
 DE(Corr)= -0.23426994     E(Corr)=     -33.886470311    
 NORM(A)=   0.10417287D+01
 Iteration Nr.   2
 **********************
 DD1Dir will call FoFMem   1 times, MxPair=        72
 NAB=    36 NAA=     0 NBB=     0.
 A-vector RMS=  9.8278738D-04 Max=  2.7349588D-03 conv= 1.00D-05.
 RLE energy=       -0.2421985949
 DE(Corr)= -0.24025475     E(CORR)=     -33.892455128     Delta=-5.98D-03
 NORM(A)=   0.10455221D+01
 Iteration Nr.   3
 **********************
 DD1Dir will call FoFMem   1 times, MxPair=        72
 NAB=    36 NAA=     0 NBB=     0.
 A-vector RMS=  3.8303157D-04 Max=  1.1532330D-03 conv= 1.00D-05.
 RLE energy=       -0.2427489968
 DE(Corr)= -0.24230143     E(CORR)=     -33.894501805     Delta=-2.05D-03
 NORM(A)=   0.10460834D+01
 Iteration Nr.   4
 **********************
 DD1Dir will call FoFMem   1 times, MxPair=        72
 NAB=    36 NAA=     0 NBB=     0.
 A-vector RMS=  9.2283232D-05 Max=  2.4888878D-04 conv= 1.00D-05.
 RLE energy=       -0.2427958145
 DE(Corr)= -0.24275989     E(CORR)=     -33.894960262     Delta=-4.58D-04
 NORM(A)=   0.10461577D+01
 Iteration Nr.   5
 **********************
 DD1Dir will call FoFMem   1 times, MxPair=        72
 NAB=    36 NAA=     0 NBB=     0.
 A-vector RMS=  4.1469615D-05 Max=  1.5167520D-04 conv= 1.00D-05.
 RLE energy=       -0.2427940349
 DE(Corr)= -0.24279203     E(CORR)=     -33.894992407     Delta=-3.21D-05
 NORM(A)=   0.10461682D+01
 Iteration Nr.   6
 **********************
 DD1Dir will call FoFMem   1 times, MxPair=        72
 NAB=    36 NAA=     0 NBB=     0.
 A-vector RMS=  1.1311083D-05 Max=  4.0330953D-05 conv= 1.00D-05.
 RLE energy=       -0.2427931980
 DE(Corr)= -0.24279419     E(CORR)=     -33.894994566     Delta=-2.16D-06
 NORM(A)=   0.10461717D+01
 Iteration Nr.   7
 **********************
 DD1Dir will call FoFMem   1 times, MxPair=        72
 NAB=    36 NAA=     0 NBB=     0.
 A-vector RMS=  3.3255932D-06 Max=  1.1914079D-05 conv= 1.00D-05.
 RLE energy=       -0.2427941133
 DE(Corr)= -0.24279357     E(CORR)=     -33.894993949     Delta= 6.17D-07
 NORM(A)=   0.10461731D+01
 Iteration Nr.   8
 **********************
 DD1Dir will call FoFMem   1 times, MxPair=        72
 NAB=    36 NAA=     0 NBB=     0.
 A-vector RMS=  5.5847684D-07 Max=  1.7648209D-06 conv= 1.00D-05.
 RLE energy=       -0.2427936251
 DE(Corr)= -0.24279363     E(CORR)=     -33.894994005     Delta=-5.56D-08
 NORM(A)=   0.10461732D+01
 CI/CC converged in    8 iterations to DelEn=-5.56D-08 Conv= 1.00D-07 ErrA1= 5.58D-07 Conv= 1.00D-05
 Wavefunction amplitudes converged. E(Corr)=     -33.894994005    
 Largest amplitude= 5.86D-02
 IPart=  4 IA=    2   12.50% done.
 IPart=  3 IA=    3   24.17% done.
 IPart=  2 IA=    4   35.00% done.
 IPart=  2 IA=    5   45.00% done.
 IPart=  3 IA=    6   54.17% done.
 IPart=  4 IA=    7   62.50% done.
 IPart=  1 IA=    8   70.00% done.
 IPart=  4 IA=   10   82.50% done.
 IPart=  1 IA=   12   91.67% done.
 Time for triples=        0.23 seconds.
 T4(CCSD)= -0.30862205D-02
 T5(CCSD)=  0.52609725D-03
 CCSD(T)= -0.33897554128D+02
 Discarding MO integrals.
 Leave Link  913 at Sun Dec 10 06:55:15 2023, MaxMem=   536870912 cpu:               0.8 elap:               0.2
 (Enter /usr/site/hpc/x86_64/glibc-2.17/broadwell/gaussian/g16_a.03/pgi-16.5/g16/l601.exe)
 Copying SCF densities to generalized density rwf, IOpCl= 0 IROHF=0.

 **********************************************************************

            Population analysis using the SCF density.

 **********************************************************************

 Orbital symmetries:
       Occupied  (A') (A') (A') (A') (A') (A') (A") (A")
       Virtual   (A') (A') (A') (A') (A") (A") (A') (A') (A') (A')
                 (A') (A') (A') (A') (A') (A')
 The electronic state is 1-A'.
 Alpha  occ. eigenvalues --   -1.35768  -1.34837  -0.71403  -0.70456  -0.55527
 Alpha  occ. eigenvalues --   -0.54579  -0.50346  -0.49414
 Alpha virt. eigenvalues --    0.20025   0.20988   0.30268   0.31229   0.80206
 Alpha virt. eigenvalues --    0.81122   0.83185   0.84142   0.86317   0.87311
 Alpha virt. eigenvalues --    1.17151   1.18079   1.21605   1.22557   2.57156
 Alpha virt. eigenvalues --    2.58090
          Condensed to atoms (all electrons):
               1          2          3          4          5          6
     1  O    6.215274   0.262939   0.264389  -0.000000  -0.000000   0.000000
     2  H    0.262939   0.390790  -0.023500   0.000000   0.000000  -0.000000
     3  H    0.264389  -0.023500   0.386280   0.000000   0.000000  -0.000000
     4  O   -0.000000   0.000000   0.000000   6.215680   0.262100   0.264699
     5  H   -0.000000   0.000000   0.000000   0.262100   0.394132  -0.023502
     6  H    0.000000  -0.000000  -0.000000   0.264699  -0.023502   0.383594
 Mulliken charges:
               1
     1  O   -0.742601
     2  H    0.369771
     3  H    0.372831
     4  O   -0.742479
     5  H    0.367270
     6  H    0.375209
 Sum of Mulliken charges =   0.00000
 Mulliken charges with hydrogens summed into heavy atoms:
               1
     1  O    0.000000
     4  O   -0.000000
 Electronic spatial extent (au):  <R**2>=            568.5549
 Charge=              0.0000 electrons
 Dipole moment (field-independent basis, Debye):
    X=             -2.6379    Y=             -2.6726    Z=              0.0000  Tot=              3.7552
 Quadrupole moment (field-independent basis, Debye-Ang):
   XX=            -10.1655   YY=              5.6061   ZZ=            -14.9896
   XY=             -8.2732   XZ=              0.0000   YZ=              0.0000
 Traceless Quadrupole moment (field-independent basis, Debye-Ang):
   XX=             -3.6492   YY=             12.1224   ZZ=             -8.4732
   XY=             -8.2732   XZ=              0.0000   YZ=              0.0000
 Octapole moment (field-independent basis, Debye-Ang**2):
  XXX=             -1.2766  YYY=            -54.3892  ZZZ=              0.0000  XYY=            -25.2320
  XXY=             -8.0500  XXZ=              0.0000  XZZ=             -0.4953  YZZ=             -0.5079
  YYZ=              0.0000  XYZ=              0.0000
 Hexadecapole moment (field-independent basis, Debye-Ang**3):
 XXXX=            -12.8353 YYYY=           -280.4744 ZZZZ=            -12.2230 XXXY=             -0.0187
 XXXZ=              0.0000 YYYX=            -88.0302 YYYZ=              0.0000 ZZZX=              0.0000
 ZZZY=              0.0000 XXYY=            -90.4028 XXZZ=             -4.5357 YYZZ=           -142.1646
 XXYZ=              0.0000 YYXZ=              0.0000 ZZXY=              1.0590
 N-N= 1.910595677013D+01 E-N=-1.198431538819D+02  KE= 2.677342665887D+01
 Symmetry A'   KE= 1.789125753756D+01
 Symmetry A"   KE= 8.882169121308D+00
 Leave Link  601 at Sun Dec 10 06:55:15 2023, MaxMem=   536870912 cpu:               0.1 elap:               0.0
 (Enter /usr/site/hpc/x86_64/glibc-2.17/broadwell/gaussian/g16_a.03/pgi-16.5/g16/l9999.exe)
 1\1\GINC-N045\SP\RCCSD(T)-FC\CEP-31G\H4O2\ROOT\10-Dec-2023\0\\#p CCSD(
 T)/CEP-31G\\H2O_H2O_4174\\0,1\O,0,0.,-0.009833,0.\H,0,-0.799571,-0.580
 965,0.\H,0,0.799571,-0.580965,0.\O,0,-0.009833,6.001774,0.\H,0,-0.5809
 65,6.801345,0.\H,0,-0.580965,5.202202,0.\\Version=ES64L-G16RevA.03\Sta
 te=1-A'\HF=-33.6522004\MP2=-33.8805661\MP3=-33.8860026\MP4D=-33.891170
 9\MP4DQ=-33.8919131\MP4SDQ=-33.8939397\CCSD=-33.894994\CCSD(T)=-33.897
 5541\RMSD=2.385e-10\PG=CS [SG(H4O2)]\\@


 SUCCESS-- IF YOU HAVE TRIED TO DO SOMETHING AND FAILED
           YOU ARE BETTER OFF THAN IF YOU HAD TRIED TO DO
           NOTHING AND SUCCEEDED.

                   -- FROM THE BACK OF A SUGAR PACKET
 Job cpu time:       0 days  0 hours  0 minutes  3.1 seconds.
 Elapsed time:       0 days  0 hours  0 minutes  1.0 seconds.
 File lengths (MBytes):  RWF=     72 Int=      0 D2E=      0 Chk=      8 Scr=      8
 Normal termination of Gaussian 16 at Sun Dec 10 06:55:15 2023.
