 Entering Gaussian System, Link 0=g16
 Input=H2O_H2O_1266.com
 Output=H2O_H2O_1266.log
 Initial command:
 /usr/site/hpc/x86_64/glibc-2.17/broadwell/gaussian/g16_a.03/pgi-16.5/g16/l1.exe "/gpfs/gpfs1/scratch/c7441090/OO Coord/Gau-1272575.inp" -scrdir="/gpfs/gpfs1/scratch/c7441090/OO Coord/"
 Entering Link 1 = /usr/site/hpc/x86_64/glibc-2.17/broadwell/gaussian/g16_a.03/pgi-16.5/g16/l1.exe PID=   1272577.
  
 Copyright (c) 1988,1990,1992,1993,1995,1998,2003,2009,2016,
            Gaussian, Inc.  All Rights Reserved.
  
 This is part of the Gaussian(R) 16 program.  It is based on
 the Gaussian(R) 09 system (copyright 2009, Gaussian, Inc.),
 the Gaussian(R) 03 system (copyright 2003, Gaussian, Inc.),
 the Gaussian(R) 98 system (copyright 1998, Gaussian, Inc.),
 the Gaussian(R) 94 system (copyright 1995, Gaussian, Inc.),
 the Gaussian 92(TM) system (copyright 1992, Gaussian, Inc.),
 the Gaussian 90(TM) system (copyright 1990, Gaussian, Inc.),
 the Gaussian 88(TM) system (copyright 1988, Gaussian, Inc.),
 the Gaussian 86(TM) system (copyright 1986, Carnegie Mellon
 University), and the Gaussian 82(TM) system (copyright 1983,
 Carnegie Mellon University). Gaussian is a federally registered
 trademark of Gaussian, Inc.
  
 This software contains proprietary and confidential information,
 including trade secrets, belonging to Gaussian, Inc.
  
 This software is provided under written license and may be
 used, copied, transmitted, or stored only in accord with that
 written license.
  
 The following legend is applicable only to US Government
 contracts under FAR:
  
                    RESTRICTED RIGHTS LEGEND
  
 Use, reproduction and disclosure by the US Government is
 subject to restrictions as set forth in subparagraphs (a)
 and (c) of the Commercial Computer Software - Restricted
 Rights clause in FAR 52.227-19.
  
 Gaussian, Inc.
 340 Quinnipiac St., Bldg. 40, Wallingford CT 06492
  
  
 ---------------------------------------------------------------
 Warning -- This program may not be used in any manner that
 competes with the business of Gaussian, Inc. or will provide
 assistance to any competitor of Gaussian, Inc.  The licensee
 of this program is prohibited from giving any competitor of
 Gaussian, Inc. access to this program.  By using this program,
 the user acknowledges that Gaussian, Inc. is engaged in the
 business of creating and licensing software in the field of
 computational chemistry and represents and warrants to the
 licensee that it is not a competitor of Gaussian, Inc. and that
 it will not use this program in any manner prohibited above.
 ---------------------------------------------------------------
  

 Cite this work as:
 Gaussian 16, Revision A.03,
 M. J. Frisch, G. W. Trucks, H. B. Schlegel, G. E. Scuseria, 
 M. A. Robb, J. R. Cheeseman, G. Scalmani, V. Barone, 
 G. A. Petersson, H. Nakatsuji, X. Li, M. Caricato, A. V. Marenich, 
 J. Bloino, B. G. Janesko, R. Gomperts, B. Mennucci, H. P. Hratchian, 
 J. V. Ortiz, A. F. Izmaylov, J. L. Sonnenberg, D. Williams-Young, 
 F. Ding, F. Lipparini, F. Egidi, J. Goings, B. Peng, A. Petrone, 
 T. Henderson, D. Ranasinghe, V. G. Zakrzewski, J. Gao, N. Rega, 
 G. Zheng, W. Liang, M. Hada, M. Ehara, K. Toyota, R. Fukuda, 
 J. Hasegawa, M. Ishida, T. Nakajima, Y. Honda, O. Kitao, H. Nakai, 
 T. Vreven, K. Throssell, J. A. Montgomery, Jr., J. E. Peralta, 
 F. Ogliaro, M. J. Bearpark, J. J. Heyd, E. N. Brothers, K. N. Kudin, 
 V. N. Staroverov, T. A. Keith, R. Kobayashi, J. Normand, 
 K. Raghavachari, A. P. Rendell, J. C. Burant, S. S. Iyengar, 
 J. Tomasi, M. Cossi, J. M. Millam, M. Klene, C. Adamo, R. Cammi, 
 J. W. Ochterski, R. L. Martin, K. Morokuma, O. Farkas, 
 J. B. Foresman, and D. J. Fox, Gaussian, Inc., Wallingford CT, 2016.
 
 ******************************************
 Gaussian 16:  ES64L-G16RevA.03 25-Dec-2016
                10-Dec-2023 
 ******************************************
 %NProcShared=4
 Will use up to    4 processors via shared memory.
 %Mem=4GB
 %Chk=H2O_H2O_1266.chk
 ------------------
 #p CCSD(T)/CEP-31G
 ------------------
 1/38=1,172=1/1;
 2/12=2,17=6,18=5,40=1/2;
 3/5=9,6=1,11=9,25=1,30=1/1,2,3;
 4//1;
 5/5=2,38=5/2;
 8/6=4,9=120000,10=1/1,4;
 9/5=7,14=2/13;
 6/7=2,8=2,9=2,10=2/1;
 99/5=1,9=1/99;
 Leave Link    1 at Sun Dec 10 06:48:24 2023, MaxMem=   536870912 cpu:               0.2 elap:               0.1
 (Enter /usr/site/hpc/x86_64/glibc-2.17/broadwell/gaussian/g16_a.03/pgi-16.5/g16/l101.exe)
 ------------
 H2O_H2O_1266
 ------------
 Symbolic Z-matrix:
 Charge =  0 Multiplicity = 1
 O                     0.       -0.00983   0. 
 H                    -0.79957  -0.58097   0. 
 H                     0.79957  -0.58097   0. 
 O                    -0.00852   2.92204   0. 
 H                    -0.10335   3.90005   0. 
 H                    -0.90292   2.51516   0. 
 
 ITRead=  0  0  0  0  0  0
 MicOpt= -1 -1 -1 -1 -1 -1
 NAtoms=      6 NQM=        6 NQMF=       0 NMMI=      0 NMMIF=      0
                NMic=       0 NMicF=      0.
                    Isotopes and Nuclear Properties:
 (Nuclear quadrupole moments (NQMom) in fm**2, nuclear magnetic moments (NMagM)
  in nuclear magnetons)

  Atom         1           2           3           4           5           6
 IAtWgt=          16           1           1          16           1           1
 AtmWgt=  15.9949146   1.0078250   1.0078250  15.9949146   1.0078250   1.0078250
 NucSpn=           0           1           1           0           1           1
 AtZEff=  -0.0000000  -0.0000000  -0.0000000  -0.0000000  -0.0000000  -0.0000000
 NQMom=    0.0000000   0.0000000   0.0000000   0.0000000   0.0000000   0.0000000
 NMagM=    0.0000000   2.7928460   2.7928460   0.0000000   2.7928460   2.7928460
 AtZNuc=   8.0000000   1.0000000   1.0000000   8.0000000   1.0000000   1.0000000
 Leave Link  101 at Sun Dec 10 06:48:24 2023, MaxMem=   536870912 cpu:               0.3 elap:               0.1
 (Enter /usr/site/hpc/x86_64/glibc-2.17/broadwell/gaussian/g16_a.03/pgi-16.5/g16/l202.exe)
                          Input orientation:                          
 ---------------------------------------------------------------------
 Center     Atomic      Atomic             Coordinates (Angstroms)
 Number     Number       Type             X           Y           Z
 ---------------------------------------------------------------------
      1          8           0        0.000000   -0.009833    0.000000
      2          1           0       -0.799571   -0.580965    0.000000
      3          1           0        0.799571   -0.580965    0.000000
      4          8           0       -0.008516    2.922039    0.000000
      5          1           0       -0.103345    3.900054    0.000000
      6          1           0       -0.902916    2.515156    0.000000
 ---------------------------------------------------------------------
                    Distance matrix (angstroms):
                    1          2          3          4          5
     1  O    0.000000
     2  H    0.982601   0.000000
     3  H    0.982601   1.599142   0.000000
     4  O    2.931884   3.591212   3.595002   0.000000
     5  H    3.911253   4.534784   4.571082   0.982602   0.000000
     6  H    2.681572   3.097845   3.533331   0.982601   1.599142
                    6
     6  H    0.000000
 Stoichiometry    H4O2
 Framework group  CS[SG(H4O2)]
 Deg. of freedom     9
 Full point group                 CS      NOp   2
 Largest Abelian subgroup         CS      NOp   2
 Largest concise Abelian subgroup C1      NOp   1
                         Standard orientation:                         
 ---------------------------------------------------------------------
 Center     Atomic      Atomic             Coordinates (Angstroms)
 Number     Number       Type             X           Y           Z
 ---------------------------------------------------------------------
      1          8           0        0.049544   -1.437529    0.000000
      2          1           0       -0.751682   -2.006337    0.000000
      3          1           0        0.847453   -2.010981    0.000000
      4          8           0        0.049544    1.494355    0.000000
      5          1           0       -0.042444    2.472641    0.000000
      6          1           0       -0.846034    1.090072    0.000000
 ---------------------------------------------------------------------
 Rotational constants (GHZ):         245.2872566           5.9967651           5.8536553
 Leave Link  202 at Sun Dec 10 06:48:24 2023, MaxMem=   536870912 cpu:               0.1 elap:               0.0
 (Enter /usr/site/hpc/x86_64/glibc-2.17/broadwell/gaussian/g16_a.03/pgi-16.5/g16/l301.exe)
 Standard basis: CEP-31G (6D, 10F)
 Ernie: Thresh=  0.10000D-02 Tol=  0.10000D-05 Strict=F.
 There are    20 symmetry adapted cartesian basis functions of A'  symmetry.
 There are     4 symmetry adapted cartesian basis functions of A"  symmetry.
 There are    20 symmetry adapted basis functions of A'  symmetry.
 There are     4 symmetry adapted basis functions of A"  symmetry.
    24 basis functions,    48 primitive gaussians,    24 cartesian basis functions
     8 alpha electrons        8 beta electrons
       nuclear repulsion energy        24.4007788682 Hartrees.
 IExCor=    0 DFT=F Ex=HF Corr=None ExCW=0 ScaHFX=  1.000000
 ScaDFX=  1.000000  1.000000  1.000000  1.000000 ScalE2=  1.000000  1.000000
 IRadAn=      5 IRanWt=     -1 IRanGd=            0 ICorTp=0 IEmpDi=  4
 NAtoms=    6 NActive=    6 NUniq=    6 SFac= 1.00D+00 NAtFMM=   60 NAOKFM=F Big=F
 Integral buffers will be    131072 words long.
 Raffenetti 1 integral format.
 Two-electron integral symmetry is turned on.
 Leave Link  301 at Sun Dec 10 06:48:24 2023, MaxMem=   536870912 cpu:               0.2 elap:               0.1
 (Enter /usr/site/hpc/x86_64/glibc-2.17/broadwell/gaussian/g16_a.03/pgi-16.5/g16/l302.exe)
 NPDir=0 NMtPBC=     1 NCelOv=     1 NCel=       1 NClECP=     1 NCelD=      1
         NCelK=      1 NCelE2=     1 NClLst=     1 CellRange=     0.0.
 One-electron integrals computed using PRISM.
 One-electron integral symmetry used in STVInt
   2 Symmetry operations used in ECPInt.
 ECPInt:  NShTT=      78 NPrTT=     318 LenC2=      79 LenP2D=     286.
 LDataN:  DoStor=T MaxTD1= 2 Len=   12
 NBasis=    24 RedAO= T EigKep=  3.64D-02  NBF=    20     4
 NBsUse=    24 1.00D-06 EigRej= -1.00D+00 NBFU=    20     4
 Leave Link  302 at Sun Dec 10 06:48:24 2023, MaxMem=   536870912 cpu:               0.3 elap:               0.1
 (Enter /usr/site/hpc/x86_64/glibc-2.17/broadwell/gaussian/g16_a.03/pgi-16.5/g16/l303.exe)
 DipDrv:  MaxL=1.
 Leave Link  303 at Sun Dec 10 06:48:25 2023, MaxMem=   536870912 cpu:               0.1 elap:               0.0
 (Enter /usr/site/hpc/x86_64/glibc-2.17/broadwell/gaussian/g16_a.03/pgi-16.5/g16/l401.exe)
 ExpMin= 1.78D-01 ExpMax= 1.92D+01 ExpMxC= 1.92D+01 IAcc=3 IRadAn=         5 AccDes= 0.00D+00
 Harris functional with IExCor=  205 and IRadAn=       5 diagonalized for initial guess.
 HarFok:  IExCor=  205 AccDes= 0.00D+00 IRadAn=         5 IDoV= 1 UseB2=F ITyADJ=14
 ICtDFT=  3500011 ScaDFX=  1.000000  1.000000  1.000000  1.000000
 FoFCou: FMM=F IPFlag=           0 FMFlag=      100000 FMFlg1=           0
         NFxFlg=           0 DoJE=T BraDBF=F KetDBF=T FulRan=T
         wScrn=  0.000000 ICntrl=       500 IOpCl=  0 I1Cent=   200000004 NGrid=           0
         NMat0=    1 NMatS0=      1 NMatT0=    0 NMatD0=    1 NMtDS0=    0 NMtDT0=    0
 Petite list used in FoFCou.
 Harris En= -34.4783745198855    
 JPrj=0 DoOrth=F DoCkMO=F.
 Initial guess orbital symmetries:
       Occupied  (A') (A') (A') (A') (A') (A') (A") (A")
       Virtual   (A') (A') (A') (A') (A') (A") (A") (A') (A') (A')
                 (A') (A') (A') (A') (A') (A')
 The electronic state of the initial guess is 1-A'.
 Leave Link  401 at Sun Dec 10 06:48:25 2023, MaxMem=   536870912 cpu:               0.4 elap:               0.1
 (Enter /usr/site/hpc/x86_64/glibc-2.17/broadwell/gaussian/g16_a.03/pgi-16.5/g16/l502.exe)
 Keep R1 ints in memory in symmetry-blocked form, NReq=852525.
 FoFCou: FMM=F IPFlag=           0 FMFlag=           0 FMFlg1=           0
         NFxFlg=           0 DoJE=F BraDBF=F KetDBF=F FulRan=T
         wScrn=  0.000000 ICntrl=       600 IOpCl=  0 I1Cent=           0 NGrid=           0
         NMat0=    1 NMatS0=    300 NMatT0=    0 NMatD0=    1 NMtDS0=    0 NMtDT0=    0
 Petite list used in FoFCou.
 Closed shell SCF:
 Using DIIS extrapolation, IDIIS=  1040.
 NGot=   536870912 LenX=   536840576 LenY=   536839559
 Requested convergence on RMS density matrix=1.00D-08 within 128 cycles.
 Requested convergence on MAX density matrix=1.00D-06.
 Requested convergence on             energy=1.00D-06.
 No special actions if energy rises.

 Cycle   1  Pass 1  IDiag  1:
 E= -33.5507155085401    
 DIIS: error= 6.87D-02 at cycle   1 NSaved=   1.
 NSaved= 1 IEnMin= 1 EnMin= -33.5507155085401     IErMin= 1 ErrMin= 6.87D-02
 ErrMax= 6.87D-02  0.00D+00 EMaxC= 1.00D-01 BMatC= 1.03D-01 BMatP= 1.03D-01
 IDIUse=3 WtCom= 3.13D-01 WtEn= 6.87D-01
 Coeff-Com:  0.100D+01
 Coeff-En:   0.100D+01
 Coeff:      0.100D+01
 Gap=     0.581 Goal=   None    Shift=    0.000
 GapD=    0.581 DampG=2.000 DampE=0.500 DampFc=1.0000 IDamp=-1.
 RMSDP=1.54D-02 MaxDP=1.18D-01              OVMax= 1.05D-01

 Cycle   2  Pass 1  IDiag  1:
 E= -33.6152585093865     Delta-E=       -0.064543000846 Rises=F Damp=F
 DIIS: error= 3.76D-02 at cycle   2 NSaved=   2.
 NSaved= 2 IEnMin= 2 EnMin= -33.6152585093865     IErMin= 2 ErrMin= 3.76D-02
 ErrMax= 3.76D-02  0.00D+00 EMaxC= 1.00D-01 BMatC= 3.89D-02 BMatP= 1.03D-01
 IDIUse=3 WtCom= 6.24D-01 WtEn= 3.76D-01
 Coeff-Com:  0.377D+00 0.623D+00
 Coeff-En:   0.993D-01 0.901D+00
 Coeff:      0.273D+00 0.727D+00
 Gap=     0.678 Goal=   None    Shift=    0.000
 RMSDP=6.55D-03 MaxDP=5.57D-02 DE=-6.45D-02 OVMax= 3.42D-02

 Cycle   3  Pass 1  IDiag  1:
 E= -33.6460862801027     Delta-E=       -0.030827770716 Rises=F Damp=F
 DIIS: error= 7.46D-03 at cycle   3 NSaved=   3.
 NSaved= 3 IEnMin= 3 EnMin= -33.6460862801027     IErMin= 3 ErrMin= 7.46D-03
 ErrMax= 7.46D-03  0.00D+00 EMaxC= 1.00D-01 BMatC= 1.02D-03 BMatP= 3.89D-02
 IDIUse=3 WtCom= 9.25D-01 WtEn= 7.46D-02
 Coeff-Com: -0.111D+00-0.317D-02 0.111D+01
 Coeff-En:   0.000D+00 0.000D+00 0.100D+01
 Coeff:     -0.102D+00-0.293D-02 0.111D+01
 Gap=     0.670 Goal=   None    Shift=    0.000
 RMSDP=1.20D-03 MaxDP=9.70D-03 DE=-3.08D-02 OVMax= 8.66D-03

 Cycle   4  Pass 1  IDiag  1:
 E= -33.6470979471890     Delta-E=       -0.001011667086 Rises=F Damp=F
 DIIS: error= 8.11D-04 at cycle   4 NSaved=   4.
 NSaved= 4 IEnMin= 4 EnMin= -33.6470979471890     IErMin= 4 ErrMin= 8.11D-04
 ErrMax= 8.11D-04  0.00D+00 EMaxC= 1.00D-01 BMatC= 6.99D-06 BMatP= 1.02D-03
 IDIUse=3 WtCom= 9.92D-01 WtEn= 8.11D-03
 Coeff-Com:  0.398D-01-0.227D-01-0.480D+00 0.146D+01
 Coeff-En:   0.000D+00 0.000D+00 0.000D+00 0.100D+01
 Coeff:      0.395D-01-0.226D-01-0.476D+00 0.146D+01
 Gap=     0.672 Goal=   None    Shift=    0.000
 RMSDP=2.45D-04 MaxDP=2.21D-03 DE=-1.01D-03 OVMax= 1.14D-03

 Cycle   5  Pass 1  IDiag  1:
 E= -33.6471126041861     Delta-E=       -0.000014656997 Rises=F Damp=F
 DIIS: error= 6.81D-05 at cycle   5 NSaved=   5.
 NSaved= 5 IEnMin= 5 EnMin= -33.6471126041861     IErMin= 5 ErrMin= 6.81D-05
 ErrMax= 6.81D-05  0.00D+00 EMaxC= 1.00D-01 BMatC= 1.03D-07 BMatP= 6.99D-06
 IDIUse=1 WtCom= 1.00D+00 WtEn= 0.00D+00
 Coeff-Com:  0.201D-02-0.522D-03-0.234D-01-0.313D-03 0.102D+01
 Coeff:      0.201D-02-0.522D-03-0.234D-01-0.313D-03 0.102D+01
 Gap=     0.672 Goal=   None    Shift=    0.000
 RMSDP=2.11D-05 MaxDP=2.42D-04 DE=-1.47D-05 OVMax= 1.66D-04

 Cycle   6  Pass 1  IDiag  1:
 E= -33.6471127796354     Delta-E=       -0.000000175449 Rises=F Damp=F
 DIIS: error= 2.15D-05 at cycle   6 NSaved=   6.
 NSaved= 6 IEnMin= 6 EnMin= -33.6471127796354     IErMin= 6 ErrMin= 2.15D-05
 ErrMax= 2.15D-05  0.00D+00 EMaxC= 1.00D-01 BMatC= 1.96D-08 BMatP= 1.03D-07
 IDIUse=1 WtCom= 1.00D+00 WtEn= 0.00D+00
 Coeff-Com: -0.360D-02 0.212D-02 0.432D-01-0.147D+00 0.258D+00 0.848D+00
 Coeff:     -0.360D-02 0.212D-02 0.432D-01-0.147D+00 0.258D+00 0.848D+00
 Gap=     0.672 Goal=   None    Shift=    0.000
 RMSDP=6.42D-06 MaxDP=7.08D-05 DE=-1.75D-07 OVMax= 5.28D-05

 Cycle   7  Pass 1  IDiag  1:
 E= -33.6471128052620     Delta-E=       -0.000000025627 Rises=F Damp=F
 DIIS: error= 6.21D-06 at cycle   7 NSaved=   7.
 NSaved= 7 IEnMin= 7 EnMin= -33.6471128052620     IErMin= 7 ErrMin= 6.21D-06
 ErrMax= 6.21D-06  0.00D+00 EMaxC= 1.00D-01 BMatC= 8.49D-10 BMatP= 1.96D-08
 IDIUse=1 WtCom= 1.00D+00 WtEn= 0.00D+00
 Coeff-Com:  0.900D-03-0.460D-03-0.103D-01 0.399D-01-0.140D+00-0.231D+00
 Coeff-Com:  0.134D+01
 Coeff:      0.900D-03-0.460D-03-0.103D-01 0.399D-01-0.140D+00-0.231D+00
 Coeff:      0.134D+01
 Gap=     0.672 Goal=   None    Shift=    0.000
 RMSDP=2.52D-06 MaxDP=2.14D-05 DE=-2.56D-08 OVMax= 2.38D-05

 Cycle   8  Pass 1  IDiag  1:
 E= -33.6471128075834     Delta-E=       -0.000000002321 Rises=F Damp=F
 DIIS: error= 1.20D-06 at cycle   8 NSaved=   8.
 NSaved= 8 IEnMin= 8 EnMin= -33.6471128075834     IErMin= 8 ErrMin= 1.20D-06
 ErrMax= 1.20D-06  0.00D+00 EMaxC= 1.00D-01 BMatC= 3.29D-11 BMatP= 8.49D-10
 IDIUse=1 WtCom= 1.00D+00 WtEn= 0.00D+00
 Coeff-Com:  0.126D-04-0.463D-04-0.325D-03-0.742D-04 0.191D-01 0.649D-02
 Coeff-Com: -0.308D+00 0.128D+01
 Coeff:      0.126D-04-0.463D-04-0.325D-03-0.742D-04 0.191D-01 0.649D-02
 Coeff:     -0.308D+00 0.128D+01
 Gap=     0.672 Goal=   None    Shift=    0.000
 RMSDP=6.59D-07 MaxDP=4.01D-06 DE=-2.32D-09 OVMax= 5.00D-06

 Cycle   9  Pass 1  IDiag  1:
 E= -33.6471128076787     Delta-E=       -0.000000000095 Rises=F Damp=F
 DIIS: error= 2.32D-07 at cycle   9 NSaved=   9.
 NSaved= 9 IEnMin= 9 EnMin= -33.6471128076787     IErMin= 9 ErrMin= 2.32D-07
 ErrMax= 2.32D-07  0.00D+00 EMaxC= 1.00D-01 BMatC= 1.09D-12 BMatP= 3.29D-11
 IDIUse=1 WtCom= 1.00D+00 WtEn= 0.00D+00
 Coeff-Com:  0.100D-05 0.129D-04 0.581D-04 0.130D-03-0.645D-02-0.186D-02
 Coeff-Com:  0.105D+00-0.532D+00 0.143D+01
 Coeff:      0.100D-05 0.129D-04 0.581D-04 0.130D-03-0.645D-02-0.186D-02
 Coeff:      0.105D+00-0.532D+00 0.143D+01
 Gap=     0.672 Goal=   None    Shift=    0.000
 RMSDP=1.66D-07 MaxDP=7.27D-07 DE=-9.53D-11 OVMax= 1.11D-06

 Cycle  10  Pass 1  IDiag  1:
 E= -33.6471128076820     Delta-E=       -0.000000000003 Rises=F Damp=F
 DIIS: error= 1.33D-08 at cycle  10 NSaved=  10.
 NSaved=10 IEnMin=10 EnMin= -33.6471128076820     IErMin=10 ErrMin= 1.33D-08
 ErrMax= 1.33D-08  0.00D+00 EMaxC= 1.00D-01 BMatC= 7.43D-15 BMatP= 1.09D-12
 IDIUse=1 WtCom= 1.00D+00 WtEn= 0.00D+00
 Coeff-Com:  0.454D-06-0.264D-05-0.181D-04 0.105D-04 0.107D-02 0.132D-03
 Coeff-Com: -0.188D-01 0.100D+00-0.337D+00 0.125D+01
 Coeff:      0.454D-06-0.264D-05-0.181D-04 0.105D-04 0.107D-02 0.132D-03
 Coeff:     -0.188D-01 0.100D+00-0.337D+00 0.125D+01
 Gap=     0.672 Goal=   None    Shift=    0.000
 RMSDP=1.60D-08 MaxDP=8.14D-08 DE=-3.30D-12 OVMax= 9.67D-08

 Cycle  11  Pass 1  IDiag  1:
 E= -33.6471128076820     Delta-E=       -0.000000000000 Rises=F Damp=F
 DIIS: error= 1.03D-09 at cycle  11 NSaved=  11.
 NSaved=11 IEnMin=11 EnMin= -33.6471128076820     IErMin=11 ErrMin= 1.03D-09
 ErrMax= 1.03D-09  0.00D+00 EMaxC= 1.00D-01 BMatC= 4.95D-17 BMatP= 7.43D-15
 IDIUse=1 WtCom= 1.00D+00 WtEn= 0.00D+00
 Coeff-Com: -0.134D-06 0.624D-06 0.453D-05-0.356D-05-0.257D-03-0.218D-04
 Coeff-Com:  0.450D-02-0.244D-01 0.836D-01-0.348D+00 0.128D+01
 Coeff:     -0.134D-06 0.624D-06 0.453D-05-0.356D-05-0.257D-03-0.218D-04
 Coeff:      0.450D-02-0.244D-01 0.836D-01-0.348D+00 0.128D+01
 Gap=     0.672 Goal=   None    Shift=    0.000
 RMSDP=9.42D-10 MaxDP=4.81D-09 DE=-2.84D-14 OVMax= 5.53D-09

 SCF Done:  E(RHF) =  -33.6471128077     A.U. after   11 cycles
            NFock= 11  Conv=0.94D-09     -V/T= 2.2570
 KE= 2.676783485649D+01 PE=-1.306721621251D+02 EE= 4.585643559267D+01
 Leave Link  502 at Sun Dec 10 06:48:25 2023, MaxMem=   536870912 cpu:               0.3 elap:               0.1
 (Enter /usr/site/hpc/x86_64/glibc-2.17/broadwell/gaussian/g16_a.03/pgi-16.5/g16/l801.exe)
 Windowed orbitals will be sorted by symmetry type.
 Range of M.O.s used for correlation:     1    24
 NBasis=    24 NAE=     8 NBE=     8 NFC=     0 NFV=     0
 NROrb=     24 NOA=     8 NOB=     8 NVA=    16 NVB=    16
 Leave Link  801 at Sun Dec 10 06:48:25 2023, MaxMem=   536870912 cpu:               0.1 elap:               0.0
 (Enter /usr/site/hpc/x86_64/glibc-2.17/broadwell/gaussian/g16_a.03/pgi-16.5/g16/l804.exe)
 Closed-shell transformation, MDV=   536870912 ITran=4 ISComp=2.
 Unit  1 TFree=       1025975 TCopy=        210600.
 Semi-Direct transformation.
 ModeAB=           2 MOrb=             8 LenV=     536741773
 LASXX=        22470 LTotXX=       22470 LenRXX=       22470
 LTotAB=       26208 MaxLAS=       57600 LenRXY=       57600
 NonZer=       62208 LenScr=      524288 LnRSAI=           0
 LnScr1=           0 LExtra=           0 Total=       604358
 MaxDsk=          -1 SrtSym=           F ITran=            4
 DoSDTr:  NPSUse=  4
 JobTyp=0 Pass  1:  I=   1 to   8.
 (rs|ai) integrals will be sorted in core.
 Complete sort for first half transformation.
 First half transformation complete.
 Complete sort for second half transformation.
 Second half transformation complete.
 Spin components of T(2) and E(2):
     alpha-alpha T2 =       0.9106819162D-02 E2=     -0.2603639108D-01
     alpha-beta  T2 =       0.6016036892D-01 E2=     -0.1773090755D+00
     beta-beta   T2 =       0.9106819162D-02 E2=     -0.2603639108D-01
 ANorm=    0.1038447884D+01
 E2 =    -0.2293818577D+00 EUMP2 =    -0.33876494665368D+02
 Leave Link  804 at Sun Dec 10 06:48:25 2023, MaxMem=   536870912 cpu:               0.2 elap:               0.1
 (Enter /usr/site/hpc/x86_64/glibc-2.17/broadwell/gaussian/g16_a.03/pgi-16.5/g16/l913.exe)
 CIDS:  MDV=   536870912.
 IFCWin=0 IBDFC=1 NFBD=     0     0 NFCmp=     0     0 NFFFC=     0     0
 Using DD3R+UMP44R for 1st iteration.
 Using DD4RQ for 2nd and later iterations.
 Keep R2 and R3 ints in memory in symmetry-blocked form, NReq=865133.
 FoFCou: FMM=F IPFlag=           0 FMFlag=           0 FMFlg1=           0
         NFxFlg=           0 DoJE=F BraDBF=F KetDBF=F FulRan=T
         wScrn=  0.000000 ICntrl=       600 IOpCl=  0 I1Cent=           0 NGrid=           0
         NMat0=    1 NMatS0=    300 NMatT0=    0 NMatD0=    1 NMtDS0=    0 NMtDT0=    0
 Petite list used in FoFCou.
 CIDS: In Core Option IDoMem=           1.
 CCSD(T)
 =======
 Iterations=  50 Convergence= 0.100D-06
 Produce multiple copies of IABC intergrals
 Iteration Nr.   1
 **********************
 DD1Dir will call FoFMem   1 times, MxPair=        72
 NAB=    36 NAA=     0 NBB=     0.
 MP4(R+Q)= -0.67995462D-03
 Maximum subspace dimension=  5
 A-vector RMS=  5.9313044D-03 Max=  1.2323378D-02 conv= 1.00D-05.
 RLE energy=       -0.2354564581
 E3=       -0.55133177D-02        EUMP3=      -0.33882007983D+02
 E4(DQ)=   -0.59035913D-02        UMP4(DQ)=   -0.33887911574D+02
 E4(SDQ)=  -0.80162058D-02        UMP4(SDQ)=  -0.33890024189D+02
 VARIATIONAL ENERGIES WITH THE FIRST-ORDER WAVEFUNCTION:
 DE(Corr)= -0.23530008     E(Corr)=     -33.882412885    
 NORM(A)=   0.10419576D+01
 Iteration Nr.   2
 **********************
 DD1Dir will call FoFMem   1 times, MxPair=        72
 NAB=    36 NAA=     0 NBB=     0.
 A-vector RMS=  9.8751906D-04 Max=  2.6290922D-03 conv= 1.00D-05.
 RLE energy=       -0.2433556511
 DE(Corr)= -0.24140094     E(CORR)=     -33.888513751     Delta=-6.10D-03
 NORM(A)=   0.10458518D+01
 Iteration Nr.   3
 **********************
 DD1Dir will call FoFMem   1 times, MxPair=        72
 NAB=    36 NAA=     0 NBB=     0.
 A-vector RMS=  4.1864803D-04 Max=  1.4654422D-03 conv= 1.00D-05.
 RLE energy=       -0.2439134716
 DE(Corr)= -0.24345102     E(CORR)=     -33.890563828     Delta=-2.05D-03
 NORM(A)=   0.10464403D+01
 Iteration Nr.   4
 **********************
 DD1Dir will call FoFMem   1 times, MxPair=        72
 NAB=    36 NAA=     0 NBB=     0.
 A-vector RMS=  1.0283805D-04 Max=  3.2588672D-04 conv= 1.00D-05.
 RLE energy=       -0.2439644376
 DE(Corr)= -0.24392670     E(CORR)=     -33.891039510     Delta=-4.76D-04
 NORM(A)=   0.10465218D+01
 Iteration Nr.   5
 **********************
 DD1Dir will call FoFMem   1 times, MxPair=        72
 NAB=    36 NAA=     0 NBB=     0.
 A-vector RMS=  4.5257889D-05 Max=  1.8046171D-04 conv= 1.00D-05.
 RLE energy=       -0.2439634321
 DE(Corr)= -0.24396046     E(CORR)=     -33.891073270     Delta=-3.38D-05
 NORM(A)=   0.10465341D+01
 Iteration Nr.   6
 **********************
 DD1Dir will call FoFMem   1 times, MxPair=        72
 NAB=    36 NAA=     0 NBB=     0.
 A-vector RMS=  1.5512436D-05 Max=  6.5233686D-05 conv= 1.00D-05.
 RLE energy=       -0.2439603851
 DE(Corr)= -0.24396315     E(CORR)=     -33.891075962     Delta=-2.69D-06
 NORM(A)=   0.10465372D+01
 Iteration Nr.   7
 **********************
 DD1Dir will call FoFMem   1 times, MxPair=        72
 NAB=    36 NAA=     0 NBB=     0.
 A-vector RMS=  5.0823627D-06 Max=  1.9142633D-05 conv= 1.00D-05.
 RLE energy=       -0.2439620945
 DE(Corr)= -0.24396256     E(CORR)=     -33.891075372     Delta= 5.90D-07
 NORM(A)=   0.10465390D+01
 Iteration Nr.   8
 **********************
 DD1Dir will call FoFMem   1 times, MxPair=        72
 NAB=    36 NAA=     0 NBB=     0.
 A-vector RMS=  1.7075604D-06 Max=  6.0587364D-06 conv= 1.00D-05.
 RLE energy=       -0.2439620513
 DE(Corr)= -0.24396221     E(CORR)=     -33.891075018     Delta= 3.54D-07
 NORM(A)=   0.10465396D+01
 Iteration Nr.   9
 **********************
 DD1Dir will call FoFMem   1 times, MxPair=        72
 NAB=    36 NAA=     0 NBB=     0.
 A-vector RMS=  4.3617326D-07 Max=  1.6530532D-06 conv= 1.00D-05.
 RLE energy=       -0.2439623197
 DE(Corr)= -0.24396235     E(CORR)=     -33.891075154     Delta=-1.37D-07
 NORM(A)=   0.10465399D+01
 Iteration Nr.  10
 **********************
 DD1Dir will call FoFMem   1 times, MxPair=        72
 NAB=    36 NAA=     0 NBB=     0.
 A-vector RMS=  1.2921248D-07 Max=  4.1900792D-07 conv= 1.00D-05.
 RLE energy=       -0.2439624474
 DE(Corr)= -0.24396242     E(CORR)=     -33.891075227     Delta=-7.30D-08
 NORM(A)=   0.10465400D+01
 CI/CC converged in   10 iterations to DelEn=-7.30D-08 Conv= 1.00D-07 ErrA1= 1.29D-07 Conv= 1.00D-05
 Wavefunction amplitudes converged. E(Corr)=     -33.891075227    
 Largest amplitude= 4.30D-02
 IPart=  4 IA=    2   12.50% done.
 IPart=  2 IA=    3   24.17% done.
 IPart=  3 IA=    4   35.00% done.
 IPart=  3 IA=    5   45.00% done.
 IPart=  2 IA=    6   54.17% done.
 IPart=  4 IA=    7   62.50% done.
 IPart=  1 IA=    8   70.00% done.
 IPart=  2 IA=   10   82.50% done.
 IPart=  1 IA=   12   91.67% done.
 Time for triples=        0.25 seconds.
 T4(CCSD)= -0.31901732D-02
 T5(CCSD)=  0.54632099D-03
 CCSD(T)= -0.33893719080D+02
 Discarding MO integrals.
 Leave Link  913 at Sun Dec 10 06:48:25 2023, MaxMem=   536870912 cpu:               1.0 elap:               0.3
 (Enter /usr/site/hpc/x86_64/glibc-2.17/broadwell/gaussian/g16_a.03/pgi-16.5/g16/l601.exe)
 Copying SCF densities to generalized density rwf, IOpCl= 0 IROHF=0.

 **********************************************************************

            Population analysis using the SCF density.

 **********************************************************************

 Orbital symmetries:
       Occupied  (A') (A') (A') (A') (A') (A') (A") (A")
       Virtual   (A') (A') (A') (A') (A') (A") (A') (A") (A') (A')
                 (A') (A') (A') (A') (A') (A')
 The electronic state is 1-A'.
 Alpha  occ. eigenvalues --   -1.34816  -1.32760  -0.70456  -0.68352  -0.54587
 Alpha  occ. eigenvalues --   -0.51972  -0.49362  -0.47269
 Alpha virt. eigenvalues --    0.19923   0.24124   0.30994   0.32915   0.77694
 Alpha virt. eigenvalues --    0.78808   0.85294   0.85926   0.90753   1.14322
 Alpha virt. eigenvalues --    1.17878   1.21817   1.22579   1.26848   2.59918
 Alpha virt. eigenvalues --    2.62675
          Condensed to atoms (all electrons):
               1          2          3          4          5          6
     1  O    6.217327   0.253820   0.268056  -0.007809   0.000107   0.001270
     2  H    0.253820   0.413651  -0.023617   0.000282  -0.000003  -0.000145
     3  H    0.268056  -0.023617   0.379015   0.000320  -0.000004  -0.000032
     4  O   -0.007809   0.000282   0.000320   6.210484   0.248310   0.265880
     5  H    0.000107  -0.000003  -0.000004   0.248310   0.430461  -0.024335
     6  H    0.001270  -0.000145  -0.000032   0.265880  -0.024335   0.384859
 Mulliken charges:
               1
     1  O   -0.732771
     2  H    0.356011
     3  H    0.376260
     4  O   -0.717467
     5  H    0.345464
     6  H    0.372503
 Sum of Mulliken charges =   0.00000
 Mulliken charges with hydrogens summed into heavy atoms:
               1
     1  O   -0.000499
     4  O    0.000499
 Electronic spatial extent (au):  <R**2>=            172.2069
 Charge=              0.0000 electrons
 Dipole moment (field-independent basis, Debye):
    X=             -2.1948    Y=             -1.4255    Z=              0.0000  Tot=              2.6171
 Quadrupole moment (field-independent basis, Debye-Ang):
   XX=             -9.6436   YY=              0.5049   ZZ=            -14.9900
   XY=             -2.8294   XZ=              0.0000   YZ=              0.0000
 Traceless Quadrupole moment (field-independent basis, Debye-Ang):
   XX=             -1.6007   YY=              8.5478   ZZ=             -6.9471
   XY=             -2.8294   XZ=              0.0000   YZ=              0.0000
 Octapole moment (field-independent basis, Debye-Ang**2):
  XXX=             -1.6400  YYY=             -2.1949  ZZZ=              0.0000  XYY=             -2.3569
  XXY=             -4.2685  XXZ=              0.0000  XZZ=             -0.4013  YZZ=             -0.2845
  YYZ=              0.0000  XYZ=              0.0000
 Hexadecapole moment (field-independent basis, Debye-Ang**3):
 XXXX=            -12.2322 YYYY=            -98.5385 ZZZZ=            -12.2254 XXXY=             -0.8769
 XXXZ=              0.0000 YYYX=             -3.6004 YYYZ=              0.0000 ZZZX=              0.0000
 ZZZY=              0.0000 XXYY=            -24.2711 XXZZ=             -4.5637 YYZZ=            -38.5163
 XXYZ=              0.0000 YYXZ=              0.0000 ZZXY=              0.3759
 N-N= 2.440077886822D+01 E-N=-1.306721621288D+02  KE= 2.676783485649D+01
 Symmetry A'   KE= 1.788620469753D+01
 Symmetry A"   KE= 8.881630158957D+00
 Leave Link  601 at Sun Dec 10 06:48:25 2023, MaxMem=   536870912 cpu:               0.1 elap:               0.0
 (Enter /usr/site/hpc/x86_64/glibc-2.17/broadwell/gaussian/g16_a.03/pgi-16.5/g16/l9999.exe)
 1\1\GINC-N033\SP\RCCSD(T)-FC\CEP-31G\H4O2\ROOT\10-Dec-2023\0\\#p CCSD(
 T)/CEP-31G\\H2O_H2O_1266\\0,1\O,0,0.,-0.009833,0.\H,0,-0.799571,-0.580
 965,0.\H,0,0.799571,-0.580965,0.\O,0,-0.008516,2.922039,0.\H,0,-0.1033
 45,3.900054,0.\H,0,-0.902916,2.515156,0.\\Version=ES64L-G16RevA.03\Sta
 te=1-A'\HF=-33.6471128\MP2=-33.8764947\MP3=-33.882008\MP4D=-33.8872316
 \MP4DQ=-33.8879116\MP4SDQ=-33.8900242\CCSD=-33.8910752\CCSD(T)=-33.893
 7191\RMSD=9.421e-10\PG=CS [SG(H4O2)]\\@


      SCIENCE SANS CONSCIENCE N'EST QUE RUINE DE L'AME.

                                                  -- RABELAIS
 Job cpu time:       0 days  0 hours  0 minutes  3.4 seconds.
 Elapsed time:       0 days  0 hours  0 minutes  1.0 seconds.
 File lengths (MBytes):  RWF=     72 Int=      0 D2E=      0 Chk=      8 Scr=      8
 Normal termination of Gaussian 16 at Sun Dec 10 06:48:25 2023.
