 Entering Gaussian System, Link 0=g16
 Input=H2O_H2O_1939.com
 Output=H2O_H2O_1939.log
 Initial command:
 /usr/site/hpc/x86_64/glibc-2.17/broadwell/gaussian/g16_a.03/pgi-16.5/g16/l1.exe "/gpfs/gpfs1/scratch/c7441090/OO Coord/Gau-1332669.inp" -scrdir="/gpfs/gpfs1/scratch/c7441090/OO Coord/"
 Entering Link 1 = /usr/site/hpc/x86_64/glibc-2.17/broadwell/gaussian/g16_a.03/pgi-16.5/g16/l1.exe PID=   1332670.
  
 Copyright (c) 1988,1990,1992,1993,1995,1998,2003,2009,2016,
            Gaussian, Inc.  All Rights Reserved.
  
 This is part of the Gaussian(R) 16 program.  It is based on
 the Gaussian(R) 09 system (copyright 2009, Gaussian, Inc.),
 the Gaussian(R) 03 system (copyright 2003, Gaussian, Inc.),
 the Gaussian(R) 98 system (copyright 1998, Gaussian, Inc.),
 the Gaussian(R) 94 system (copyright 1995, Gaussian, Inc.),
 the Gaussian 92(TM) system (copyright 1992, Gaussian, Inc.),
 the Gaussian 90(TM) system (copyright 1990, Gaussian, Inc.),
 the Gaussian 88(TM) system (copyright 1988, Gaussian, Inc.),
 the Gaussian 86(TM) system (copyright 1986, Carnegie Mellon
 University), and the Gaussian 82(TM) system (copyright 1983,
 Carnegie Mellon University). Gaussian is a federally registered
 trademark of Gaussian, Inc.
  
 This software contains proprietary and confidential information,
 including trade secrets, belonging to Gaussian, Inc.
  
 This software is provided under written license and may be
 used, copied, transmitted, or stored only in accord with that
 written license.
  
 The following legend is applicable only to US Government
 contracts under FAR:
  
                    RESTRICTED RIGHTS LEGEND
  
 Use, reproduction and disclosure by the US Government is
 subject to restrictions as set forth in subparagraphs (a)
 and (c) of the Commercial Computer Software - Restricted
 Rights clause in FAR 52.227-19.
  
 Gaussian, Inc.
 340 Quinnipiac St., Bldg. 40, Wallingford CT 06492
  
  
 ---------------------------------------------------------------
 Warning -- This program may not be used in any manner that
 competes with the business of Gaussian, Inc. or will provide
 assistance to any competitor of Gaussian, Inc.  The licensee
 of this program is prohibited from giving any competitor of
 Gaussian, Inc. access to this program.  By using this program,
 the user acknowledges that Gaussian, Inc. is engaged in the
 business of creating and licensing software in the field of
 computational chemistry and represents and warrants to the
 licensee that it is not a competitor of Gaussian, Inc. and that
 it will not use this program in any manner prohibited above.
 ---------------------------------------------------------------
  

 Cite this work as:
 Gaussian 16, Revision A.03,
 M. J. Frisch, G. W. Trucks, H. B. Schlegel, G. E. Scuseria, 
 M. A. Robb, J. R. Cheeseman, G. Scalmani, V. Barone, 
 G. A. Petersson, H. Nakatsuji, X. Li, M. Caricato, A. V. Marenich, 
 J. Bloino, B. G. Janesko, R. Gomperts, B. Mennucci, H. P. Hratchian, 
 J. V. Ortiz, A. F. Izmaylov, J. L. Sonnenberg, D. Williams-Young, 
 F. Ding, F. Lipparini, F. Egidi, J. Goings, B. Peng, A. Petrone, 
 T. Henderson, D. Ranasinghe, V. G. Zakrzewski, J. Gao, N. Rega, 
 G. Zheng, W. Liang, M. Hada, M. Ehara, K. Toyota, R. Fukuda, 
 J. Hasegawa, M. Ishida, T. Nakajima, Y. Honda, O. Kitao, H. Nakai, 
 T. Vreven, K. Throssell, J. A. Montgomery, Jr., J. E. Peralta, 
 F. Ogliaro, M. J. Bearpark, J. J. Heyd, E. N. Brothers, K. N. Kudin, 
 V. N. Staroverov, T. A. Keith, R. Kobayashi, J. Normand, 
 K. Raghavachari, A. P. Rendell, J. C. Burant, S. S. Iyengar, 
 J. Tomasi, M. Cossi, J. M. Millam, M. Klene, C. Adamo, R. Cammi, 
 J. W. Ochterski, R. L. Martin, K. Morokuma, O. Farkas, 
 J. B. Foresman, and D. J. Fox, Gaussian, Inc., Wallingford CT, 2016.
 
 ******************************************
 Gaussian 16:  ES64L-G16RevA.03 25-Dec-2016
                10-Dec-2023 
 ******************************************
 %NProcShared=4
 Will use up to    4 processors via shared memory.
 %Mem=4GB
 %Chk=H2O_H2O_1939.chk
 ------------------
 #p CCSD(T)/CEP-31G
 ------------------
 1/38=1,172=1/1;
 2/12=2,17=6,18=5,40=1/2;
 3/5=9,6=1,11=9,25=1,30=1/1,2,3;
 4//1;
 5/5=2,38=5/2;
 8/6=4,9=120000,10=1/1,4;
 9/5=7,14=2/13;
 6/7=2,8=2,9=2,10=2/1;
 99/5=1,9=1/99;
 Leave Link    1 at Sun Dec 10 07:01:13 2023, MaxMem=   536870912 cpu:               0.3 elap:               0.1
 (Enter /usr/site/hpc/x86_64/glibc-2.17/broadwell/gaussian/g16_a.03/pgi-16.5/g16/l101.exe)
 ------------
 H2O_H2O_1939
 ------------
 Symbolic Z-matrix:
 Charge =  0 Multiplicity = 1
 O                     0.       -0.00983   0. 
 H                    -0.79957  -0.58097   0. 
 H                     0.79957  -0.58097   0. 
 O                    -0.0078    3.64109   0. 
 H                     0.02584   4.62311   0. 
 H                    -0.94766   3.35443   0. 
 
 ITRead=  0  0  0  0  0  0
 MicOpt= -1 -1 -1 -1 -1 -1
 NAtoms=      6 NQM=        6 NQMF=       0 NMMI=      0 NMMIF=      0
                NMic=       0 NMicF=      0.
                    Isotopes and Nuclear Properties:
 (Nuclear quadrupole moments (NQMom) in fm**2, nuclear magnetic moments (NMagM)
  in nuclear magnetons)

  Atom         1           2           3           4           5           6
 IAtWgt=          16           1           1          16           1           1
 AtmWgt=  15.9949146   1.0078250   1.0078250  15.9949146   1.0078250   1.0078250
 NucSpn=           0           1           1           0           1           1
 AtZEff=  -0.0000000  -0.0000000  -0.0000000  -0.0000000  -0.0000000  -0.0000000
 NQMom=    0.0000000   0.0000000   0.0000000   0.0000000   0.0000000   0.0000000
 NMagM=    0.0000000   2.7928460   2.7928460   0.0000000   2.7928460   2.7928460
 AtZNuc=   8.0000000   1.0000000   1.0000000   8.0000000   1.0000000   1.0000000
 Leave Link  101 at Sun Dec 10 07:01:13 2023, MaxMem=   536870912 cpu:               0.3 elap:               0.1
 (Enter /usr/site/hpc/x86_64/glibc-2.17/broadwell/gaussian/g16_a.03/pgi-16.5/g16/l202.exe)
                          Input orientation:                          
 ---------------------------------------------------------------------
 Center     Atomic      Atomic             Coordinates (Angstroms)
 Number     Number       Type             X           Y           Z
 ---------------------------------------------------------------------
      1          8           0        0.000000   -0.009833    0.000000
      2          1           0       -0.799571   -0.580965    0.000000
      3          1           0        0.799571   -0.580965    0.000000
      4          8           0       -0.007801    3.641088    0.000000
      5          1           0        0.025838    4.623113    0.000000
      6          1           0       -0.947659    3.354428    0.000000
 ---------------------------------------------------------------------
                    Distance matrix (angstroms):
                    1          2          3          4          5
     1  O    0.000000
     2  H    0.982601   0.000000
     3  H    0.982601   1.599142   0.000000
     4  O    3.650929   4.295653   4.298556   0.000000
     5  H    4.633018   5.269130   5.261282   0.982601   0.000000
     6  H    3.495184   3.938178   4.305825   0.982602   1.599143
                    6
     6  H    0.000000
 Stoichiometry    H4O2
 Framework group  CS[SG(H4O2)]
 Deg. of freedom     9
 Full point group                 CS      NOp   2
 Largest Abelian subgroup         CS      NOp   2
 Largest concise Abelian subgroup C1      NOp   1
                         Standard orientation:                         
 ---------------------------------------------------------------------
 Center     Atomic      Atomic             Coordinates (Angstroms)
 Number     Number       Type             X           Y           Z
 ---------------------------------------------------------------------
      1          8           0        0.045359   -1.803217    0.000000
      2          1           0       -0.755431   -2.372639    0.000000
      3          1           0        0.843707   -2.376056    0.000000
      4          8           0        0.045359    1.847713    0.000000
      5          1           0        0.081096    2.829664    0.000000
      6          1           0       -0.895110    1.563062    0.000000
 ---------------------------------------------------------------------
 Rotational constants (GHZ):         235.7933310           3.9322136           3.8677135
 Leave Link  202 at Sun Dec 10 07:01:13 2023, MaxMem=   536870912 cpu:               0.1 elap:               0.0
 (Enter /usr/site/hpc/x86_64/glibc-2.17/broadwell/gaussian/g16_a.03/pgi-16.5/g16/l301.exe)
 Standard basis: CEP-31G (6D, 10F)
 Ernie: Thresh=  0.10000D-02 Tol=  0.10000D-05 Strict=F.
 There are    20 symmetry adapted cartesian basis functions of A'  symmetry.
 There are     4 symmetry adapted cartesian basis functions of A"  symmetry.
 There are    20 symmetry adapted basis functions of A'  symmetry.
 There are     4 symmetry adapted basis functions of A"  symmetry.
    24 basis functions,    48 primitive gaussians,    24 cartesian basis functions
     8 alpha electrons        8 beta electrons
       nuclear repulsion energy        22.3346810941 Hartrees.
 IExCor=    0 DFT=F Ex=HF Corr=None ExCW=0 ScaHFX=  1.000000
 ScaDFX=  1.000000  1.000000  1.000000  1.000000 ScalE2=  1.000000  1.000000
 IRadAn=      5 IRanWt=     -1 IRanGd=            0 ICorTp=0 IEmpDi=  4
 NAtoms=    6 NActive=    6 NUniq=    6 SFac= 1.00D+00 NAtFMM=   60 NAOKFM=F Big=F
 Integral buffers will be    131072 words long.
 Raffenetti 1 integral format.
 Two-electron integral symmetry is turned on.
 Leave Link  301 at Sun Dec 10 07:01:13 2023, MaxMem=   536870912 cpu:               0.2 elap:               0.1
 (Enter /usr/site/hpc/x86_64/glibc-2.17/broadwell/gaussian/g16_a.03/pgi-16.5/g16/l302.exe)
 NPDir=0 NMtPBC=     1 NCelOv=     1 NCel=       1 NClECP=     1 NCelD=      1
         NCelK=      1 NCelE2=     1 NClLst=     1 CellRange=     0.0.
 One-electron integrals computed using PRISM.
 One-electron integral symmetry used in STVInt
   2 Symmetry operations used in ECPInt.
 ECPInt:  NShTT=      78 NPrTT=     318 LenC2=      79 LenP2D=     278.
 LDataN:  DoStor=T MaxTD1= 2 Len=   12
 NBasis=    24 RedAO= T EigKep=  3.79D-02  NBF=    20     4
 NBsUse=    24 1.00D-06 EigRej= -1.00D+00 NBFU=    20     4
 Leave Link  302 at Sun Dec 10 07:01:13 2023, MaxMem=   536870912 cpu:               0.3 elap:               0.1
 (Enter /usr/site/hpc/x86_64/glibc-2.17/broadwell/gaussian/g16_a.03/pgi-16.5/g16/l303.exe)
 DipDrv:  MaxL=1.
 Leave Link  303 at Sun Dec 10 07:01:13 2023, MaxMem=   536870912 cpu:               0.1 elap:               0.0
 (Enter /usr/site/hpc/x86_64/glibc-2.17/broadwell/gaussian/g16_a.03/pgi-16.5/g16/l401.exe)
 ExpMin= 1.78D-01 ExpMax= 1.92D+01 ExpMxC= 1.92D+01 IAcc=3 IRadAn=         5 AccDes= 0.00D+00
 Harris functional with IExCor=  205 and IRadAn=       5 diagonalized for initial guess.
 HarFok:  IExCor=  205 AccDes= 0.00D+00 IRadAn=         5 IDoV= 1 UseB2=F ITyADJ=14
 ICtDFT=  3500011 ScaDFX=  1.000000  1.000000  1.000000  1.000000
 FoFCou: FMM=F IPFlag=           0 FMFlag=      100000 FMFlg1=           0
         NFxFlg=           0 DoJE=T BraDBF=F KetDBF=T FulRan=T
         wScrn=  0.000000 ICntrl=       500 IOpCl=  0 I1Cent=   200000004 NGrid=           0
         NMat0=    1 NMatS0=      1 NMatT0=    0 NMatD0=    1 NMtDS0=    0 NMtDT0=    0
 Petite list used in FoFCou.
 Harris En= -34.4768398067141    
 JPrj=0 DoOrth=F DoCkMO=F.
 Initial guess orbital symmetries:
       Occupied  (A') (A') (A') (A') (A') (A') (A") (A")
       Virtual   (A') (A') (A') (A') (A') (A") (A") (A') (A') (A')
                 (A') (A') (A') (A') (A') (A')
 The electronic state of the initial guess is 1-A'.
 Leave Link  401 at Sun Dec 10 07:01:13 2023, MaxMem=   536870912 cpu:               0.4 elap:               0.1
 (Enter /usr/site/hpc/x86_64/glibc-2.17/broadwell/gaussian/g16_a.03/pgi-16.5/g16/l502.exe)
 Keep R1 ints in memory in symmetry-blocked form, NReq=852317.
 FoFCou: FMM=F IPFlag=           0 FMFlag=           0 FMFlg1=           0
         NFxFlg=           0 DoJE=F BraDBF=F KetDBF=F FulRan=T
         wScrn=  0.000000 ICntrl=       600 IOpCl=  0 I1Cent=           0 NGrid=           0
         NMat0=    1 NMatS0=    300 NMatT0=    0 NMatD0=    1 NMtDS0=    0 NMtDT0=    0
 Petite list used in FoFCou.
 Closed shell SCF:
 Using DIIS extrapolation, IDIIS=  1040.
 NGot=   536870912 LenX=   536840576 LenY=   536839559
 Requested convergence on RMS density matrix=1.00D-08 within 128 cycles.
 Requested convergence on MAX density matrix=1.00D-06.
 Requested convergence on             energy=1.00D-06.
 No special actions if energy rises.

 Cycle   1  Pass 1  IDiag  1:
 E= -33.5530387042271    
 DIIS: error= 6.93D-02 at cycle   1 NSaved=   1.
 NSaved= 1 IEnMin= 1 EnMin= -33.5530387042271     IErMin= 1 ErrMin= 6.93D-02
 ErrMax= 6.93D-02  0.00D+00 EMaxC= 1.00D-01 BMatC= 1.03D-01 BMatP= 1.03D-01
 IDIUse=3 WtCom= 3.07D-01 WtEn= 6.93D-01
 Coeff-Com:  0.100D+01
 Coeff-En:   0.100D+01
 Coeff:      0.100D+01
 Gap=     0.592 Goal=   None    Shift=    0.000
 GapD=    0.592 DampG=2.000 DampE=0.500 DampFc=1.0000 IDamp=-1.
 RMSDP=1.51D-02 MaxDP=1.17D-01              OVMax= 1.02D-01

 Cycle   2  Pass 1  IDiag  1:
 E= -33.6169042046190     Delta-E=       -0.063865500392 Rises=F Damp=F
 DIIS: error= 3.77D-02 at cycle   2 NSaved=   2.
 NSaved= 2 IEnMin= 2 EnMin= -33.6169042046190     IErMin= 2 ErrMin= 3.77D-02
 ErrMax= 3.77D-02  0.00D+00 EMaxC= 1.00D-01 BMatC= 3.89D-02 BMatP= 1.03D-01
 IDIUse=3 WtCom= 6.23D-01 WtEn= 3.77D-01
 Coeff-Com:  0.378D+00 0.622D+00
 Coeff-En:   0.107D+00 0.893D+00
 Coeff:      0.276D+00 0.724D+00
 Gap=     0.691 Goal=   None    Shift=    0.000
 RMSDP=6.49D-03 MaxDP=5.50D-02 DE=-6.39D-02 OVMax= 3.63D-02

 Cycle   3  Pass 1  IDiag  1:
 E= -33.6479163539408     Delta-E=       -0.031012149322 Rises=F Damp=F
 DIIS: error= 7.38D-03 at cycle   3 NSaved=   3.
 NSaved= 3 IEnMin= 3 EnMin= -33.6479163539408     IErMin= 3 ErrMin= 7.38D-03
 ErrMax= 7.38D-03  0.00D+00 EMaxC= 1.00D-01 BMatC= 9.60D-04 BMatP= 3.89D-02
 IDIUse=3 WtCom= 9.26D-01 WtEn= 7.38D-02
 Coeff-Com: -0.113D+00-0.111D-01 0.112D+01
 Coeff-En:   0.000D+00 0.000D+00 0.100D+01
 Coeff:     -0.105D+00-0.103D-01 0.112D+01
 Gap=     0.684 Goal=   None    Shift=    0.000
 RMSDP=1.15D-03 MaxDP=9.56D-03 DE=-3.10D-02 OVMax= 8.38D-03

 Cycle   4  Pass 1  IDiag  1:
 E= -33.6488783663949     Delta-E=       -0.000962012454 Rises=F Damp=F
 DIIS: error= 7.92D-04 at cycle   4 NSaved=   4.
 NSaved= 4 IEnMin= 4 EnMin= -33.6488783663949     IErMin= 4 ErrMin= 7.92D-04
 ErrMax= 7.92D-04  0.00D+00 EMaxC= 1.00D-01 BMatC= 6.52D-06 BMatP= 9.60D-04
 IDIUse=3 WtCom= 9.92D-01 WtEn= 7.92D-03
 Coeff-Com:  0.429D-01-0.197D-01-0.510D+00 0.149D+01
 Coeff-En:   0.000D+00 0.000D+00 0.000D+00 0.100D+01
 Coeff:      0.425D-01-0.196D-01-0.506D+00 0.148D+01
 Gap=     0.685 Goal=   None    Shift=    0.000
 RMSDP=2.42D-04 MaxDP=2.10D-03 DE=-9.62D-04 OVMax= 9.92D-04

 Cycle   5  Pass 1  IDiag  1:
 E= -33.6488924278010     Delta-E=       -0.000014061406 Rises=F Damp=F
 DIIS: error= 5.70D-05 at cycle   5 NSaved=   5.
 NSaved= 5 IEnMin= 5 EnMin= -33.6488924278010     IErMin= 5 ErrMin= 5.70D-05
 ErrMax= 5.70D-05  0.00D+00 EMaxC= 1.00D-01 BMatC= 4.95D-08 BMatP= 6.52D-06
 IDIUse=1 WtCom= 1.00D+00 WtEn= 0.00D+00
 Coeff-Com: -0.707D-02 0.355D-02 0.842D-01-0.300D+00 0.122D+01
 Coeff:     -0.707D-02 0.355D-02 0.842D-01-0.300D+00 0.122D+01
 Gap=     0.686 Goal=   None    Shift=    0.000
 RMSDP=1.81D-05 MaxDP=1.79D-04 DE=-1.41D-05 OVMax= 1.29D-04

 Cycle   6  Pass 1  IDiag  1:
 E= -33.6488925513499     Delta-E=       -0.000000123549 Rises=F Damp=F
 DIIS: error= 1.18D-05 at cycle   6 NSaved=   6.
 NSaved= 6 IEnMin= 6 EnMin= -33.6488925513499     IErMin= 6 ErrMin= 1.18D-05
 ErrMax= 1.18D-05  0.00D+00 EMaxC= 1.00D-01 BMatC= 3.05D-09 BMatP= 4.95D-08
 IDIUse=1 WtCom= 1.00D+00 WtEn= 0.00D+00
 Coeff-Com:  0.592D-04 0.951D-04 0.155D-05 0.823D-02-0.208D+00 0.120D+01
 Coeff:      0.592D-04 0.951D-04 0.155D-05 0.823D-02-0.208D+00 0.120D+01
 Gap=     0.686 Goal=   None    Shift=    0.000
 RMSDP=3.97D-06 MaxDP=4.54D-05 DE=-1.24D-07 OVMax= 3.77D-05

 Cycle   7  Pass 1  IDiag  1:
 E= -33.6488925583380     Delta-E=       -0.000000006988 Rises=F Damp=F
 DIIS: error= 3.80D-06 at cycle   7 NSaved=   7.
 NSaved= 7 IEnMin= 7 EnMin= -33.6488925583380     IErMin= 7 ErrMin= 3.80D-06
 ErrMax= 3.80D-06  0.00D+00 EMaxC= 1.00D-01 BMatC= 5.22D-10 BMatP= 3.05D-09
 IDIUse=1 WtCom= 1.00D+00 WtEn= 0.00D+00
 Coeff-Com:  0.792D-03-0.360D-03-0.920D-02 0.343D-01-0.176D+00 0.292D+00
 Coeff-Com:  0.858D+00
 Coeff:      0.792D-03-0.360D-03-0.920D-02 0.343D-01-0.176D+00 0.292D+00
 Coeff:      0.858D+00
 Gap=     0.686 Goal=   None    Shift=    0.000
 RMSDP=1.26D-06 MaxDP=9.12D-06 DE=-6.99D-09 OVMax= 1.27D-05

 Cycle   8  Pass 1  IDiag  1:
 E= -33.6488925591564     Delta-E=       -0.000000000818 Rises=F Damp=F
 DIIS: error= 1.22D-06 at cycle   8 NSaved=   8.
 NSaved= 8 IEnMin= 8 EnMin= -33.6488925591564     IErMin= 8 ErrMin= 1.22D-06
 ErrMax= 1.22D-06  0.00D+00 EMaxC= 1.00D-01 BMatC= 3.22D-11 BMatP= 5.22D-10
 IDIUse=1 WtCom= 1.00D+00 WtEn= 0.00D+00
 Coeff-Com:  0.285D-05-0.337D-04-0.165D-03-0.734D-03 0.312D-01-0.155D+00
 Coeff-Com: -0.714D-01 0.120D+01
 Coeff:      0.285D-05-0.337D-04-0.165D-03-0.734D-03 0.312D-01-0.155D+00
 Coeff:     -0.714D-01 0.120D+01
 Gap=     0.686 Goal=   None    Shift=    0.000
 RMSDP=6.05D-07 MaxDP=3.99D-06 DE=-8.18D-10 OVMax= 4.44D-06

 Cycle   9  Pass 1  IDiag  1:
 E= -33.6488925592359     Delta-E=       -0.000000000080 Rises=F Damp=F
 DIIS: error= 2.09D-07 at cycle   9 NSaved=   9.
 NSaved= 9 IEnMin= 9 EnMin= -33.6488925592359     IErMin= 9 ErrMin= 2.09D-07
 ErrMax= 2.09D-07  0.00D+00 EMaxC= 1.00D-01 BMatC= 8.94D-13 BMatP= 3.22D-11
 IDIUse=1 WtCom= 1.00D+00 WtEn= 0.00D+00
 Coeff-Com:  0.223D-05 0.103D-04 0.300D-04 0.325D-03-0.114D-01 0.594D-01
 Coeff-Com:  0.132D-01-0.506D+00 0.144D+01
 Coeff:      0.223D-05 0.103D-04 0.300D-04 0.325D-03-0.114D-01 0.594D-01
 Coeff:      0.132D-01-0.506D+00 0.144D+01
 Gap=     0.686 Goal=   None    Shift=    0.000
 RMSDP=1.49D-07 MaxDP=6.70D-07 DE=-7.95D-11 OVMax= 1.01D-06

 Cycle  10  Pass 1  IDiag  1:
 E= -33.6488925592386     Delta-E=       -0.000000000003 Rises=F Damp=F
 DIIS: error= 9.69D-09 at cycle  10 NSaved=  10.
 NSaved=10 IEnMin=10 EnMin= -33.6488925592386     IErMin=10 ErrMin= 9.69D-09
 ErrMax= 9.69D-09  0.00D+00 EMaxC= 1.00D-01 BMatC= 3.70D-15 BMatP= 8.94D-13
 IDIUse=1 WtCom= 1.00D+00 WtEn= 0.00D+00
 Coeff-Com:  0.333D-06-0.220D-05-0.147D-04-0.283D-04 0.203D-02-0.113D-01
 Coeff-Com: -0.204D-02 0.966D-01-0.326D+00 0.124D+01
 Coeff:      0.333D-06-0.220D-05-0.147D-04-0.283D-04 0.203D-02-0.113D-01
 Coeff:     -0.204D-02 0.966D-01-0.326D+00 0.124D+01
 Gap=     0.686 Goal=   None    Shift=    0.000
 RMSDP=1.28D-08 MaxDP=5.95D-08 DE=-2.65D-12 OVMax= 7.47D-08

 Cycle  11  Pass 1  IDiag  1:
 E= -33.6488925592386     Delta-E=       -0.000000000000 Rises=F Damp=F
 DIIS: error= 5.28D-10 at cycle  11 NSaved=  11.
 NSaved=11 IEnMin=11 EnMin= -33.6488925592386     IErMin=11 ErrMin= 5.28D-10
 ErrMax= 5.28D-10  0.00D+00 EMaxC= 1.00D-01 BMatC= 1.44D-17 BMatP= 3.70D-15
 IDIUse=1 WtCom= 1.00D+00 WtEn= 0.00D+00
 Coeff-Com: -0.958D-07 0.393D-06 0.298D-05 0.376D-05-0.362D-03 0.204D-02
 Coeff-Com:  0.337D-03-0.175D-01 0.604D-01-0.263D+00 0.122D+01
 Coeff:     -0.958D-07 0.393D-06 0.298D-05 0.376D-05-0.362D-03 0.204D-02
 Coeff:      0.337D-03-0.175D-01 0.604D-01-0.263D+00 0.122D+01
 Gap=     0.686 Goal=   None    Shift=    0.000
 RMSDP=5.74D-10 MaxDP=2.67D-09 DE=-1.42D-14 OVMax= 3.14D-09

 SCF Done:  E(RHF) =  -33.6488925592     A.U. after   11 cycles
            NFock= 11  Conv=0.57D-09     -V/T= 2.2571
 KE= 2.676616118005D+01 PE=-1.264637085773D+02 EE= 4.371397374388D+01
 Leave Link  502 at Sun Dec 10 07:01:13 2023, MaxMem=   536870912 cpu:               0.3 elap:               0.1
 (Enter /usr/site/hpc/x86_64/glibc-2.17/broadwell/gaussian/g16_a.03/pgi-16.5/g16/l801.exe)
 Windowed orbitals will be sorted by symmetry type.
 Range of M.O.s used for correlation:     1    24
 NBasis=    24 NAE=     8 NBE=     8 NFC=     0 NFV=     0
 NROrb=     24 NOA=     8 NOB=     8 NVA=    16 NVB=    16
 Leave Link  801 at Sun Dec 10 07:01:14 2023, MaxMem=   536870912 cpu:               0.1 elap:               0.0
 (Enter /usr/site/hpc/x86_64/glibc-2.17/broadwell/gaussian/g16_a.03/pgi-16.5/g16/l804.exe)
 Closed-shell transformation, MDV=   536870912 ITran=4 ISComp=2.
 Unit  1 TFree=       1025975 TCopy=        210600.
 Semi-Direct transformation.
 ModeAB=           2 MOrb=             8 LenV=     536742035
 LASXX=        22470 LTotXX=       22470 LenRXX=       22470
 LTotAB=       26208 MaxLAS=       57600 LenRXY=       57600
 NonZer=       61824 LenScr=      524288 LnRSAI=           0
 LnScr1=           0 LExtra=           0 Total=       604358
 MaxDsk=          -1 SrtSym=           F ITran=            4
 DoSDTr:  NPSUse=  4
 JobTyp=0 Pass  1:  I=   1 to   8.
 (rs|ai) integrals will be sorted in core.
 Complete sort for first half transformation.
 First half transformation complete.
 Complete sort for second half transformation.
 Second half transformation complete.
 Spin components of T(2) and E(2):
     alpha-alpha T2 =       0.9093555154D-02 E2=     -0.2593077930D-01
     alpha-beta  T2 =       0.6013712551D-01 E2=     -0.1769121898D+00
     beta-beta   T2 =       0.9093555154D-02 E2=     -0.2593077930D-01
 ANorm=    0.1038423919D+01
 E2 =    -0.2287737483D+00 EUMP2 =    -0.33877666307586D+02
 Leave Link  804 at Sun Dec 10 07:01:14 2023, MaxMem=   536870912 cpu:               0.2 elap:               0.1
 (Enter /usr/site/hpc/x86_64/glibc-2.17/broadwell/gaussian/g16_a.03/pgi-16.5/g16/l913.exe)
 CIDS:  MDV=   536870912.
 IFCWin=0 IBDFC=1 NFBD=     0     0 NFCmp=     0     0 NFFFC=     0     0
 Using DD3R+UMP44R for 1st iteration.
 Using DD4RQ for 2nd and later iterations.
 Keep R2 and R3 ints in memory in symmetry-blocked form, NReq=864925.
 FoFCou: FMM=F IPFlag=           0 FMFlag=           0 FMFlg1=           0
         NFxFlg=           0 DoJE=F BraDBF=F KetDBF=F FulRan=T
         wScrn=  0.000000 ICntrl=       600 IOpCl=  0 I1Cent=           0 NGrid=           0
         NMat0=    1 NMatS0=    300 NMatT0=    0 NMatD0=    1 NMtDS0=    0 NMtDT0=    0
 Petite list used in FoFCou.
 CIDS: In Core Option IDoMem=           1.
 CCSD(T)
 =======
 Iterations=  50 Convergence= 0.100D-06
 Produce multiple copies of IABC intergrals
 Iteration Nr.   1
 **********************
 DD1Dir will call FoFMem   1 times, MxPair=        72
 NAB=    36 NAA=     0 NBB=     0.
 MP4(R+Q)= -0.72052329D-03
 Maximum subspace dimension=  5
 A-vector RMS=  5.8188079D-03 Max=  1.1778970D-02 conv= 1.00D-05.
 RLE energy=       -0.2348547839
 E3=       -0.54799217D-02        EUMP3=      -0.33883146229D+02
 E4(DQ)=   -0.59258215D-02        UMP4(DQ)=   -0.33889072051D+02
 E4(SDQ)=  -0.79827970D-02        UMP4(SDQ)=  -0.33891129026D+02
 VARIATIONAL ENERGIES WITH THE FIRST-ORDER WAVEFUNCTION:
 DE(Corr)= -0.23469767     E(Corr)=     -33.883590232    
 NORM(A)=   0.10418957D+01
 Iteration Nr.   2
 **********************
 DD1Dir will call FoFMem   1 times, MxPair=        72
 NAB=    36 NAA=     0 NBB=     0.
 A-vector RMS=  9.8496343D-04 Max=  2.5858214D-03 conv= 1.00D-05.
 RLE energy=       -0.2426841676
 DE(Corr)= -0.24073651     E(CORR)=     -33.889629073     Delta=-6.04D-03
 NORM(A)=   0.10457307D+01
 Iteration Nr.   3
 **********************
 DD1Dir will call FoFMem   1 times, MxPair=        72
 NAB=    36 NAA=     0 NBB=     0.
 A-vector RMS=  3.9517734D-04 Max=  1.2320999D-03 conv= 1.00D-05.
 RLE energy=       -0.2432394033
 DE(Corr)= -0.24278510     E(CORR)=     -33.891677664     Delta=-2.05D-03
 NORM(A)=   0.10463032D+01
 Iteration Nr.   4
 **********************
 DD1Dir will call FoFMem   1 times, MxPair=        72
 NAB=    36 NAA=     0 NBB=     0.
 A-vector RMS=  9.7783346D-05 Max=  2.9647225D-04 conv= 1.00D-05.
 RLE energy=       -0.2432880742
 DE(Corr)= -0.24325121     E(CORR)=     -33.892143773     Delta=-4.66D-04
 NORM(A)=   0.10463807D+01
 Iteration Nr.   5
 **********************
 DD1Dir will call FoFMem   1 times, MxPair=        72
 NAB=    36 NAA=     0 NBB=     0.
 A-vector RMS=  4.3345588D-05 Max=  1.6158500D-04 conv= 1.00D-05.
 RLE energy=       -0.2432865328
 DE(Corr)= -0.24328416     E(CORR)=     -33.892176717     Delta=-3.29D-05
 NORM(A)=   0.10463921D+01
 Iteration Nr.   6
 **********************
 DD1Dir will call FoFMem   1 times, MxPair=        72
 NAB=    36 NAA=     0 NBB=     0.
 A-vector RMS=  1.3293232D-05 Max=  5.4309218D-05 conv= 1.00D-05.
 RLE energy=       -0.2432848457
 DE(Corr)= -0.24328653     E(CORR)=     -33.892179093     Delta=-2.38D-06
 NORM(A)=   0.10463955D+01
 Iteration Nr.   7
 **********************
 DD1Dir will call FoFMem   1 times, MxPair=        72
 NAB=    36 NAA=     0 NBB=     0.
 A-vector RMS=  4.2589454D-06 Max=  1.6253341D-05 conv= 1.00D-05.
 RLE energy=       -0.2432859582
 DE(Corr)= -0.24328590     E(CORR)=     -33.892178457     Delta= 6.36D-07
 NORM(A)=   0.10463969D+01
 Iteration Nr.   8
 **********************
 DD1Dir will call FoFMem   1 times, MxPair=        72
 NAB=    36 NAA=     0 NBB=     0.
 A-vector RMS=  1.3246992D-06 Max=  5.3767730D-06 conv= 1.00D-05.
 RLE energy=       -0.2432856087
 DE(Corr)= -0.24328575     E(CORR)=     -33.892178306     Delta= 1.51D-07
 NORM(A)=   0.10463972D+01
 Iteration Nr.   9
 **********************
 DD1Dir will call FoFMem   1 times, MxPair=        72
 NAB=    36 NAA=     0 NBB=     0.
 A-vector RMS=  3.0442560D-07 Max=  1.5262113D-06 conv= 1.00D-05.
 RLE energy=       -0.2432857750
 DE(Corr)= -0.24328580     E(CORR)=     -33.892178358     Delta=-5.21D-08
 NORM(A)=   0.10463974D+01
 CI/CC converged in    9 iterations to DelEn=-5.21D-08 Conv= 1.00D-07 ErrA1= 3.04D-07 Conv= 1.00D-05
 Wavefunction amplitudes converged. E(Corr)=     -33.892178358    
 Largest amplitude= 4.23D-02
 IPart=  4 IA=    2   12.50% done.
 IPart=  2 IA=    3   24.17% done.
 IPart=  3 IA=    4   35.00% done.
 IPart=  3 IA=    5   45.00% done.
 IPart=  2 IA=    6   54.17% done.
 IPart=  4 IA=    7   62.50% done.
 IPart=  1 IA=    8   70.00% done.
 IPart=  2 IA=   10   82.50% done.
 IPart=  4 IA=   12   91.67% done.
 Time for triples=        0.26 seconds.
 T4(CCSD)= -0.31239630D-02
 T5(CCSD)=  0.53396486D-03
 CCSD(T)= -0.33894768356D+02
 Discarding MO integrals.
 Leave Link  913 at Sun Dec 10 07:01:14 2023, MaxMem=   536870912 cpu:               0.9 elap:               0.2
 (Enter /usr/site/hpc/x86_64/glibc-2.17/broadwell/gaussian/g16_a.03/pgi-16.5/g16/l601.exe)
 Copying SCF densities to generalized density rwf, IOpCl= 0 IROHF=0.

 **********************************************************************

            Population analysis using the SCF density.

 **********************************************************************

 Orbital symmetries:
       Occupied  (A') (A') (A') (A') (A') (A') (A") (A")
       Virtual   (A') (A') (A') (A') (A') (A") (A") (A') (A') (A')
                 (A') (A') (A') (A') (A') (A')
 The electronic state is 1-A'.
 Alpha  occ. eigenvalues --   -1.34790  -1.33733  -0.70420  -0.69307  -0.54412
 Alpha  occ. eigenvalues --   -0.53226  -0.49323  -0.48269
 Alpha virt. eigenvalues --    0.20287   0.22398   0.31015   0.32098   0.76684
 Alpha virt. eigenvalues --    0.80554   0.82948   0.85748   0.88195   0.99600
 Alpha virt. eigenvalues --    1.17978   1.19431   1.22408   1.23774   2.57509
 Alpha virt. eigenvalues --    2.59889
          Condensed to atoms (all electrons):
               1          2          3          4          5          6
     1  O    6.208448   0.257943   0.264538   0.000155   0.000013   0.000233
     2  H    0.257943   0.405110  -0.023664   0.000010  -0.000000  -0.000013
     3  H    0.264538  -0.023664   0.388048   0.000008  -0.000000  -0.000004
     4  O    0.000155   0.000010   0.000008   6.207030   0.255252   0.264950
     5  H    0.000013  -0.000000  -0.000000   0.255252   0.413136  -0.024142
     6  H    0.000233  -0.000013  -0.000004   0.264950  -0.024142   0.387674
 Mulliken charges:
               1
     1  O   -0.731329
     2  H    0.360616
     3  H    0.371075
     4  O   -0.727405
     5  H    0.355742
     6  H    0.371301
 Sum of Mulliken charges =   0.00000
 Mulliken charges with hydrogens summed into heavy atoms:
               1
     1  O    0.000362
     4  O   -0.000362
 Electronic spatial extent (au):  <R**2>=            242.7437
 Charge=              0.0000 electrons
 Dipole moment (field-independent basis, Debye):
    X=             -2.0592    Y=             -1.0877    Z=              0.0000  Tot=              2.3288
 Quadrupole moment (field-independent basis, Debye-Ang):
   XX=             -9.3862   YY=              4.4823   ZZ=            -14.9870
   XY=             -3.1326   XZ=              0.0000   YZ=              0.0000
 Traceless Quadrupole moment (field-independent basis, Debye-Ang):
   XX=             -2.7559   YY=             11.1126   ZZ=             -8.3567
   XY=             -3.1326   XZ=              0.0000   YZ=              0.0000
 Octapole moment (field-independent basis, Debye-Ang**2):
  XXX=             -1.8452  YYY=             -3.1079  ZZZ=              0.0000  XYY=             -3.2038
  XXY=             -4.1947  XXZ=              0.0000  XZZ=             -0.3823  YZZ=             -0.2130
  YYZ=              0.0000  XYZ=              0.0000
 Hexadecapole moment (field-independent basis, Debye-Ang**3):
 XXXX=            -12.0222 YYYY=           -121.3454 ZZZZ=            -12.2186 XXXY=             -1.5048
 XXXZ=              0.0000 YYYX=             -3.6976 YYYZ=              0.0000 ZZZX=              0.0000
 ZZZY=              0.0000 XXYY=            -34.2946 XXZZ=             -4.5703 YYZZ=            -56.6806
 XXYZ=              0.0000 YYXZ=              0.0000 ZZXY=              0.4456
 N-N= 2.233468109412D+01 E-N=-1.264637085804D+02  KE= 2.676616118005D+01
 Symmetry A'   KE= 1.788041131482D+01
 Symmetry A"   KE= 8.885749865234D+00
 Leave Link  601 at Sun Dec 10 07:01:14 2023, MaxMem=   536870912 cpu:               0.1 elap:               0.0
 (Enter /usr/site/hpc/x86_64/glibc-2.17/broadwell/gaussian/g16_a.03/pgi-16.5/g16/l9999.exe)
 1\1\GINC-N033\SP\RCCSD(T)-FC\CEP-31G\H4O2\ROOT\10-Dec-2023\0\\#p CCSD(
 T)/CEP-31G\\H2O_H2O_1939\\0,1\O,0,0.,-0.009833,0.\H,0,-0.799571,-0.580
 965,0.\H,0,0.799571,-0.580965,0.\O,0,-0.007801,3.641088,0.\H,0,0.02583
 8,4.623113,0.\H,0,-0.947659,3.354428,0.\\Version=ES64L-G16RevA.03\Stat
 e=1-A'\HF=-33.6488926\MP2=-33.8776663\MP3=-33.8831462\MP4D=-33.8883515
 \MP4DQ=-33.8890721\MP4SDQ=-33.891129\CCSD=-33.8921784\CCSD(T)=-33.8947
 684\RMSD=5.743e-10\PG=CS [SG(H4O2)]\\@


 WHERE THERE IS MUCH DESIRE TO LEARN, THERE OF NECESSITY WILL BE
 MUCH ARGUING, MUCH WRITING, MANY OPINIONS; FOR OPINION IN GOOD MEN
 IS BUT KNOWLEDGE IN THE MAKING. -- JOHN MILTON.
 Job cpu time:       0 days  0 hours  0 minutes  3.4 seconds.
 Elapsed time:       0 days  0 hours  0 minutes  1.1 seconds.
 File lengths (MBytes):  RWF=     72 Int=      0 D2E=      0 Chk=      8 Scr=      8
 Normal termination of Gaussian 16 at Sun Dec 10 07:01:14 2023.
