 Entering Gaussian System, Link 0=g16
 Input=H2O_H2O_2964.com
 Output=H2O_H2O_2964.log
 Initial command:
 /usr/site/hpc/x86_64/glibc-2.17/broadwell/gaussian/g16_a.03/pgi-16.5/g16/l1.exe "/gpfs/gpfs1/scratch/c7441090/OO Coord/Gau-1746909.inp" -scrdir="/gpfs/gpfs1/scratch/c7441090/OO Coord/"
 Entering Link 1 = /usr/site/hpc/x86_64/glibc-2.17/broadwell/gaussian/g16_a.03/pgi-16.5/g16/l1.exe PID=   1746910.
  
 Copyright (c) 1988,1990,1992,1993,1995,1998,2003,2009,2016,
            Gaussian, Inc.  All Rights Reserved.
  
 This is part of the Gaussian(R) 16 program.  It is based on
 the Gaussian(R) 09 system (copyright 2009, Gaussian, Inc.),
 the Gaussian(R) 03 system (copyright 2003, Gaussian, Inc.),
 the Gaussian(R) 98 system (copyright 1998, Gaussian, Inc.),
 the Gaussian(R) 94 system (copyright 1995, Gaussian, Inc.),
 the Gaussian 92(TM) system (copyright 1992, Gaussian, Inc.),
 the Gaussian 90(TM) system (copyright 1990, Gaussian, Inc.),
 the Gaussian 88(TM) system (copyright 1988, Gaussian, Inc.),
 the Gaussian 86(TM) system (copyright 1986, Carnegie Mellon
 University), and the Gaussian 82(TM) system (copyright 1983,
 Carnegie Mellon University). Gaussian is a federally registered
 trademark of Gaussian, Inc.
  
 This software contains proprietary and confidential information,
 including trade secrets, belonging to Gaussian, Inc.
  
 This software is provided under written license and may be
 used, copied, transmitted, or stored only in accord with that
 written license.
  
 The following legend is applicable only to US Government
 contracts under FAR:
  
                    RESTRICTED RIGHTS LEGEND
  
 Use, reproduction and disclosure by the US Government is
 subject to restrictions as set forth in subparagraphs (a)
 and (c) of the Commercial Computer Software - Restricted
 Rights clause in FAR 52.227-19.
  
 Gaussian, Inc.
 340 Quinnipiac St., Bldg. 40, Wallingford CT 06492
  
  
 ---------------------------------------------------------------
 Warning -- This program may not be used in any manner that
 competes with the business of Gaussian, Inc. or will provide
 assistance to any competitor of Gaussian, Inc.  The licensee
 of this program is prohibited from giving any competitor of
 Gaussian, Inc. access to this program.  By using this program,
 the user acknowledges that Gaussian, Inc. is engaged in the
 business of creating and licensing software in the field of
 computational chemistry and represents and warrants to the
 licensee that it is not a competitor of Gaussian, Inc. and that
 it will not use this program in any manner prohibited above.
 ---------------------------------------------------------------
  

 Cite this work as:
 Gaussian 16, Revision A.03,
 M. J. Frisch, G. W. Trucks, H. B. Schlegel, G. E. Scuseria, 
 M. A. Robb, J. R. Cheeseman, G. Scalmani, V. Barone, 
 G. A. Petersson, H. Nakatsuji, X. Li, M. Caricato, A. V. Marenich, 
 J. Bloino, B. G. Janesko, R. Gomperts, B. Mennucci, H. P. Hratchian, 
 J. V. Ortiz, A. F. Izmaylov, J. L. Sonnenberg, D. Williams-Young, 
 F. Ding, F. Lipparini, F. Egidi, J. Goings, B. Peng, A. Petrone, 
 T. Henderson, D. Ranasinghe, V. G. Zakrzewski, J. Gao, N. Rega, 
 G. Zheng, W. Liang, M. Hada, M. Ehara, K. Toyota, R. Fukuda, 
 J. Hasegawa, M. Ishida, T. Nakajima, Y. Honda, O. Kitao, H. Nakai, 
 T. Vreven, K. Throssell, J. A. Montgomery, Jr., J. E. Peralta, 
 F. Ogliaro, M. J. Bearpark, J. J. Heyd, E. N. Brothers, K. N. Kudin, 
 V. N. Staroverov, T. A. Keith, R. Kobayashi, J. Normand, 
 K. Raghavachari, A. P. Rendell, J. C. Burant, S. S. Iyengar, 
 J. Tomasi, M. Cossi, J. M. Millam, M. Klene, C. Adamo, R. Cammi, 
 J. W. Ochterski, R. L. Martin, K. Morokuma, O. Farkas, 
 J. B. Foresman, and D. J. Fox, Gaussian, Inc., Wallingford CT, 2016.
 
 ******************************************
 Gaussian 16:  ES64L-G16RevA.03 25-Dec-2016
                10-Dec-2023 
 ******************************************
 %NProcShared=4
 Will use up to    4 processors via shared memory.
 %Mem=4GB
 %Chk=H2O_H2O_2964.chk
 ------------------
 #p CCSD(T)/CEP-31G
 ------------------
 1/38=1,172=1/1;
 2/12=2,17=6,18=5,40=1/2;
 3/5=9,6=1,11=9,25=1,30=1/1,2,3;
 4//1;
 5/5=2,38=5/2;
 8/6=4,9=120000,10=1/1,4;
 9/5=7,14=2/13;
 6/7=2,8=2,9=2,10=2/1;
 99/5=1,9=1/99;
 Leave Link    1 at Sun Dec 10 06:33:19 2023, MaxMem=   536870912 cpu:               0.2 elap:               0.1
 (Enter /usr/site/hpc/x86_64/glibc-2.17/broadwell/gaussian/g16_a.03/pgi-16.5/g16/l101.exe)
 ------------
 H2O_H2O_2964
 ------------
 Symbolic Z-matrix:
 Charge =  0 Multiplicity = 1
 O                     0.       -0.00983   0. 
 H                    -0.79957  -0.58097   0. 
 H                     0.79957  -0.58097   0. 
 O                    -0.0078    4.73135   0. 
 H                     0.02584   5.71338   0. 
 H                    -0.94766   4.44469   0. 
 
 ITRead=  0  0  0  0  0  0
 MicOpt= -1 -1 -1 -1 -1 -1
 NAtoms=      6 NQM=        6 NQMF=       0 NMMI=      0 NMMIF=      0
                NMic=       0 NMicF=      0.
                    Isotopes and Nuclear Properties:
 (Nuclear quadrupole moments (NQMom) in fm**2, nuclear magnetic moments (NMagM)
  in nuclear magnetons)

  Atom         1           2           3           4           5           6
 IAtWgt=          16           1           1          16           1           1
 AtmWgt=  15.9949146   1.0078250   1.0078250  15.9949146   1.0078250   1.0078250
 NucSpn=           0           1           1           0           1           1
 AtZEff=  -0.0000000  -0.0000000  -0.0000000  -0.0000000  -0.0000000  -0.0000000
 NQMom=    0.0000000   0.0000000   0.0000000   0.0000000   0.0000000   0.0000000
 NMagM=    0.0000000   2.7928460   2.7928460   0.0000000   2.7928460   2.7928460
 AtZNuc=   8.0000000   1.0000000   1.0000000   8.0000000   1.0000000   1.0000000
 Leave Link  101 at Sun Dec 10 06:33:19 2023, MaxMem=   536870912 cpu:               0.3 elap:               0.1
 (Enter /usr/site/hpc/x86_64/glibc-2.17/broadwell/gaussian/g16_a.03/pgi-16.5/g16/l202.exe)
                          Input orientation:                          
 ---------------------------------------------------------------------
 Center     Atomic      Atomic             Coordinates (Angstroms)
 Number     Number       Type             X           Y           Z
 ---------------------------------------------------------------------
      1          8           0        0.000000   -0.009833    0.000000
      2          1           0       -0.799571   -0.580965    0.000000
      3          1           0        0.799571   -0.580965    0.000000
      4          8           0       -0.007801    4.731352    0.000000
      5          1           0        0.025838    5.713378    0.000000
      6          1           0       -0.947659    4.444693    0.000000
 ---------------------------------------------------------------------
                    Distance matrix (angstroms):
                    1          2          3          4          5
     1  O    0.000000
     2  H    0.982601   0.000000
     3  H    0.982601   1.599142   0.000000
     4  O    4.741191   5.370997   5.373319   0.000000
     5  H    5.723269   6.348232   6.341720   0.982602   0.000000
     6  H    4.554213   5.027839   5.320719   0.982602   1.599143
                    6
     6  H    0.000000
 Stoichiometry    H4O2
 Framework group  CS[SG(H4O2)]
 Deg. of freedom     9
 Full point group                 CS      NOp   2
 Largest Abelian subgroup         CS      NOp   2
 Largest concise Abelian subgroup C1      NOp   1
                         Standard orientation:                         
 ---------------------------------------------------------------------
 Center     Atomic      Atomic             Coordinates (Angstroms)
 Number     Number       Type             X           Y           Z
 ---------------------------------------------------------------------
      1          8           0        0.045348   -2.348325    0.000000
      2          1           0       -0.755162   -2.918141    0.000000
      3          1           0        0.843978   -2.920772    0.000000
      4          8           0        0.045348    2.392866    0.000000
      5          1           0        0.080602    3.374835    0.000000
      6          1           0       -0.894981    2.107754    0.000000
 ---------------------------------------------------------------------
 Rotational constants (GHZ):         236.0127608           2.3733534           2.3497245
 Leave Link  202 at Sun Dec 10 06:33:19 2023, MaxMem=   536870912 cpu:               0.0 elap:               0.0
 (Enter /usr/site/hpc/x86_64/glibc-2.17/broadwell/gaussian/g16_a.03/pgi-16.5/g16/l301.exe)
 Standard basis: CEP-31G (6D, 10F)
 Ernie: Thresh=  0.10000D-02 Tol=  0.10000D-05 Strict=F.
 There are    20 symmetry adapted cartesian basis functions of A'  symmetry.
 There are     4 symmetry adapted cartesian basis functions of A"  symmetry.
 There are    20 symmetry adapted basis functions of A'  symmetry.
 There are     4 symmetry adapted basis functions of A"  symmetry.
    24 basis functions,    48 primitive gaussians,    24 cartesian basis functions
     8 alpha electrons        8 beta electrons
       nuclear repulsion energy        20.4104980649 Hartrees.
 IExCor=    0 DFT=F Ex=HF Corr=None ExCW=0 ScaHFX=  1.000000
 ScaDFX=  1.000000  1.000000  1.000000  1.000000 ScalE2=  1.000000  1.000000
 IRadAn=      5 IRanWt=     -1 IRanGd=            0 ICorTp=0 IEmpDi=  4
 NAtoms=    6 NActive=    6 NUniq=    6 SFac= 1.00D+00 NAtFMM=   60 NAOKFM=F Big=F
 Integral buffers will be    131072 words long.
 Raffenetti 1 integral format.
 Two-electron integral symmetry is turned on.
 Leave Link  301 at Sun Dec 10 06:33:19 2023, MaxMem=   536870912 cpu:               0.2 elap:               0.1
 (Enter /usr/site/hpc/x86_64/glibc-2.17/broadwell/gaussian/g16_a.03/pgi-16.5/g16/l302.exe)
 NPDir=0 NMtPBC=     1 NCelOv=     1 NCel=       1 NClECP=     1 NCelD=      1
         NCelK=      1 NCelE2=     1 NClLst=     1 CellRange=     0.0.
 One-electron integrals computed using PRISM.
 One-electron integral symmetry used in STVInt
   2 Symmetry operations used in ECPInt.
 ECPInt:  NShTT=      78 NPrTT=     318 LenC2=      79 LenP2D=     258.
 LDataN:  DoStor=T MaxTD1= 2 Len=   12
 NBasis=    24 RedAO= T EigKep=  3.85D-02  NBF=    20     4
 NBsUse=    24 1.00D-06 EigRej= -1.00D+00 NBFU=    20     4
 Leave Link  302 at Sun Dec 10 06:33:19 2023, MaxMem=   536870912 cpu:               0.3 elap:               0.1
 (Enter /usr/site/hpc/x86_64/glibc-2.17/broadwell/gaussian/g16_a.03/pgi-16.5/g16/l303.exe)
 DipDrv:  MaxL=1.
 Leave Link  303 at Sun Dec 10 06:33:19 2023, MaxMem=   536870912 cpu:               0.1 elap:               0.0
 (Enter /usr/site/hpc/x86_64/glibc-2.17/broadwell/gaussian/g16_a.03/pgi-16.5/g16/l401.exe)
 ExpMin= 1.78D-01 ExpMax= 1.92D+01 ExpMxC= 1.92D+01 IAcc=3 IRadAn=         5 AccDes= 0.00D+00
 Harris functional with IExCor=  205 and IRadAn=       5 diagonalized for initial guess.
 HarFok:  IExCor=  205 AccDes= 0.00D+00 IRadAn=         5 IDoV= 1 UseB2=F ITyADJ=14
 ICtDFT=  3500011 ScaDFX=  1.000000  1.000000  1.000000  1.000000
 FoFCou: FMM=F IPFlag=           0 FMFlag=      100000 FMFlg1=           0
         NFxFlg=           0 DoJE=T BraDBF=F KetDBF=T FulRan=T
         wScrn=  0.000000 ICntrl=       500 IOpCl=  0 I1Cent=   200000004 NGrid=           0
         NMat0=    1 NMatS0=      1 NMatT0=    0 NMatD0=    1 NMtDS0=    0 NMtDT0=    0
 Petite list used in FoFCou.
 Harris En= -34.4763727622335    
 JPrj=0 DoOrth=F DoCkMO=F.
 Initial guess orbital symmetries:
       Occupied  (A') (A') (A') (A') (A') (A') (A") (A")
       Virtual   (A') (A') (A') (A') (A") (A") (A') (A') (A') (A')
                 (A') (A') (A') (A') (A') (A')
 The electronic state of the initial guess is 1-A'.
 Leave Link  401 at Sun Dec 10 06:33:19 2023, MaxMem=   536870912 cpu:               0.4 elap:               0.1
 (Enter /usr/site/hpc/x86_64/glibc-2.17/broadwell/gaussian/g16_a.03/pgi-16.5/g16/l502.exe)
 Keep R1 ints in memory in symmetry-blocked form, NReq=852006.
 FoFCou: FMM=F IPFlag=           0 FMFlag=           0 FMFlg1=           0
         NFxFlg=           0 DoJE=F BraDBF=F KetDBF=F FulRan=T
         wScrn=  0.000000 ICntrl=       600 IOpCl=  0 I1Cent=           0 NGrid=           0
         NMat0=    1 NMatS0=    300 NMatT0=    0 NMatD0=    1 NMtDS0=    0 NMtDT0=    0
 Petite list used in FoFCou.
 Closed shell SCF:
 Using DIIS extrapolation, IDIIS=  1040.
 NGot=   536870912 LenX=   536840576 LenY=   536839559
 Requested convergence on RMS density matrix=1.00D-08 within 128 cycles.
 Requested convergence on MAX density matrix=1.00D-06.
 Requested convergence on             energy=1.00D-06.
 No special actions if energy rises.

 Cycle   1  Pass 1  IDiag  1:
 E= -33.5552300779886    
 DIIS: error= 6.92D-02 at cycle   1 NSaved=   1.
 NSaved= 1 IEnMin= 1 EnMin= -33.5552300779886     IErMin= 1 ErrMin= 6.92D-02
 ErrMax= 6.92D-02  0.00D+00 EMaxC= 1.00D-01 BMatC= 1.03D-01 BMatP= 1.03D-01
 IDIUse=3 WtCom= 3.08D-01 WtEn= 6.92D-01
 Coeff-Com:  0.100D+01
 Coeff-En:   0.100D+01
 Coeff:      0.100D+01
 Gap=     0.603 Goal=   None    Shift=    0.000
 GapD=    0.603 DampG=2.000 DampE=0.500 DampFc=1.0000 IDamp=-1.
 RMSDP=1.49D-02 MaxDP=1.17D-01              OVMax= 1.00D-01

 Cycle   2  Pass 1  IDiag  1:
 E= -33.6186302495372     Delta-E=       -0.063400171549 Rises=F Damp=F
 DIIS: error= 3.75D-02 at cycle   2 NSaved=   2.
 NSaved= 2 IEnMin= 2 EnMin= -33.6186302495372     IErMin= 2 ErrMin= 3.75D-02
 ErrMax= 3.75D-02  0.00D+00 EMaxC= 1.00D-01 BMatC= 3.86D-02 BMatP= 1.03D-01
 IDIUse=3 WtCom= 6.25D-01 WtEn= 3.75D-01
 Coeff-Com:  0.378D+00 0.622D+00
 Coeff-En:   0.109D+00 0.891D+00
 Coeff:      0.277D+00 0.723D+00
 Gap=     0.702 Goal=   None    Shift=    0.000
 RMSDP=6.45D-03 MaxDP=5.46D-02 DE=-6.34D-02 OVMax= 3.59D-02

 Cycle   3  Pass 1  IDiag  1:
 E= -33.6494802305767     Delta-E=       -0.030849981039 Rises=F Damp=F
 DIIS: error= 7.27D-03 at cycle   3 NSaved=   3.
 NSaved= 3 IEnMin= 3 EnMin= -33.6494802305767     IErMin= 3 ErrMin= 7.27D-03
 ErrMax= 7.27D-03  0.00D+00 EMaxC= 1.00D-01 BMatC= 9.26D-04 BMatP= 3.86D-02
 IDIUse=3 WtCom= 9.27D-01 WtEn= 7.27D-02
 Coeff-Com: -0.114D+00-0.146D-01 0.113D+01
 Coeff-En:   0.000D+00 0.000D+00 0.100D+01
 Coeff:     -0.106D+00-0.135D-01 0.112D+01
 Gap=     0.694 Goal=   None    Shift=    0.000
 RMSDP=1.11D-03 MaxDP=9.39D-03 DE=-3.08D-02 OVMax= 8.21D-03

 Cycle   4  Pass 1  IDiag  1:
 E= -33.6504073177022     Delta-E=       -0.000927087126 Rises=F Damp=F
 DIIS: error= 7.71D-04 at cycle   4 NSaved=   4.
 NSaved= 4 IEnMin= 4 EnMin= -33.6504073177022     IErMin= 4 ErrMin= 7.71D-04
 ErrMax= 7.71D-04  0.00D+00 EMaxC= 1.00D-01 BMatC= 6.16D-06 BMatP= 9.26D-04
 IDIUse=3 WtCom= 9.92D-01 WtEn= 7.71D-03
 Coeff-Com:  0.436D-01-0.183D-01-0.521D+00 0.150D+01
 Coeff-En:   0.000D+00 0.000D+00 0.000D+00 0.100D+01
 Coeff:      0.433D-01-0.182D-01-0.517D+00 0.149D+01
 Gap=     0.696 Goal=   None    Shift=    0.000
 RMSDP=2.38D-04 MaxDP=2.06D-03 DE=-9.27D-04 OVMax= 9.76D-04

 Cycle   5  Pass 1  IDiag  1:
 E= -33.6504208337672     Delta-E=       -0.000013516065 Rises=F Damp=F
 DIIS: error= 5.23D-05 at cycle   5 NSaved=   5.
 NSaved= 5 IEnMin= 5 EnMin= -33.6504208337672     IErMin= 5 ErrMin= 5.23D-05
 ErrMax= 5.23D-05  0.00D+00 EMaxC= 1.00D-01 BMatC= 4.25D-08 BMatP= 6.16D-06
 IDIUse=1 WtCom= 1.00D+00 WtEn= 0.00D+00
 Coeff-Com: -0.704D-02 0.329D-02 0.848D-01-0.294D+00 0.121D+01
 Coeff:     -0.704D-02 0.329D-02 0.848D-01-0.294D+00 0.121D+01
 Gap=     0.696 Goal=   None    Shift=    0.000
 RMSDP=1.66D-05 MaxDP=1.62D-04 DE=-1.35D-05 OVMax= 1.12D-04

 Cycle   6  Pass 1  IDiag  1:
 E= -33.6504209391741     Delta-E=       -0.000000105407 Rises=F Damp=F
 DIIS: error= 1.13D-05 at cycle   6 NSaved=   6.
 NSaved= 6 IEnMin= 6 EnMin= -33.6504209391741     IErMin= 6 ErrMin= 1.13D-05
 ErrMax= 1.13D-05  0.00D+00 EMaxC= 1.00D-01 BMatC= 2.52D-09 BMatP= 4.25D-08
 IDIUse=1 WtCom= 1.00D+00 WtEn= 0.00D+00
 Coeff-Com:  0.651D-03-0.184D-03-0.726D-02 0.323D-01-0.308D+00 0.128D+01
 Coeff:      0.651D-03-0.184D-03-0.726D-02 0.323D-01-0.308D+00 0.128D+01
 Gap=     0.696 Goal=   None    Shift=    0.000
 RMSDP=3.92D-06 MaxDP=4.36D-05 DE=-1.05D-07 OVMax= 3.72D-05

 Cycle   7  Pass 1  IDiag  1:
 E= -33.6504209455440     Delta-E=       -0.000000006370 Rises=F Damp=F
 DIIS: error= 2.77D-06 at cycle   7 NSaved=   7.
 NSaved= 7 IEnMin= 7 EnMin= -33.6504209455440     IErMin= 7 ErrMin= 2.77D-06
 ErrMax= 2.77D-06  0.00D+00 EMaxC= 1.00D-01 BMatC= 3.17D-10 BMatP= 2.52D-09
 IDIUse=1 WtCom= 1.00D+00 WtEn= 0.00D+00
 Coeff-Com:  0.711D-03-0.310D-03-0.842D-02 0.302D-01-0.152D+00 0.259D+00
 Coeff-Com:  0.871D+00
 Coeff:      0.711D-03-0.310D-03-0.842D-02 0.302D-01-0.152D+00 0.259D+00
 Coeff:      0.871D+00
 Gap=     0.696 Goal=   None    Shift=    0.000
 RMSDP=1.03D-06 MaxDP=7.48D-06 DE=-6.37D-09 OVMax= 1.01D-05

 Cycle   8  Pass 1  IDiag  1:
 E= -33.6504209460555     Delta-E=       -0.000000000512 Rises=F Damp=F
 DIIS: error= 9.90D-07 at cycle   8 NSaved=   8.
 NSaved= 8 IEnMin= 8 EnMin= -33.6504209460555     IErMin= 8 ErrMin= 9.90D-07
 ErrMax= 9.90D-07  0.00D+00 EMaxC= 1.00D-01 BMatC= 2.98D-11 BMatP= 3.17D-10
 IDIUse=1 WtCom= 1.00D+00 WtEn= 0.00D+00
 Coeff-Com:  0.562D-06-0.281D-04-0.102D-03-0.839D-03 0.323D-01-0.171D+00
 Coeff-Com:  0.294D-01 0.111D+01
 Coeff:      0.562D-06-0.281D-04-0.102D-03-0.839D-03 0.323D-01-0.171D+00
 Coeff:      0.294D-01 0.111D+01
 Gap=     0.696 Goal=   None    Shift=    0.000
 RMSDP=5.29D-07 MaxDP=3.75D-06 DE=-5.12D-10 OVMax= 4.10D-06

 Cycle   9  Pass 1  IDiag  1:
 E= -33.6504209461206     Delta-E=       -0.000000000065 Rises=F Damp=F
 DIIS: error= 1.97D-07 at cycle   9 NSaved=   9.
 NSaved= 9 IEnMin= 9 EnMin= -33.6504209461206     IErMin= 9 ErrMin= 1.97D-07
 ErrMax= 1.97D-07  0.00D+00 EMaxC= 1.00D-01 BMatC= 7.70D-13 BMatP= 2.98D-11
 IDIUse=1 WtCom= 1.00D+00 WtEn= 0.00D+00
 Coeff-Com:  0.309D-05 0.844D-05 0.676D-05 0.390D-03-0.124D-01 0.680D-01
 Coeff-Com: -0.318D-01-0.473D+00 0.145D+01
 Coeff:      0.309D-05 0.844D-05 0.676D-05 0.390D-03-0.124D-01 0.680D-01
 Coeff:     -0.318D-01-0.473D+00 0.145D+01
 Gap=     0.696 Goal=   None    Shift=    0.000
 RMSDP=1.35D-07 MaxDP=6.25D-07 DE=-6.51D-11 OVMax= 9.12D-07

 Cycle  10  Pass 1  IDiag  1:
 E= -33.6504209461227     Delta-E=       -0.000000000002 Rises=F Damp=F
 DIIS: error= 8.94D-09 at cycle  10 NSaved=  10.
 NSaved=10 IEnMin=10 EnMin= -33.6504209461227     IErMin=10 ErrMin= 8.94D-09
 ErrMax= 8.94D-09  0.00D+00 EMaxC= 1.00D-01 BMatC= 2.87D-15 BMatP= 7.70D-13
 IDIUse=1 WtCom= 1.00D+00 WtEn= 0.00D+00
 Coeff-Com:  0.166D-06-0.208D-05-0.117D-04-0.503D-04 0.258D-02-0.148D-01
 Coeff-Com:  0.740D-02 0.103D+00-0.362D+00 0.126D+01
 Coeff:      0.166D-06-0.208D-05-0.117D-04-0.503D-04 0.258D-02-0.148D-01
 Coeff:      0.740D-02 0.103D+00-0.362D+00 0.126D+01
 Gap=     0.696 Goal=   None    Shift=    0.000
 RMSDP=1.18D-08 MaxDP=5.44D-08 DE=-2.13D-12 OVMax= 6.83D-08

 Cycle  11  Pass 1  IDiag  1:
 E= -33.6504209461228     Delta-E=       -0.000000000000 Rises=F Damp=F
 DIIS: error= 3.94D-10 at cycle  11 NSaved=  11.
 NSaved=11 IEnMin=11 EnMin= -33.6504209461228     IErMin=11 ErrMin= 3.94D-10
 ErrMax= 3.94D-10  0.00D+00 EMaxC= 1.00D-01 BMatC= 5.01D-18 BMatP= 2.87D-15
 IDIUse=1 WtCom= 1.00D+00 WtEn= 0.00D+00
 Coeff-Com: -0.816D-07 0.341D-06 0.246D-05 0.609D-05-0.409D-03 0.239D-02
 Coeff-Com: -0.123D-02-0.166D-01 0.598D-01-0.231D+00 0.119D+01
 Coeff:     -0.816D-07 0.341D-06 0.246D-05 0.609D-05-0.409D-03 0.239D-02
 Coeff:     -0.123D-02-0.166D-01 0.598D-01-0.231D+00 0.119D+01
 Gap=     0.696 Goal=   None    Shift=    0.000
 RMSDP=2.85D-10 MaxDP=1.48D-09 DE=-5.68D-14 OVMax= 1.39D-09

 SCF Done:  E(RHF) =  -33.6504209461     A.U. after   11 cycles
            NFock= 11  Conv=0.29D-09     -V/T= 2.2570
 KE= 2.677002367180D+01 PE=-1.225355265418D+02 EE= 4.170458385899D+01
 Leave Link  502 at Sun Dec 10 06:33:19 2023, MaxMem=   536870912 cpu:               0.3 elap:               0.1
 (Enter /usr/site/hpc/x86_64/glibc-2.17/broadwell/gaussian/g16_a.03/pgi-16.5/g16/l801.exe)
 Windowed orbitals will be sorted by symmetry type.
 Range of M.O.s used for correlation:     1    24
 NBasis=    24 NAE=     8 NBE=     8 NFC=     0 NFV=     0
 NROrb=     24 NOA=     8 NOB=     8 NVA=    16 NVB=    16
 Leave Link  801 at Sun Dec 10 06:33:19 2023, MaxMem=   536870912 cpu:               0.1 elap:               0.0
 (Enter /usr/site/hpc/x86_64/glibc-2.17/broadwell/gaussian/g16_a.03/pgi-16.5/g16/l804.exe)
 Closed-shell transformation, MDV=   536870912 ITran=4 ISComp=2.
 Unit  1 TFree=       1025975 TCopy=        210600.
 Semi-Direct transformation.
 ModeAB=           2 MOrb=             8 LenV=     536742285
 LASXX=        22470 LTotXX=       22470 LenRXX=       22470
 LTotAB=       26208 MaxLAS=       57600 LenRXY=       57600
 NonZer=       59328 LenScr=      524288 LnRSAI=           0
 LnScr1=           0 LExtra=           0 Total=       604358
 MaxDsk=          -1 SrtSym=           F ITran=            4
 DoSDTr:  NPSUse=  4
 JobTyp=0 Pass  1:  I=   1 to   8.
 (rs|ai) integrals will be sorted in core.
 Complete sort for first half transformation.
 First half transformation complete.
 Complete sort for second half transformation.
 Second half transformation complete.
 Spin components of T(2) and E(2):
     alpha-alpha T2 =       0.9074653180D-02 E2=     -0.2589690862D-01
     alpha-beta  T2 =       0.6001652963D-01 E2=     -0.1767003038D+00
     beta-beta   T2 =       0.9074653180D-02 E2=     -0.2589690862D-01
 ANorm=    0.1038347647D+01
 E2 =    -0.2284941211D+00 EUMP2 =    -0.33878915067197D+02
 Leave Link  804 at Sun Dec 10 06:33:19 2023, MaxMem=   536870912 cpu:               0.2 elap:               0.1
 (Enter /usr/site/hpc/x86_64/glibc-2.17/broadwell/gaussian/g16_a.03/pgi-16.5/g16/l913.exe)
 CIDS:  MDV=   536870912.
 IFCWin=0 IBDFC=1 NFBD=     0     0 NFCmp=     0     0 NFFFC=     0     0
 Using DD3R+UMP44R for 1st iteration.
 Using DD4RQ for 2nd and later iterations.
 Keep R2 and R3 ints in memory in symmetry-blocked form, NReq=864614.
 FoFCou: FMM=F IPFlag=           0 FMFlag=           0 FMFlg1=           0
         NFxFlg=           0 DoJE=F BraDBF=F KetDBF=F FulRan=T
         wScrn=  0.000000 ICntrl=       600 IOpCl=  0 I1Cent=           0 NGrid=           0
         NMat0=    1 NMatS0=    300 NMatT0=    0 NMatD0=    1 NMtDS0=    0 NMtDT0=    0
 Petite list used in FoFCou.
 CIDS: In Core Option IDoMem=           1.
 CCSD(T)
 =======
 Iterations=  50 Convergence= 0.100D-06
 Produce multiple copies of IABC intergrals
 Iteration Nr.   1
 **********************
 DD1Dir will call FoFMem   1 times, MxPair=        72
 NAB=    36 NAA=     0 NBB=     0.
 MP4(R+Q)= -0.73312803D-03
 Maximum subspace dimension=  5
 A-vector RMS=  5.7705159D-03 Max=  1.3146938D-02 conv= 1.00D-05.
 RLE energy=       -0.2345761534
 E3=       -0.54663517D-02        EUMP3=      -0.33884381419D+02
 E4(DQ)=   -0.59179241D-02        UMP4(DQ)=   -0.33890299343D+02
 E4(SDQ)=  -0.79502918D-02        UMP4(SDQ)=  -0.33892331711D+02
 VARIATIONAL ENERGIES WITH THE FIRST-ORDER WAVEFUNCTION:
 DE(Corr)= -0.23441880     E(Corr)=     -33.884839746    
 NORM(A)=   0.10418005D+01
 Iteration Nr.   2
 **********************
 DD1Dir will call FoFMem   1 times, MxPair=        72
 NAB=    36 NAA=     0 NBB=     0.
 A-vector RMS=  9.8475324D-04 Max=  2.7210774D-03 conv= 1.00D-05.
 RLE energy=       -0.2423698326
 DE(Corr)= -0.24042192     E(CORR)=     -33.890842868     Delta=-6.00D-03
 NORM(A)=   0.10456112D+01
 Iteration Nr.   3
 **********************
 DD1Dir will call FoFMem   1 times, MxPair=        72
 NAB=    36 NAA=     0 NBB=     0.
 A-vector RMS=  3.8798001D-04 Max=  1.1542887D-03 conv= 1.00D-05.
 RLE energy=       -0.2429217036
 DE(Corr)= -0.24247206     E(CORR)=     -33.892893009     Delta=-2.05D-03
 NORM(A)=   0.10461771D+01
 Iteration Nr.   4
 **********************
 DD1Dir will call FoFMem   1 times, MxPair=        72
 NAB=    36 NAA=     0 NBB=     0.
 A-vector RMS=  9.3856524D-05 Max=  2.5277912D-04 conv= 1.00D-05.
 RLE energy=       -0.2429690898
 DE(Corr)= -0.24293280     E(CORR)=     -33.893353743     Delta=-4.61D-04
 NORM(A)=   0.10462529D+01
 Iteration Nr.   5
 **********************
 DD1Dir will call FoFMem   1 times, MxPair=        72
 NAB=    36 NAA=     0 NBB=     0.
 A-vector RMS=  4.2346252D-05 Max=  1.5226780D-04 conv= 1.00D-05.
 RLE energy=       -0.2429672991
 DE(Corr)= -0.24296522     E(CORR)=     -33.893386167     Delta=-3.24D-05
 NORM(A)=   0.10462640D+01
 Iteration Nr.   6
 **********************
 DD1Dir will call FoFMem   1 times, MxPair=        72
 NAB=    36 NAA=     0 NBB=     0.
 A-vector RMS=  1.1616199D-05 Max=  4.1765958D-05 conv= 1.00D-05.
 RLE energy=       -0.2429663748
 DE(Corr)= -0.24296743     E(CORR)=     -33.893388380     Delta=-2.21D-06
 NORM(A)=   0.10462676D+01
 Iteration Nr.   7
 **********************
 DD1Dir will call FoFMem   1 times, MxPair=        72
 NAB=    36 NAA=     0 NBB=     0.
 A-vector RMS=  3.4345547D-06 Max=  1.2178445D-05 conv= 1.00D-05.
 RLE energy=       -0.2429673140
 DE(Corr)= -0.24296679     E(CORR)=     -33.893387740     Delta= 6.40D-07
 NORM(A)=   0.10462690D+01
 Iteration Nr.   8
 **********************
 DD1Dir will call FoFMem   1 times, MxPair=        72
 NAB=    36 NAA=     0 NBB=     0.
 A-vector RMS=  6.8307304D-07 Max=  2.3046336D-06 conv= 1.00D-05.
 RLE energy=       -0.2429668083
 DE(Corr)= -0.24296684     E(CORR)=     -33.893387781     Delta=-4.17D-08
 NORM(A)=   0.10462691D+01
 CI/CC converged in    8 iterations to DelEn=-4.17D-08 Conv= 1.00D-07 ErrA1= 6.83D-07 Conv= 1.00D-05
 Wavefunction amplitudes converged. E(Corr)=     -33.893387781    
 Largest amplitude= 5.78D-02
 IPart=  2 IA=    2   12.50% done.
 IPart=  3 IA=    3   24.17% done.
 IPart=  4 IA=    4   35.00% done.
 IPart=  4 IA=    5   45.00% done.
 IPart=  3 IA=    6   54.17% done.
 IPart=  2 IA=    7   62.50% done.
 IPart=  1 IA=    8   70.00% done.
 IPart=  1 IA=   10   82.50% done.
 IPart=  2 IA=   12   91.67% done.
 Time for triples=        0.25 seconds.
 T4(CCSD)= -0.30953652D-02
 T5(CCSD)=  0.52774644D-03
 CCSD(T)= -0.33895955400D+02
 Discarding MO integrals.
 Leave Link  913 at Sun Dec 10 06:33:19 2023, MaxMem=   536870912 cpu:               0.8 elap:               0.2
 (Enter /usr/site/hpc/x86_64/glibc-2.17/broadwell/gaussian/g16_a.03/pgi-16.5/g16/l601.exe)
 Copying SCF densities to generalized density rwf, IOpCl= 0 IROHF=0.

 **********************************************************************

            Population analysis using the SCF density.

 **********************************************************************

 Orbital symmetries:
       Occupied  (A') (A') (A') (A') (A') (A') (A") (A")
       Virtual   (A') (A') (A') (A') (A") (A") (A') (A') (A') (A')
                 (A') (A') (A') (A') (A') (A')
 The electronic state is 1-A'.
 Alpha  occ. eigenvalues --   -1.35075  -1.34467  -0.70704  -0.70073  -0.54733
 Alpha  occ. eigenvalues --   -0.54119  -0.49626  -0.49021
 Alpha virt. eigenvalues --    0.20575   0.21282   0.30852   0.31450   0.80920
 Alpha virt. eigenvalues --    0.81528   0.83270   0.85170   0.87138   0.88258
 Alpha virt. eigenvalues --    1.17769   1.18375   1.22233   1.22853   2.57819
 Alpha virt. eigenvalues --    2.58420
          Condensed to atoms (all electrons):
               1          2          3          4          5          6
     1  O    6.211460   0.261083   0.263851   0.000008   0.000000   0.000005
     2  H    0.261083   0.396950  -0.023663   0.000000  -0.000000  -0.000000
     3  H    0.263851  -0.023663   0.389023   0.000000  -0.000000  -0.000000
     4  O    0.000008   0.000000   0.000000   6.210985   0.259950   0.264228
     5  H    0.000000  -0.000000  -0.000000   0.259950   0.400442  -0.023814
     6  H    0.000005  -0.000000  -0.000000   0.264228  -0.023814   0.387845
 Mulliken charges:
               1
     1  O   -0.736407
     2  H    0.365629
     3  H    0.370789
     4  O   -0.735171
     5  H    0.363422
     6  H    0.371737
 Sum of Mulliken charges =   0.00000
 Mulliken charges with hydrogens summed into heavy atoms:
               1
     1  O    0.000012
     4  O   -0.000012
 Electronic spatial extent (au):  <R**2>=            377.0085
 Charge=              0.0000 electrons
 Dipole moment (field-independent basis, Debye):
    X=             -2.0829    Y=             -1.0560    Z=              0.0000  Tot=              2.3353
 Quadrupole moment (field-independent basis, Debye-Ang):
   XX=             -9.3755   YY=              9.2943   ZZ=            -14.9872
   XY=             -4.2327   XZ=              0.0000   YZ=              0.0000
 Traceless Quadrupole moment (field-independent basis, Debye-Ang):
   XX=             -4.3527   YY=             14.3171   ZZ=             -9.9644
   XY=             -4.2327   XZ=              0.0000   YZ=              0.0000
 Octapole moment (field-independent basis, Debye-Ang**2):
  XXX=             -1.8779  YYY=             -7.6846  ZZZ=              0.0000  XYY=             -6.9424
  XXY=             -4.9409  XXZ=              0.0000  XZZ=             -0.3896  YZZ=             -0.2020
  YYZ=              0.0000  XYZ=              0.0000
 Hexadecapole moment (field-independent basis, Debye-Ang**3):
 XXXX=            -11.9935 YYYY=           -141.5152 ZZZZ=            -12.2187 XXXY=             -1.8835
 XXXZ=              0.0000 YYYX=            -12.7800 YYYZ=              0.0000 ZZZX=              0.0000
 ZZZY=              0.0000 XXYY=            -55.2589 XXZZ=             -4.5667 YYZZ=            -91.5438
 XXYZ=              0.0000 YYXZ=              0.0000 ZZXY=              0.6111
 N-N= 2.041049806492D+01 E-N=-1.225355265466D+02  KE= 2.677002367180D+01
 Symmetry A'   KE= 1.788508963680D+01
 Symmetry A"   KE= 8.884934034999D+00
 Leave Link  601 at Sun Dec 10 06:33:19 2023, MaxMem=   536870912 cpu:               0.1 elap:               0.0
 (Enter /usr/site/hpc/x86_64/glibc-2.17/broadwell/gaussian/g16_a.03/pgi-16.5/g16/l9999.exe)
 1\1\GINC-N045\SP\RCCSD(T)-FC\CEP-31G\H4O2\ROOT\10-Dec-2023\0\\#p CCSD(
 T)/CEP-31G\\H2O_H2O_2964\\0,1\O,0,0.,-0.009833,0.\H,0,-0.799571,-0.580
 965,0.\H,0,0.799571,-0.580965,0.\O,0,-0.007801,4.731352,0.\H,0,0.02583
 8,5.713378,0.\H,0,-0.947659,4.444693,0.\\Version=ES64L-G16RevA.03\Stat
 e=1-A'\HF=-33.6504209\MP2=-33.8789151\MP3=-33.8843814\MP4D=-33.8895662
 \MP4DQ=-33.8902993\MP4SDQ=-33.8923317\CCSD=-33.8933878\CCSD(T)=-33.895
 9554\RMSD=2.852e-10\PG=CS [SG(H4O2)]\\@


 CHARLIE BROWN.."I CAN'T GET THAT STUPID KITE IN THE
 AIR... I CAN'T... I C A N N O T..."
 LUCY.."OH COME NOW CHARLIE BROWN...THAT'S NO WAY TO TALK...
 THE TROUBLE WITH YOU IS YOU DON'T BELIEVE IN YOURSELF... YOU
 DON'T BELIEVE IN YOUR OWN ABILITIES...  YOU'VE GOT TO SAY TO
 YOURSELF...'I BELIEVE I CAN FLY THIS KITE.'... GO AHEAD SAY
 IT...."
 CHARLIE BROWN.."I BELIEVE THAT I CAN FLY THIS STUPID
 KITE.....I BELIEVE THAT I CAN FLY THIS KITE........
 I  A C T U A L L Y  B E L I E V E  T H A T  I  C A N ******"
 LUCY.."I'LL BET YOU TEN-TO-ONE YOU'RE WRONG......."    SCHULZ
 Job cpu time:       0 days  0 hours  0 minutes  3.1 seconds.
 Elapsed time:       0 days  0 hours  0 minutes  1.0 seconds.
 File lengths (MBytes):  RWF=     72 Int=      0 D2E=      0 Chk=      8 Scr=      8
 Normal termination of Gaussian 16 at Sun Dec 10 06:33:20 2023.
