 Entering Gaussian System, Link 0=g16
 Input=H2O_H2O_1062.com
 Output=H2O_H2O_1062.log
 Initial command:
 /usr/site/hpc/x86_64/glibc-2.17/broadwell/gaussian/g16_a.03/pgi-16.5/g16/l1.exe "/gpfs/gpfs1/scratch/c7441090/OO Coord/Gau-1253946.inp" -scrdir="/gpfs/gpfs1/scratch/c7441090/OO Coord/"
 Entering Link 1 = /usr/site/hpc/x86_64/glibc-2.17/broadwell/gaussian/g16_a.03/pgi-16.5/g16/l1.exe PID=   1253947.
  
 Copyright (c) 1988,1990,1992,1993,1995,1998,2003,2009,2016,
            Gaussian, Inc.  All Rights Reserved.
  
 This is part of the Gaussian(R) 16 program.  It is based on
 the Gaussian(R) 09 system (copyright 2009, Gaussian, Inc.),
 the Gaussian(R) 03 system (copyright 2003, Gaussian, Inc.),
 the Gaussian(R) 98 system (copyright 1998, Gaussian, Inc.),
 the Gaussian(R) 94 system (copyright 1995, Gaussian, Inc.),
 the Gaussian 92(TM) system (copyright 1992, Gaussian, Inc.),
 the Gaussian 90(TM) system (copyright 1990, Gaussian, Inc.),
 the Gaussian 88(TM) system (copyright 1988, Gaussian, Inc.),
 the Gaussian 86(TM) system (copyright 1986, Carnegie Mellon
 University), and the Gaussian 82(TM) system (copyright 1983,
 Carnegie Mellon University). Gaussian is a federally registered
 trademark of Gaussian, Inc.
  
 This software contains proprietary and confidential information,
 including trade secrets, belonging to Gaussian, Inc.
  
 This software is provided under written license and may be
 used, copied, transmitted, or stored only in accord with that
 written license.
  
 The following legend is applicable only to US Government
 contracts under FAR:
  
                    RESTRICTED RIGHTS LEGEND
  
 Use, reproduction and disclosure by the US Government is
 subject to restrictions as set forth in subparagraphs (a)
 and (c) of the Commercial Computer Software - Restricted
 Rights clause in FAR 52.227-19.
  
 Gaussian, Inc.
 340 Quinnipiac St., Bldg. 40, Wallingford CT 06492
  
  
 ---------------------------------------------------------------
 Warning -- This program may not be used in any manner that
 competes with the business of Gaussian, Inc. or will provide
 assistance to any competitor of Gaussian, Inc.  The licensee
 of this program is prohibited from giving any competitor of
 Gaussian, Inc. access to this program.  By using this program,
 the user acknowledges that Gaussian, Inc. is engaged in the
 business of creating and licensing software in the field of
 computational chemistry and represents and warrants to the
 licensee that it is not a competitor of Gaussian, Inc. and that
 it will not use this program in any manner prohibited above.
 ---------------------------------------------------------------
  

 Cite this work as:
 Gaussian 16, Revision A.03,
 M. J. Frisch, G. W. Trucks, H. B. Schlegel, G. E. Scuseria, 
 M. A. Robb, J. R. Cheeseman, G. Scalmani, V. Barone, 
 G. A. Petersson, H. Nakatsuji, X. Li, M. Caricato, A. V. Marenich, 
 J. Bloino, B. G. Janesko, R. Gomperts, B. Mennucci, H. P. Hratchian, 
 J. V. Ortiz, A. F. Izmaylov, J. L. Sonnenberg, D. Williams-Young, 
 F. Ding, F. Lipparini, F. Egidi, J. Goings, B. Peng, A. Petrone, 
 T. Henderson, D. Ranasinghe, V. G. Zakrzewski, J. Gao, N. Rega, 
 G. Zheng, W. Liang, M. Hada, M. Ehara, K. Toyota, R. Fukuda, 
 J. Hasegawa, M. Ishida, T. Nakajima, Y. Honda, O. Kitao, H. Nakai, 
 T. Vreven, K. Throssell, J. A. Montgomery, Jr., J. E. Peralta, 
 F. Ogliaro, M. J. Bearpark, J. J. Heyd, E. N. Brothers, K. N. Kudin, 
 V. N. Staroverov, T. A. Keith, R. Kobayashi, J. Normand, 
 K. Raghavachari, A. P. Rendell, J. C. Burant, S. S. Iyengar, 
 J. Tomasi, M. Cossi, J. M. Millam, M. Klene, C. Adamo, R. Cammi, 
 J. W. Ochterski, R. L. Martin, K. Morokuma, O. Farkas, 
 J. B. Foresman, and D. J. Fox, Gaussian, Inc., Wallingford CT, 2016.
 
 ******************************************
 Gaussian 16:  ES64L-G16RevA.03 25-Dec-2016
                10-Dec-2023 
 ******************************************
 %NProcShared=4
 Will use up to    4 processors via shared memory.
 %Mem=4GB
 %Chk=H2O_H2O_1062.chk
 ------------------
 #p CCSD(T)/CEP-31G
 ------------------
 1/38=1,172=1/1;
 2/12=2,17=6,18=5,40=1/2;
 3/5=9,6=1,11=9,25=1,30=1/1,2,3;
 4//1;
 5/5=2,38=5/2;
 8/6=4,9=120000,10=1/1,4;
 9/5=7,14=2/13;
 6/7=2,8=2,9=2,10=2/1;
 99/5=1,9=1/99;
 Leave Link    1 at Sun Dec 10 06:44:36 2023, MaxMem=   536870912 cpu:               0.2 elap:               0.1
 (Enter /usr/site/hpc/x86_64/glibc-2.17/broadwell/gaussian/g16_a.03/pgi-16.5/g16/l101.exe)
 ------------
 H2O_H2O_1062
 ------------
 Symbolic Z-matrix:
 Charge =  0 Multiplicity = 1
 O                     0.       -0.00983   0. 
 H                    -0.79957  -0.58097   0. 
 H                     0.79957  -0.58097   0. 
 O                    -0.00695   2.71134   0. 
 H                     0.15458   3.68058   0. 
 H                    -0.97619   2.54981   0. 
 
 ITRead=  0  0  0  0  0  0
 MicOpt= -1 -1 -1 -1 -1 -1
 NAtoms=      6 NQM=        6 NQMF=       0 NMMI=      0 NMMIF=      0
                NMic=       0 NMicF=      0.
                    Isotopes and Nuclear Properties:
 (Nuclear quadrupole moments (NQMom) in fm**2, nuclear magnetic moments (NMagM)
  in nuclear magnetons)

  Atom         1           2           3           4           5           6
 IAtWgt=          16           1           1          16           1           1
 AtmWgt=  15.9949146   1.0078250   1.0078250  15.9949146   1.0078250   1.0078250
 NucSpn=           0           1           1           0           1           1
 AtZEff=  -0.0000000  -0.0000000  -0.0000000  -0.0000000  -0.0000000  -0.0000000
 NQMom=    0.0000000   0.0000000   0.0000000   0.0000000   0.0000000   0.0000000
 NMagM=    0.0000000   2.7928460   2.7928460   0.0000000   2.7928460   2.7928460
 AtZNuc=   8.0000000   1.0000000   1.0000000   8.0000000   1.0000000   1.0000000
 Leave Link  101 at Sun Dec 10 06:44:36 2023, MaxMem=   536870912 cpu:               0.3 elap:               0.1
 (Enter /usr/site/hpc/x86_64/glibc-2.17/broadwell/gaussian/g16_a.03/pgi-16.5/g16/l202.exe)
                          Input orientation:                          
 ---------------------------------------------------------------------
 Center     Atomic      Atomic             Coordinates (Angstroms)
 Number     Number       Type             X           Y           Z
 ---------------------------------------------------------------------
      1          8           0        0.000000   -0.009833    0.000000
      2          1           0       -0.799571   -0.580965    0.000000
      3          1           0        0.799571   -0.580965    0.000000
      4          8           0       -0.006953    2.711341    0.000000
      5          1           0        0.154578    3.680575    0.000000
      6          1           0       -0.976187    2.549810    0.000000
 ---------------------------------------------------------------------
                    Distance matrix (angstroms):
                    1          2          3          4          5
     1  O    0.000000
     2  H    0.982601   0.000000
     3  H    0.982601   1.599142   0.000000
     4  O    2.721183   3.386373   3.389655   0.000000
     5  H    3.693644   4.367050   4.310074   0.982602   0.000000
     6  H    2.739473   3.135753   3.599315   0.982602   1.599143
                    6
     6  H    0.000000
 Stoichiometry    H4O2
 Framework group  CS[SG(H4O2)]
 Deg. of freedom     9
 Full point group                 CS      NOp   2
 Largest Abelian subgroup         CS      NOp   2
 Largest concise Abelian subgroup C1      NOp   1
                         Standard orientation:                         
 ---------------------------------------------------------------------
 Center     Atomic      Atomic             Coordinates (Angstroms)
 Number     Number       Type             X           Y           Z
 ---------------------------------------------------------------------
      1          8           0        0.040428   -1.343967    0.000000
      2          1           0       -0.760600   -1.913054    0.000000
      3          1           0        0.838537   -1.917140    0.000000
      4          8           0        0.040428    1.377216    0.000000
      5          1           0        0.204435    2.346034    0.000000
      6          1           0       -0.929216    1.218162    0.000000
 ---------------------------------------------------------------------
 Rotational constants (GHZ):         226.0157212           6.8599747           6.6578959
 Leave Link  202 at Sun Dec 10 06:44:36 2023, MaxMem=   536870912 cpu:               0.1 elap:               0.0
 (Enter /usr/site/hpc/x86_64/glibc-2.17/broadwell/gaussian/g16_a.03/pgi-16.5/g16/l301.exe)
 Standard basis: CEP-31G (6D, 10F)
 Ernie: Thresh=  0.10000D-02 Tol=  0.10000D-05 Strict=F.
 There are    20 symmetry adapted cartesian basis functions of A'  symmetry.
 There are     4 symmetry adapted cartesian basis functions of A"  symmetry.
 There are    20 symmetry adapted basis functions of A'  symmetry.
 There are     4 symmetry adapted basis functions of A"  symmetry.
    24 basis functions,    48 primitive gaussians,    24 cartesian basis functions
     8 alpha electrons        8 beta electrons
       nuclear repulsion energy        25.0403541022 Hartrees.
 IExCor=    0 DFT=F Ex=HF Corr=None ExCW=0 ScaHFX=  1.000000
 ScaDFX=  1.000000  1.000000  1.000000  1.000000 ScalE2=  1.000000  1.000000
 IRadAn=      5 IRanWt=     -1 IRanGd=            0 ICorTp=0 IEmpDi=  4
 NAtoms=    6 NActive=    6 NUniq=    6 SFac= 1.00D+00 NAtFMM=   60 NAOKFM=F Big=F
 Integral buffers will be    131072 words long.
 Raffenetti 1 integral format.
 Two-electron integral symmetry is turned on.
 Leave Link  301 at Sun Dec 10 06:44:36 2023, MaxMem=   536870912 cpu:               0.2 elap:               0.1
 (Enter /usr/site/hpc/x86_64/glibc-2.17/broadwell/gaussian/g16_a.03/pgi-16.5/g16/l302.exe)
 NPDir=0 NMtPBC=     1 NCelOv=     1 NCel=       1 NClECP=     1 NCelD=      1
         NCelK=      1 NCelE2=     1 NClLst=     1 CellRange=     0.0.
 One-electron integrals computed using PRISM.
 One-electron integral symmetry used in STVInt
   2 Symmetry operations used in ECPInt.
 ECPInt:  NShTT=      78 NPrTT=     318 LenC2=      79 LenP2D=     288.
 LDataN:  DoStor=T MaxTD1= 2 Len=   12
 NBasis=    24 RedAO= T EigKep=  3.73D-02  NBF=    20     4
 NBsUse=    24 1.00D-06 EigRej= -1.00D+00 NBFU=    20     4
 Leave Link  302 at Sun Dec 10 06:44:36 2023, MaxMem=   536870912 cpu:               0.3 elap:               0.1
 (Enter /usr/site/hpc/x86_64/glibc-2.17/broadwell/gaussian/g16_a.03/pgi-16.5/g16/l303.exe)
 DipDrv:  MaxL=1.
 Leave Link  303 at Sun Dec 10 06:44:36 2023, MaxMem=   536870912 cpu:               0.1 elap:               0.0
 (Enter /usr/site/hpc/x86_64/glibc-2.17/broadwell/gaussian/g16_a.03/pgi-16.5/g16/l401.exe)
 ExpMin= 1.78D-01 ExpMax= 1.92D+01 ExpMxC= 1.92D+01 IAcc=3 IRadAn=         5 AccDes= 0.00D+00
 Harris functional with IExCor=  205 and IRadAn=       5 diagonalized for initial guess.
 HarFok:  IExCor=  205 AccDes= 0.00D+00 IRadAn=         5 IDoV= 1 UseB2=F ITyADJ=14
 ICtDFT=  3500011 ScaDFX=  1.000000  1.000000  1.000000  1.000000
 FoFCou: FMM=F IPFlag=           0 FMFlag=      100000 FMFlg1=           0
         NFxFlg=           0 DoJE=T BraDBF=F KetDBF=T FulRan=T
         wScrn=  0.000000 ICntrl=       500 IOpCl=  0 I1Cent=   200000004 NGrid=           0
         NMat0=    1 NMatS0=      1 NMatT0=    0 NMatD0=    1 NMtDS0=    0 NMtDT0=    0
 Petite list used in FoFCou.
 Harris En= -34.4781011048852    
 JPrj=0 DoOrth=F DoCkMO=F.
 Initial guess orbital symmetries:
       Occupied  (A') (A') (A') (A') (A') (A') (A") (A")
       Virtual   (A') (A') (A') (A') (A') (A") (A') (A") (A') (A')
                 (A') (A') (A') (A') (A') (A')
 The electronic state of the initial guess is 1-A'.
 Leave Link  401 at Sun Dec 10 06:44:36 2023, MaxMem=   536870912 cpu:               0.4 elap:               0.1
 (Enter /usr/site/hpc/x86_64/glibc-2.17/broadwell/gaussian/g16_a.03/pgi-16.5/g16/l502.exe)
 Keep R1 ints in memory in symmetry-blocked form, NReq=852553.
 FoFCou: FMM=F IPFlag=           0 FMFlag=           0 FMFlg1=           0
         NFxFlg=           0 DoJE=F BraDBF=F KetDBF=F FulRan=T
         wScrn=  0.000000 ICntrl=       600 IOpCl=  0 I1Cent=           0 NGrid=           0
         NMat0=    1 NMatS0=    300 NMatT0=    0 NMatD0=    1 NMtDS0=    0 NMtDT0=    0
 Petite list used in FoFCou.
 Closed shell SCF:
 Using DIIS extrapolation, IDIIS=  1040.
 NGot=   536870912 LenX=   536840576 LenY=   536839559
 Requested convergence on RMS density matrix=1.00D-08 within 128 cycles.
 Requested convergence on MAX density matrix=1.00D-06.
 Requested convergence on             energy=1.00D-06.
 No special actions if energy rises.

 Cycle   1  Pass 1  IDiag  1:
 E= -33.5415590442715    
 DIIS: error= 6.89D-02 at cycle   1 NSaved=   1.
 NSaved= 1 IEnMin= 1 EnMin= -33.5415590442715     IErMin= 1 ErrMin= 6.89D-02
 ErrMax= 6.89D-02  0.00D+00 EMaxC= 1.00D-01 BMatC= 1.06D-01 BMatP= 1.06D-01
 IDIUse=3 WtCom= 3.11D-01 WtEn= 6.89D-01
 Coeff-Com:  0.100D+01
 Coeff-En:   0.100D+01
 Coeff:      0.100D+01
 Gap=     0.574 Goal=   None    Shift=    0.000
 GapD=    0.574 DampG=2.000 DampE=0.500 DampFc=1.0000 IDamp=-1.
 RMSDP=1.59D-02 MaxDP=1.20D-01              OVMax= 1.09D-01

 Cycle   2  Pass 1  IDiag  1:
 E= -33.6084523023170     Delta-E=       -0.066893258046 Rises=F Damp=F
 DIIS: error= 3.83D-02 at cycle   2 NSaved=   2.
 NSaved= 2 IEnMin= 2 EnMin= -33.6084523023170     IErMin= 2 ErrMin= 3.83D-02
 ErrMax= 3.83D-02  0.00D+00 EMaxC= 1.00D-01 BMatC= 4.03D-02 BMatP= 1.06D-01
 IDIUse=3 WtCom= 6.17D-01 WtEn= 3.83D-01
 Coeff-Com:  0.378D+00 0.622D+00
 Coeff-En:   0.959D-01 0.904D+00
 Coeff:      0.270D+00 0.730D+00
 Gap=     0.681 Goal=   None    Shift=    0.000
 RMSDP=6.75D-03 MaxDP=5.68D-02 DE=-6.69D-02 OVMax= 3.62D-02

 Cycle   3  Pass 1  IDiag  1:
 E= -33.6402271674482     Delta-E=       -0.031774865131 Rises=F Damp=F
 DIIS: error= 7.68D-03 at cycle   3 NSaved=   3.
 NSaved= 3 IEnMin= 3 EnMin= -33.6402271674482     IErMin= 3 ErrMin= 7.68D-03
 ErrMax= 7.68D-03  0.00D+00 EMaxC= 1.00D-01 BMatC= 1.13D-03 BMatP= 4.03D-02
 IDIUse=3 WtCom= 9.23D-01 WtEn= 7.68D-02
 Coeff-Com: -0.110D+00 0.367D-02 0.111D+01
 Coeff-En:   0.000D+00 0.000D+00 0.100D+01
 Coeff:     -0.101D+00 0.338D-02 0.110D+01
 Gap=     0.672 Goal=   None    Shift=    0.000
 RMSDP=1.28D-03 MaxDP=1.01D-02 DE=-3.18D-02 OVMax= 9.14D-03

 Cycle   4  Pass 1  IDiag  1:
 E= -33.6413422313309     Delta-E=       -0.001115063883 Rises=F Damp=F
 DIIS: error= 8.65D-04 at cycle   4 NSaved=   4.
 NSaved= 4 IEnMin= 4 EnMin= -33.6413422313309     IErMin= 4 ErrMin= 8.65D-04
 ErrMax= 8.65D-04  0.00D+00 EMaxC= 1.00D-01 BMatC= 7.81D-06 BMatP= 1.13D-03
 IDIUse=3 WtCom= 9.91D-01 WtEn= 8.65D-03
 Coeff-Com:  0.392D-01-0.256D-01-0.468D+00 0.145D+01
 Coeff-En:   0.000D+00 0.000D+00 0.000D+00 0.100D+01
 Coeff:      0.389D-01-0.254D-01-0.464D+00 0.145D+01
 Gap=     0.674 Goal=   None    Shift=    0.000
 RMSDP=2.52D-04 MaxDP=2.29D-03 DE=-1.12D-03 OVMax= 1.16D-03

 Cycle   5  Pass 1  IDiag  1:
 E= -33.6413580841593     Delta-E=       -0.000015852828 Rises=F Damp=F
 DIIS: error= 7.44D-05 at cycle   5 NSaved=   5.
 NSaved= 5 IEnMin= 5 EnMin= -33.6413580841593     IErMin= 5 ErrMin= 7.44D-05
 ErrMax= 7.44D-05  0.00D+00 EMaxC= 1.00D-01 BMatC= 1.06D-07 BMatP= 7.81D-06
 IDIUse=1 WtCom= 1.00D+00 WtEn= 0.00D+00
 Coeff-Com: -0.168D-03 0.628D-03 0.179D-02-0.784D-01 0.108D+01
 Coeff:     -0.168D-03 0.628D-03 0.179D-02-0.784D-01 0.108D+01
 Gap=     0.674 Goal=   None    Shift=    0.000
 RMSDP=2.30D-05 MaxDP=2.60D-04 DE=-1.59D-05 OVMax= 1.69D-04

 Cycle   6  Pass 1  IDiag  1:
 E= -33.6413582839161     Delta-E=       -0.000000199757 Rises=F Damp=F
 DIIS: error= 2.15D-05 at cycle   6 NSaved=   6.
 NSaved= 6 IEnMin= 6 EnMin= -33.6413582839161     IErMin= 6 ErrMin= 2.15D-05
 ErrMax= 2.15D-05  0.00D+00 EMaxC= 1.00D-01 BMatC= 2.01D-08 BMatP= 1.06D-07
 IDIUse=1 WtCom= 1.00D+00 WtEn= 0.00D+00
 Coeff-Com: -0.360D-02 0.245D-02 0.428D-01-0.150D+00 0.279D+00 0.830D+00
 Coeff:     -0.360D-02 0.245D-02 0.428D-01-0.150D+00 0.279D+00 0.830D+00
 Gap=     0.674 Goal=   None    Shift=    0.000
 RMSDP=6.46D-06 MaxDP=7.09D-05 DE=-2.00D-07 OVMax= 4.51D-05

 Cycle   7  Pass 1  IDiag  1:
 E= -33.6413583099133     Delta-E=       -0.000000025997 Rises=F Damp=F
 DIIS: error= 7.00D-06 at cycle   7 NSaved=   7.
 NSaved= 7 IEnMin= 7 EnMin= -33.6413583099133     IErMin= 7 ErrMin= 7.00D-06
 ErrMax= 7.00D-06  0.00D+00 EMaxC= 1.00D-01 BMatC= 9.78D-10 BMatP= 2.01D-08
 IDIUse=1 WtCom= 1.00D+00 WtEn= 0.00D+00
 Coeff-Com:  0.890D-03-0.521D-03-0.999D-02 0.403D-01-0.152D+00-0.186D+00
 Coeff-Com:  0.131D+01
 Coeff:      0.890D-03-0.521D-03-0.999D-02 0.403D-01-0.152D+00-0.186D+00
 Coeff:      0.131D+01
 Gap=     0.674 Goal=   None    Shift=    0.000
 RMSDP=2.66D-06 MaxDP=2.23D-05 DE=-2.60D-08 OVMax= 2.43D-05

 Cycle   8  Pass 1  IDiag  1:
 E= -33.6413583125032     Delta-E=       -0.000000002590 Rises=F Damp=F
 DIIS: error= 1.27D-06 at cycle   8 NSaved=   8.
 NSaved= 8 IEnMin= 8 EnMin= -33.6413583125032     IErMin= 8 ErrMin= 1.27D-06
 ErrMax= 1.27D-06  0.00D+00 EMaxC= 1.00D-01 BMatC= 3.94D-11 BMatP= 9.78D-10
 IDIUse=1 WtCom= 1.00D+00 WtEn= 0.00D+00
 Coeff-Com:  0.127D-04-0.535D-04-0.363D-03-0.174D-03 0.219D-01-0.694D-03
 Coeff-Com: -0.316D+00 0.130D+01
 Coeff:      0.127D-04-0.535D-04-0.363D-03-0.174D-03 0.219D-01-0.694D-03
 Coeff:     -0.316D+00 0.130D+01
 Gap=     0.674 Goal=   None    Shift=    0.000
 RMSDP=7.65D-07 MaxDP=4.38D-06 DE=-2.59D-09 OVMax= 5.50D-06

 Cycle   9  Pass 1  IDiag  1:
 E= -33.6413583126215     Delta-E=       -0.000000000118 Rises=F Damp=F
 DIIS: error= 2.77D-07 at cycle   9 NSaved=   9.
 NSaved= 9 IEnMin= 9 EnMin= -33.6413583126215     IErMin= 9 ErrMin= 2.77D-07
 ErrMax= 2.77D-07  0.00D+00 EMaxC= 1.00D-01 BMatC= 1.35D-12 BMatP= 3.94D-11
 IDIUse=1 WtCom= 1.00D+00 WtEn= 0.00D+00
 Coeff-Com:  0.115D-05 0.146D-04 0.689D-04 0.156D-03-0.713D-02 0.645D-03
 Coeff-Com:  0.103D+00-0.529D+00 0.143D+01
 Coeff:      0.115D-05 0.146D-04 0.689D-04 0.156D-03-0.713D-02 0.645D-03
 Coeff:      0.103D+00-0.529D+00 0.143D+01
 Gap=     0.674 Goal=   None    Shift=    0.000
 RMSDP=1.93D-07 MaxDP=8.41D-07 DE=-1.18D-10 OVMax= 1.33D-06

 Cycle  10  Pass 1  IDiag  1:
 E= -33.6413583126258     Delta-E=       -0.000000000004 Rises=F Damp=F
 DIIS: error= 1.50D-08 at cycle  10 NSaved=  10.
 NSaved=10 IEnMin=10 EnMin= -33.6413583126258     IErMin=10 ErrMin= 1.50D-08
 ErrMax= 1.50D-08  0.00D+00 EMaxC= 1.00D-01 BMatC= 7.65D-15 BMatP= 1.35D-12
 IDIUse=1 WtCom= 1.00D+00 WtEn= 0.00D+00
 Coeff-Com:  0.406D-06-0.293D-05-0.193D-04 0.595D-05 0.116D-02-0.283D-03
 Coeff-Com: -0.179D-01 0.969D-01-0.323D+00 0.124D+01
 Coeff:      0.406D-06-0.293D-05-0.193D-04 0.595D-05 0.116D-02-0.283D-03
 Coeff:     -0.179D-01 0.969D-01-0.323D+00 0.124D+01
 Gap=     0.674 Goal=   None    Shift=    0.000
 RMSDP=1.60D-08 MaxDP=8.29D-08 DE=-4.28D-12 OVMax= 9.73D-08

 Cycle  11  Pass 1  IDiag  1:
 E= -33.6413583126258     Delta-E=       -0.000000000000 Rises=F Damp=F
 DIIS: error= 1.09D-09 at cycle  11 NSaved=  11.
 NSaved=11 IEnMin=11 EnMin= -33.6413583126258     IErMin=11 ErrMin= 1.09D-09
 ErrMax= 1.09D-09  0.00D+00 EMaxC= 1.00D-01 BMatC= 6.01D-17 BMatP= 7.65D-15
 IDIUse=1 WtCom= 1.00D+00 WtEn= 0.00D+00
 Coeff-Com: -0.146D-06 0.729D-06 0.524D-05-0.340D-05-0.286D-03 0.838D-04
 Coeff-Com:  0.444D-02-0.244D-01 0.832D-01-0.360D+00 0.130D+01
 Coeff:     -0.146D-06 0.729D-06 0.524D-05-0.340D-05-0.286D-03 0.838D-04
 Coeff:      0.444D-02-0.244D-01 0.832D-01-0.360D+00 0.130D+01
 Gap=     0.674 Goal=   None    Shift=    0.000
 RMSDP=9.67D-10 MaxDP=5.07D-09 DE=-1.42D-14 OVMax= 5.60D-09

 SCF Done:  E(RHF) =  -33.6413583126     A.U. after   11 cycles
            NFock= 11  Conv=0.97D-09     -V/T= 2.2570
 KE= 2.676318787499D+01 PE=-1.320354306248D+02 EE= 4.659053033499D+01
 Leave Link  502 at Sun Dec 10 06:44:36 2023, MaxMem=   536870912 cpu:               0.3 elap:               0.1
 (Enter /usr/site/hpc/x86_64/glibc-2.17/broadwell/gaussian/g16_a.03/pgi-16.5/g16/l801.exe)
 Windowed orbitals will be sorted by symmetry type.
 Range of M.O.s used for correlation:     1    24
 NBasis=    24 NAE=     8 NBE=     8 NFC=     0 NFV=     0
 NROrb=     24 NOA=     8 NOB=     8 NVA=    16 NVB=    16
 Leave Link  801 at Sun Dec 10 06:44:36 2023, MaxMem=   536870912 cpu:               0.1 elap:               0.0
 (Enter /usr/site/hpc/x86_64/glibc-2.17/broadwell/gaussian/g16_a.03/pgi-16.5/g16/l804.exe)
 Closed-shell transformation, MDV=   536870912 ITran=4 ISComp=2.
 Unit  1 TFree=       1025975 TCopy=        210600.
 Semi-Direct transformation.
 ModeAB=           2 MOrb=             8 LenV=     536741696
 LASXX=        22470 LTotXX=       22470 LenRXX=       22470
 LTotAB=       26208 MaxLAS=       57600 LenRXY=       57600
 NonZer=       62208 LenScr=      524288 LnRSAI=           0
 LnScr1=           0 LExtra=           0 Total=       604358
 MaxDsk=          -1 SrtSym=           F ITran=            4
 DoSDTr:  NPSUse=  4
 JobTyp=0 Pass  1:  I=   1 to   8.
 (rs|ai) integrals will be sorted in core.
 Complete sort for first half transformation.
 First half transformation complete.
 Complete sort for second half transformation.
 Second half transformation complete.
 Spin components of T(2) and E(2):
     alpha-alpha T2 =       0.9108814142D-02 E2=     -0.2607607710D-01
     alpha-beta  T2 =       0.6023104514D-01 E2=     -0.1775200401D+00
     beta-beta   T2 =       0.9108814142D-02 E2=     -0.2607607710D-01
 ANorm=    0.1038483834D+01
 E2 =    -0.2296721943D+00 EUMP2 =    -0.33871030506946D+02
 Leave Link  804 at Sun Dec 10 06:44:36 2023, MaxMem=   536870912 cpu:               0.2 elap:               0.1
 (Enter /usr/site/hpc/x86_64/glibc-2.17/broadwell/gaussian/g16_a.03/pgi-16.5/g16/l913.exe)
 CIDS:  MDV=   536870912.
 IFCWin=0 IBDFC=1 NFBD=     0     0 NFCmp=     0     0 NFFFC=     0     0
 Using DD3R+UMP44R for 1st iteration.
 Using DD4RQ for 2nd and later iterations.
 Keep R2 and R3 ints in memory in symmetry-blocked form, NReq=865161.
 FoFCou: FMM=F IPFlag=           0 FMFlag=           0 FMFlg1=           0
         NFxFlg=           0 DoJE=F BraDBF=F KetDBF=F FulRan=T
         wScrn=  0.000000 ICntrl=       600 IOpCl=  0 I1Cent=           0 NGrid=           0
         NMat0=    1 NMatS0=    300 NMatT0=    0 NMatD0=    1 NMtDS0=    0 NMtDT0=    0
 Petite list used in FoFCou.
 CIDS: In Core Option IDoMem=           1.
 CCSD(T)
 =======
 Iterations=  50 Convergence= 0.100D-06
 Produce multiple copies of IABC intergrals
 Iteration Nr.   1
 **********************
 DD1Dir will call FoFMem   1 times, MxPair=        72
 NAB=    36 NAA=     0 NBB=     0.
 MP4(R+Q)= -0.63635308D-03
 Maximum subspace dimension=  5
 A-vector RMS=  5.9769502D-03 Max=  1.3237830D-02 conv= 1.00D-05.
 RLE energy=       -0.2358071813
 E3=       -0.56099938D-02        EUMP3=      -0.33876640501D+02
 E4(DQ)=   -0.58853885D-02        UMP4(DQ)=   -0.33882525889D+02
 E4(SDQ)=  -0.80091725D-02        UMP4(SDQ)=  -0.33884649673D+02
 VARIATIONAL ENERGIES WITH THE FIRST-ORDER WAVEFUNCTION:
 DE(Corr)= -0.23564790     E(Corr)=     -33.877006208    
 NORM(A)=   0.10420450D+01
 Iteration Nr.   2
 **********************
 DD1Dir will call FoFMem   1 times, MxPair=        72
 NAB=    36 NAA=     0 NBB=     0.
 A-vector RMS=  1.0047444D-03 Max=  2.6415352D-03 conv= 1.00D-05.
 RLE energy=       -0.2437524705
 DE(Corr)= -0.24178232     E(CORR)=     -33.883140630     Delta=-6.13D-03
 NORM(A)=   0.10459950D+01
 Iteration Nr.   3
 **********************
 DD1Dir will call FoFMem   1 times, MxPair=        72
 NAB=    36 NAA=     0 NBB=     0.
 A-vector RMS=  4.5196359D-04 Max=  1.7784795D-03 conv= 1.00D-05.
 RLE energy=       -0.2443127404
 DE(Corr)= -0.24384374     E(CORR)=     -33.885202050     Delta=-2.06D-03
 NORM(A)=   0.10466051D+01
 Iteration Nr.   4
 **********************
 DD1Dir will call FoFMem   1 times, MxPair=        72
 NAB=    36 NAA=     0 NBB=     0.
 A-vector RMS=  1.1152353D-04 Max=  3.8079838D-04 conv= 1.00D-05.
 RLE energy=       -0.2443655125
 DE(Corr)= -0.24432632     E(CORR)=     -33.885684635     Delta=-4.83D-04
 NORM(A)=   0.10466953D+01
 Iteration Nr.   5
 **********************
 DD1Dir will call FoFMem   1 times, MxPair=        72
 NAB=    36 NAA=     0 NBB=     0.
 A-vector RMS=  5.1260134D-05 Max=  2.2376574D-04 conv= 1.00D-05.
 RLE energy=       -0.2443646124
 DE(Corr)= -0.24436120     E(CORR)=     -33.885719508     Delta=-3.49D-05
 NORM(A)=   0.10467107D+01
 Iteration Nr.   6
 **********************
 DD1Dir will call FoFMem   1 times, MxPair=        72
 NAB=    36 NAA=     0 NBB=     0.
 A-vector RMS=  1.7289314D-05 Max=  7.5938312D-05 conv= 1.00D-05.
 RLE energy=       -0.2443607965
 DE(Corr)= -0.24436413     E(CORR)=     -33.885722443     Delta=-2.94D-06
 NORM(A)=   0.10467144D+01
 Iteration Nr.   7
 **********************
 DD1Dir will call FoFMem   1 times, MxPair=        72
 NAB=    36 NAA=     0 NBB=     0.
 A-vector RMS=  5.6485750D-06 Max=  2.2729048D-05 conv= 1.00D-05.
 RLE energy=       -0.2443627897
 DE(Corr)= -0.24436348     E(CORR)=     -33.885721790     Delta= 6.53D-07
 NORM(A)=   0.10467167D+01
 Iteration Nr.   8
 **********************
 DD1Dir will call FoFMem   1 times, MxPair=        72
 NAB=    36 NAA=     0 NBB=     0.
 A-vector RMS=  1.8722429D-06 Max=  7.4408574D-06 conv= 1.00D-05.
 RLE energy=       -0.2443628581
 DE(Corr)= -0.24436303     E(CORR)=     -33.885721340     Delta= 4.50D-07
 NORM(A)=   0.10467174D+01
 Iteration Nr.   9
 **********************
 DD1Dir will call FoFMem   1 times, MxPair=        72
 NAB=    36 NAA=     0 NBB=     0.
 A-vector RMS=  4.7020966D-07 Max=  1.9190221D-06 conv= 1.00D-05.
 RLE energy=       -0.2443631731
 DE(Corr)= -0.24436320     E(CORR)=     -33.885721508     Delta=-1.68D-07
 NORM(A)=   0.10467177D+01
 Iteration Nr.  10
 **********************
 DD1Dir will call FoFMem   1 times, MxPair=        72
 NAB=    36 NAA=     0 NBB=     0.
 A-vector RMS=  1.4545631D-07 Max=  5.5756300D-07 conv= 1.00D-05.
 RLE energy=       -0.2443633181
 DE(Corr)= -0.24436328     E(CORR)=     -33.885721597     Delta=-8.89D-08
 NORM(A)=   0.10467179D+01
 CI/CC converged in   10 iterations to DelEn=-8.89D-08 Conv= 1.00D-07 ErrA1= 1.45D-07 Conv= 1.00D-05
 Wavefunction amplitudes converged. E(Corr)=     -33.885721597    
 Largest amplitude= 4.35D-02
 IPart=  2 IA=    2   12.50% done.
 IPart=  4 IA=    3   24.17% done.
 IPart=  3 IA=    4   35.00% done.
 IPart=  3 IA=    5   45.00% done.
 IPart=  4 IA=    6   54.17% done.
 IPart=  2 IA=    7   62.50% done.
 IPart=  1 IA=    8   70.00% done.
 IPart=  4 IA=   10   82.50% done.
 IPart=  3 IA=   12   91.67% done.
 Time for triples=        0.25 seconds.
 T4(CCSD)= -0.32177275D-02
 T5(CCSD)=  0.54909359D-03
 CCSD(T)= -0.33888390231D+02
 Discarding MO integrals.
 Leave Link  913 at Sun Dec 10 06:44:37 2023, MaxMem=   536870912 cpu:               0.9 elap:               0.2
 (Enter /usr/site/hpc/x86_64/glibc-2.17/broadwell/gaussian/g16_a.03/pgi-16.5/g16/l601.exe)
 Copying SCF densities to generalized density rwf, IOpCl= 0 IROHF=0.

 **********************************************************************

            Population analysis using the SCF density.

 **********************************************************************

 Orbital symmetries:
       Occupied  (A') (A') (A') (A') (A') (A') (A") (A")
       Virtual   (A') (A') (A') (A') (A") (A') (A') (A") (A') (A')
                 (A') (A') (A') (A') (A') (A')
 The electronic state is 1-A'.
 Alpha  occ. eigenvalues --   -1.33916  -1.32561  -0.69539  -0.68179  -0.54360
 Alpha  occ. eigenvalues --   -0.50598  -0.48486  -0.46920
 Alpha virt. eigenvalues --    0.20514   0.24152   0.31729   0.32742   0.78894
 Alpha virt. eigenvalues --    0.81716   0.83137   0.87293   0.94856   1.15626
 Alpha virt. eigenvalues --    1.18695   1.22540   1.23396   1.26922   2.58850
 Alpha virt. eigenvalues --    2.67915
          Condensed to atoms (all electrons):
               1          2          3          4          5          6
     1  O    6.224930   0.251437   0.266037  -0.022136   0.000235   0.002262
     2  H    0.251437   0.421886  -0.024116   0.000689  -0.000002  -0.000165
     3  H    0.266037  -0.024116   0.387394   0.000879  -0.000007  -0.000064
     4  O   -0.022136   0.000689   0.000879   6.214245   0.246584   0.263559
     5  H    0.000235  -0.000002  -0.000007   0.246584   0.432687  -0.024407
     6  H    0.002262  -0.000165  -0.000064   0.263559  -0.024407   0.397287
 Mulliken charges:
               1
     1  O   -0.722765
     2  H    0.350270
     3  H    0.369877
     4  O   -0.703819
     5  H    0.344909
     6  H    0.361528
 Sum of Mulliken charges =  -0.00000
 Mulliken charges with hydrogens summed into heavy atoms:
               1
     1  O   -0.002618
     4  O    0.002618
 Electronic spatial extent (au):  <R**2>=            155.9694
 Charge=             -0.0000 electrons
 Dipole moment (field-independent basis, Debye):
    X=             -1.7668    Y=             -0.8274    Z=              0.0000  Tot=              1.9509
 Quadrupole moment (field-independent basis, Debye-Ang):
   XX=             -9.1733   YY=              0.4896   ZZ=            -14.9891
   XY=             -1.8460   XZ=              0.0000   YZ=              0.0000
 Traceless Quadrupole moment (field-independent basis, Debye-Ang):
   XX=             -1.2824   YY=              8.3805   ZZ=             -7.0982
   XY=             -1.8460   XZ=              0.0000   YZ=              0.0000
 Octapole moment (field-independent basis, Debye-Ang**2):
  XXX=             -1.7902  YYY=             -0.0411  ZZZ=              0.0000  XYY=             -0.2070
  XXY=             -2.9232  XXZ=              0.0000  XZZ=             -0.3191  YZZ=             -0.1610
  YYZ=              0.0000  XYZ=              0.0000
 Hexadecapole moment (field-independent basis, Debye-Ang**3):
 XXXX=            -12.0401 YYYY=            -91.8600 ZZZZ=            -12.2241 XXXY=             -1.5360
 XXXZ=              0.0000 YYYX=              1.7117 YYYZ=              0.0000 ZZZX=              0.0000
 ZZZY=              0.0000 XXYY=            -20.0215 XXZZ=             -4.6008 YYZZ=            -34.2056
 XXYZ=              0.0000 YYXZ=              0.0000 ZZXY=              0.2584
 N-N= 2.504035410219D+01 E-N=-1.320354306322D+02  KE= 2.676318787499D+01
 Symmetry A'   KE= 1.788196920123D+01
 Symmetry A"   KE= 8.881218673767D+00
 Leave Link  601 at Sun Dec 10 06:44:37 2023, MaxMem=   536870912 cpu:               0.1 elap:               0.0
 (Enter /usr/site/hpc/x86_64/glibc-2.17/broadwell/gaussian/g16_a.03/pgi-16.5/g16/l9999.exe)
 1\1\GINC-N033\SP\RCCSD(T)-FC\CEP-31G\H4O2\ROOT\10-Dec-2023\0\\#p CCSD(
 T)/CEP-31G\\H2O_H2O_1062\\0,1\O,0,0.,-0.009833,0.\H,0,-0.799571,-0.580
 965,0.\H,0,0.799571,-0.580965,0.\O,0,-0.006953,2.711341,0.\H,0,0.15457
 8,3.680575,0.\H,0,-0.976187,2.54981,0.\\Version=ES64L-G16RevA.03\State
 =1-A'\HF=-33.6413583\MP2=-33.8710305\MP3=-33.8766405\MP4D=-33.8818895\
 MP4DQ=-33.8825259\MP4SDQ=-33.8846497\CCSD=-33.8857216\CCSD(T)=-33.8883
 902\RMSD=9.675e-10\PG=CS [SG(H4O2)]\\@


 ERWIN WITH HIS PSI CAN DO
 CALCULATIONS QUITE A FEW.
 BUT ONE THING HAS NOT BEEN SEEN
 JUST WHAT DOES PSI REALLY MEAN.
 -- WALTER HUCKEL, TRANS. BY FELIX BLOCH
 Job cpu time:       0 days  0 hours  0 minutes  3.3 seconds.
 Elapsed time:       0 days  0 hours  0 minutes  1.0 seconds.
 File lengths (MBytes):  RWF=     72 Int=      0 D2E=      0 Chk=      8 Scr=      8
 Normal termination of Gaussian 16 at Sun Dec 10 06:44:37 2023.
