 Entering Gaussian System, Link 0=g16
 Input=H2O_H2O_411.com
 Output=H2O_H2O_411.log
 Initial command:
 /usr/site/hpc/x86_64/glibc-2.17/broadwell/gaussian/g16_a.03/pgi-16.5/g16/l1.exe "/gpfs/gpfs1/scratch/c7441090/OO Coord/Gau-1195930.inp" -scrdir="/gpfs/gpfs1/scratch/c7441090/OO Coord/"
 Entering Link 1 = /usr/site/hpc/x86_64/glibc-2.17/broadwell/gaussian/g16_a.03/pgi-16.5/g16/l1.exe PID=   1195934.
  
 Copyright (c) 1988,1990,1992,1993,1995,1998,2003,2009,2016,
            Gaussian, Inc.  All Rights Reserved.
  
 This is part of the Gaussian(R) 16 program.  It is based on
 the Gaussian(R) 09 system (copyright 2009, Gaussian, Inc.),
 the Gaussian(R) 03 system (copyright 2003, Gaussian, Inc.),
 the Gaussian(R) 98 system (copyright 1998, Gaussian, Inc.),
 the Gaussian(R) 94 system (copyright 1995, Gaussian, Inc.),
 the Gaussian 92(TM) system (copyright 1992, Gaussian, Inc.),
 the Gaussian 90(TM) system (copyright 1990, Gaussian, Inc.),
 the Gaussian 88(TM) system (copyright 1988, Gaussian, Inc.),
 the Gaussian 86(TM) system (copyright 1986, Carnegie Mellon
 University), and the Gaussian 82(TM) system (copyright 1983,
 Carnegie Mellon University). Gaussian is a federally registered
 trademark of Gaussian, Inc.
  
 This software contains proprietary and confidential information,
 including trade secrets, belonging to Gaussian, Inc.
  
 This software is provided under written license and may be
 used, copied, transmitted, or stored only in accord with that
 written license.
  
 The following legend is applicable only to US Government
 contracts under FAR:
  
                    RESTRICTED RIGHTS LEGEND
  
 Use, reproduction and disclosure by the US Government is
 subject to restrictions as set forth in subparagraphs (a)
 and (c) of the Commercial Computer Software - Restricted
 Rights clause in FAR 52.227-19.
  
 Gaussian, Inc.
 340 Quinnipiac St., Bldg. 40, Wallingford CT 06492
  
  
 ---------------------------------------------------------------
 Warning -- This program may not be used in any manner that
 competes with the business of Gaussian, Inc. or will provide
 assistance to any competitor of Gaussian, Inc.  The licensee
 of this program is prohibited from giving any competitor of
 Gaussian, Inc. access to this program.  By using this program,
 the user acknowledges that Gaussian, Inc. is engaged in the
 business of creating and licensing software in the field of
 computational chemistry and represents and warrants to the
 licensee that it is not a competitor of Gaussian, Inc. and that
 it will not use this program in any manner prohibited above.
 ---------------------------------------------------------------
  

 Cite this work as:
 Gaussian 16, Revision A.03,
 M. J. Frisch, G. W. Trucks, H. B. Schlegel, G. E. Scuseria, 
 M. A. Robb, J. R. Cheeseman, G. Scalmani, V. Barone, 
 G. A. Petersson, H. Nakatsuji, X. Li, M. Caricato, A. V. Marenich, 
 J. Bloino, B. G. Janesko, R. Gomperts, B. Mennucci, H. P. Hratchian, 
 J. V. Ortiz, A. F. Izmaylov, J. L. Sonnenberg, D. Williams-Young, 
 F. Ding, F. Lipparini, F. Egidi, J. Goings, B. Peng, A. Petrone, 
 T. Henderson, D. Ranasinghe, V. G. Zakrzewski, J. Gao, N. Rega, 
 G. Zheng, W. Liang, M. Hada, M. Ehara, K. Toyota, R. Fukuda, 
 J. Hasegawa, M. Ishida, T. Nakajima, Y. Honda, O. Kitao, H. Nakai, 
 T. Vreven, K. Throssell, J. A. Montgomery, Jr., J. E. Peralta, 
 F. Ogliaro, M. J. Bearpark, J. J. Heyd, E. N. Brothers, K. N. Kudin, 
 V. N. Staroverov, T. A. Keith, R. Kobayashi, J. Normand, 
 K. Raghavachari, A. P. Rendell, J. C. Burant, S. S. Iyengar, 
 J. Tomasi, M. Cossi, J. M. Millam, M. Klene, C. Adamo, R. Cammi, 
 J. W. Ochterski, R. L. Martin, K. Morokuma, O. Farkas, 
 J. B. Foresman, and D. J. Fox, Gaussian, Inc., Wallingford CT, 2016.
 
 ******************************************
 Gaussian 16:  ES64L-G16RevA.03 25-Dec-2016
                10-Dec-2023 
 ******************************************
 %NProcShared=4
 Will use up to    4 processors via shared memory.
 %Mem=4GB
 %Chk=H2O_H2O_411.chk
 ------------------
 #p CCSD(T)/CEP-31G
 ------------------
 1/38=1,172=1/1;
 2/12=2,17=6,18=5,40=1/2;
 3/5=9,6=1,11=9,25=1,30=1/1,2,3;
 4//1;
 5/5=2,38=5/2;
 8/6=4,9=120000,10=1/1,4;
 9/5=7,14=2/13;
 6/7=2,8=2,9=2,10=2/1;
 99/5=1,9=1/99;
 Leave Link    1 at Sun Dec 10 06:32:26 2023, MaxMem=   536870912 cpu:               0.2 elap:               0.1
 (Enter /usr/site/hpc/x86_64/glibc-2.17/broadwell/gaussian/g16_a.03/pgi-16.5/g16/l101.exe)
 -----------
 H2O_H2O_411
 -----------
 Symbolic Z-matrix:
 Charge =  0 Multiplicity = 1
 O                     0.       -0.00983   0. 
 H                    -0.79957  -0.58097   0. 
 H                     0.79957  -0.58097   0. 
 O                    -0.00648   2.02039   0. 
 H                     0.21809   2.97699   0. 
 H                    -0.98421   1.9226    0. 
 
 ITRead=  0  0  0  0  0  0
 MicOpt= -1 -1 -1 -1 -1 -1
 NAtoms=      6 NQM=        6 NQMF=       0 NMMI=      0 NMMIF=      0
                NMic=       0 NMicF=      0.
                    Isotopes and Nuclear Properties:
 (Nuclear quadrupole moments (NQMom) in fm**2, nuclear magnetic moments (NMagM)
  in nuclear magnetons)

  Atom         1           2           3           4           5           6
 IAtWgt=          16           1           1          16           1           1
 AtmWgt=  15.9949146   1.0078250   1.0078250  15.9949146   1.0078250   1.0078250
 NucSpn=           0           1           1           0           1           1
 AtZEff=  -0.0000000  -0.0000000  -0.0000000  -0.0000000  -0.0000000  -0.0000000
 NQMom=    0.0000000   0.0000000   0.0000000   0.0000000   0.0000000   0.0000000
 NMagM=    0.0000000   2.7928460   2.7928460   0.0000000   2.7928460   2.7928460
 AtZNuc=   8.0000000   1.0000000   1.0000000   8.0000000   1.0000000   1.0000000
 Leave Link  101 at Sun Dec 10 06:32:26 2023, MaxMem=   536870912 cpu:               0.3 elap:               0.1
 (Enter /usr/site/hpc/x86_64/glibc-2.17/broadwell/gaussian/g16_a.03/pgi-16.5/g16/l202.exe)
                          Input orientation:                          
 ---------------------------------------------------------------------
 Center     Atomic      Atomic             Coordinates (Angstroms)
 Number     Number       Type             X           Y           Z
 ---------------------------------------------------------------------
      1          8           0        0.000000   -0.009833    0.000000
      2          1           0       -0.799571   -0.580965    0.000000
      3          1           0        0.799571   -0.580965    0.000000
      4          8           0       -0.006483    2.020394    0.000000
      5          1           0        0.218093    2.976988    0.000000
      6          1           0       -0.984207    1.922599    0.000000
 ---------------------------------------------------------------------
                    Distance matrix (angstroms):
                    1          2          3          4          5
     1  O    0.000000
     2  H    0.982601   0.000000
     3  H    0.982601   1.599142   0.000000
     4  O    2.030237   2.719569   2.723379   0.000000
     5  H    2.994773   3.700631   3.605156   0.982602   0.000000
     6  H    2.168630   2.510363   3.074036   0.982603   1.599144
                    6
     6  H    0.000000
 Stoichiometry    H4O2
 Framework group  CS[SG(H4O2)]
 Deg. of freedom     9
 Full point group                 CS      NOp   2
 Largest Abelian subgroup         CS      NOp   2
 Largest concise Abelian subgroup C1      NOp   1
                         Standard orientation:                         
 ---------------------------------------------------------------------
 Center     Atomic      Atomic             Coordinates (Angstroms)
 Number     Number       Type             X           Y           Z
 ---------------------------------------------------------------------
      1          8           0        0.037702   -1.001066    0.000000
      2          1           0       -0.763688   -1.569642    0.000000
      3          1           0        0.835446   -1.574748    0.000000
      4          8           0        0.037702    1.029172    0.000000
      5          1           0        0.265332    1.985044    0.000000
      6          1           0       -0.940329    0.934499    0.000000
 ---------------------------------------------------------------------
 Rotational constants (GHZ):         221.3044759          11.8056538          11.2077670
 Leave Link  202 at Sun Dec 10 06:32:26 2023, MaxMem=   536870912 cpu:               0.0 elap:               0.0
 (Enter /usr/site/hpc/x86_64/glibc-2.17/broadwell/gaussian/g16_a.03/pgi-16.5/g16/l301.exe)
 Standard basis: CEP-31G (6D, 10F)
 Ernie: Thresh=  0.10000D-02 Tol=  0.10000D-05 Strict=F.
 There are    20 symmetry adapted cartesian basis functions of A'  symmetry.
 There are     4 symmetry adapted cartesian basis functions of A"  symmetry.
 There are    20 symmetry adapted basis functions of A'  symmetry.
 There are     4 symmetry adapted basis functions of A"  symmetry.
    24 basis functions,    48 primitive gaussians,    24 cartesian basis functions
     8 alpha electrons        8 beta electrons
       nuclear repulsion energy        28.5006304684 Hartrees.
 IExCor=    0 DFT=F Ex=HF Corr=None ExCW=0 ScaHFX=  1.000000
 ScaDFX=  1.000000  1.000000  1.000000  1.000000 ScalE2=  1.000000  1.000000
 IRadAn=      5 IRanWt=     -1 IRanGd=            0 ICorTp=0 IEmpDi=  4
 NAtoms=    6 NActive=    6 NUniq=    6 SFac= 1.00D+00 NAtFMM=   60 NAOKFM=F Big=F
 Integral buffers will be    131072 words long.
 Raffenetti 1 integral format.
 Two-electron integral symmetry is turned on.
 Leave Link  301 at Sun Dec 10 06:32:26 2023, MaxMem=   536870912 cpu:               0.2 elap:               0.1
 (Enter /usr/site/hpc/x86_64/glibc-2.17/broadwell/gaussian/g16_a.03/pgi-16.5/g16/l302.exe)
 NPDir=0 NMtPBC=     1 NCelOv=     1 NCel=       1 NClECP=     1 NCelD=      1
         NCelK=      1 NCelE2=     1 NClLst=     1 CellRange=     0.0.
 One-electron integrals computed using PRISM.
 One-electron integral symmetry used in STVInt
   2 Symmetry operations used in ECPInt.
 ECPInt:  NShTT=      78 NPrTT=     318 LenC2=      79 LenP2D=     293.
 LDataN:  DoStor=T MaxTD1= 2 Len=   12
 NBasis=    24 RedAO= T EigKep=  3.64D-02  NBF=    20     4
 NBsUse=    24 1.00D-06 EigRej= -1.00D+00 NBFU=    20     4
 Leave Link  302 at Sun Dec 10 06:32:27 2023, MaxMem=   536870912 cpu:               0.3 elap:               0.1
 (Enter /usr/site/hpc/x86_64/glibc-2.17/broadwell/gaussian/g16_a.03/pgi-16.5/g16/l303.exe)
 DipDrv:  MaxL=1.
 Leave Link  303 at Sun Dec 10 06:32:27 2023, MaxMem=   536870912 cpu:               0.1 elap:               0.0
 (Enter /usr/site/hpc/x86_64/glibc-2.17/broadwell/gaussian/g16_a.03/pgi-16.5/g16/l401.exe)
 ExpMin= 1.78D-01 ExpMax= 1.92D+01 ExpMxC= 1.92D+01 IAcc=3 IRadAn=         5 AccDes= 0.00D+00
 Harris functional with IExCor=  205 and IRadAn=       5 diagonalized for initial guess.
 HarFok:  IExCor=  205 AccDes= 0.00D+00 IRadAn=         5 IDoV= 1 UseB2=F ITyADJ=14
 ICtDFT=  3500011 ScaDFX=  1.000000  1.000000  1.000000  1.000000
 FoFCou: FMM=F IPFlag=           0 FMFlag=      100000 FMFlg1=           0
         NFxFlg=           0 DoJE=T BraDBF=F KetDBF=T FulRan=T
         wScrn=  0.000000 ICntrl=       500 IOpCl=  0 I1Cent=   200000004 NGrid=           0
         NMat0=    1 NMatS0=      1 NMatT0=    0 NMatD0=    1 NMtDS0=    0 NMtDT0=    0
 Petite list used in FoFCou.
 Harris En= -34.4542687128973    
 JPrj=0 DoOrth=F DoCkMO=F.
 Initial guess orbital symmetries:
       Occupied  (A') (A') (A') (A') (A') (A") (A') (A")
       Virtual   (A') (A') (A') (A') (A") (A') (A") (A') (A') (A')
                 (A') (A') (A') (A') (A') (A')
 The electronic state of the initial guess is 1-A'.
 Leave Link  401 at Sun Dec 10 06:32:27 2023, MaxMem=   536870912 cpu:               0.4 elap:               0.1
 (Enter /usr/site/hpc/x86_64/glibc-2.17/broadwell/gaussian/g16_a.03/pgi-16.5/g16/l502.exe)
 Keep R1 ints in memory in symmetry-blocked form, NReq=852745.
 FoFCou: FMM=F IPFlag=           0 FMFlag=           0 FMFlg1=           0
         NFxFlg=           0 DoJE=F BraDBF=F KetDBF=F FulRan=T
         wScrn=  0.000000 ICntrl=       600 IOpCl=  0 I1Cent=           0 NGrid=           0
         NMat0=    1 NMatS0=    300 NMatT0=    0 NMatD0=    1 NMtDS0=    0 NMtDT0=    0
 Petite list used in FoFCou.
 Closed shell SCF:
 Using DIIS extrapolation, IDIIS=  1040.
 NGot=   536870912 LenX=   536840576 LenY=   536839559
 Requested convergence on RMS density matrix=1.00D-08 within 128 cycles.
 Requested convergence on MAX density matrix=1.00D-06.
 Requested convergence on             energy=1.00D-06.
 No special actions if energy rises.

 Cycle   1  Pass 1  IDiag  1:
 E= -33.4893450267198    
 DIIS: error= 6.20D-02 at cycle   1 NSaved=   1.
 NSaved= 1 IEnMin= 1 EnMin= -33.4893450267198     IErMin= 1 ErrMin= 6.20D-02
 ErrMax= 6.20D-02  0.00D+00 EMaxC= 1.00D-01 BMatC= 1.21D-01 BMatP= 1.21D-01
 IDIUse=3 WtCom= 3.80D-01 WtEn= 6.20D-01
 Coeff-Com:  0.100D+01
 Coeff-En:   0.100D+01
 Coeff:      0.100D+01
 Gap=     0.529 Goal=   None    Shift=    0.000
 GapD=    0.529 DampG=2.000 DampE=0.500 DampFc=1.0000 IDamp=-1.
 RMSDP=1.95D-02 MaxDP=1.33D-01              OVMax= 1.23D-01

 Cycle   2  Pass 1  IDiag  1:
 E= -33.5621271192993     Delta-E=       -0.072782092579 Rises=F Damp=F
 DIIS: error= 4.34D-02 at cycle   2 NSaved=   2.
 NSaved= 2 IEnMin= 2 EnMin= -33.5621271192993     IErMin= 2 ErrMin= 4.34D-02
 ErrMax= 4.34D-02  0.00D+00 EMaxC= 1.00D-01 BMatC= 5.02D-02 BMatP= 1.21D-01
 IDIUse=3 WtCom= 5.66D-01 WtEn= 4.34D-01
 Coeff-Com:  0.389D+00 0.611D+00
 Coeff-En:   0.137D+00 0.863D+00
 Coeff:      0.280D+00 0.720D+00
 Gap=     0.657 Goal=   None    Shift=    0.000
 RMSDP=8.66D-03 MaxDP=6.27D-02 DE=-7.28D-02 OVMax= 4.88D-02

 Cycle   3  Pass 1  IDiag  1:
 E= -33.6014079150743     Delta-E=       -0.039280795775 Rises=F Damp=F
 DIIS: error= 7.28D-03 at cycle   3 NSaved=   3.
 NSaved= 3 IEnMin= 3 EnMin= -33.6014079150743     IErMin= 3 ErrMin= 7.28D-03
 ErrMax= 7.28D-03  0.00D+00 EMaxC= 1.00D-01 BMatC= 1.44D-03 BMatP= 5.02D-02
 IDIUse=3 WtCom= 9.27D-01 WtEn= 7.28D-02
 Coeff-Com: -0.108D+00 0.150D-01 0.109D+01
 Coeff-En:   0.000D+00 0.000D+00 0.100D+01
 Coeff:     -0.101D+00 0.139D-01 0.109D+01
 Gap=     0.644 Goal=   None    Shift=    0.000
 RMSDP=1.45D-03 MaxDP=1.07D-02 DE=-3.93D-02 OVMax= 9.90D-03

 Cycle   4  Pass 1  IDiag  1:
 E= -33.6027905140181     Delta-E=       -0.001382598944 Rises=F Damp=F
 DIIS: error= 9.49D-04 at cycle   4 NSaved=   4.
 NSaved= 4 IEnMin= 4 EnMin= -33.6027905140181     IErMin= 4 ErrMin= 9.49D-04
 ErrMax= 9.49D-04  0.00D+00 EMaxC= 1.00D-01 BMatC= 8.70D-06 BMatP= 1.44D-03
 IDIUse=3 WtCom= 9.91D-01 WtEn= 9.49D-03
 Coeff-Com:  0.395D-01-0.292D-01-0.472D+00 0.146D+01
 Coeff-En:   0.000D+00 0.000D+00 0.000D+00 0.100D+01
 Coeff:      0.391D-01-0.289D-01-0.468D+00 0.146D+01
 Gap=     0.645 Goal=   None    Shift=    0.000
 RMSDP=2.69D-04 MaxDP=2.44D-03 DE=-1.38D-03 OVMax= 1.27D-03

 Cycle   5  Pass 1  IDiag  1:
 E= -33.6028082508151     Delta-E=       -0.000017736797 Rises=F Damp=F
 DIIS: error= 8.09D-05 at cycle   5 NSaved=   5.
 NSaved= 5 IEnMin= 5 EnMin= -33.6028082508151     IErMin= 5 ErrMin= 8.09D-05
 ErrMax= 8.09D-05  0.00D+00 EMaxC= 1.00D-01 BMatC= 7.90D-08 BMatP= 8.70D-06
 IDIUse=1 WtCom= 1.00D+00 WtEn= 0.00D+00
 Coeff-Com: -0.682D-02 0.510D-02 0.808D-01-0.320D+00 0.124D+01
 Coeff:     -0.682D-02 0.510D-02 0.808D-01-0.320D+00 0.124D+01
 Gap=     0.645 Goal=   None    Shift=    0.000
 RMSDP=3.03D-05 MaxDP=2.37D-04 DE=-1.77D-05 OVMax= 2.09D-04

 Cycle   6  Pass 1  IDiag  1:
 E= -33.6028084591072     Delta-E=       -0.000000208292 Rises=F Damp=F
 DIIS: error= 1.58D-05 at cycle   6 NSaved=   6.
 NSaved= 6 IEnMin= 6 EnMin= -33.6028084591072     IErMin= 6 ErrMin= 1.58D-05
 ErrMax= 1.58D-05  0.00D+00 EMaxC= 1.00D-01 BMatC= 3.48D-09 BMatP= 7.90D-08
 IDIUse=1 WtCom= 1.00D+00 WtEn= 0.00D+00
 Coeff-Com:  0.553D-03-0.204D-03-0.530D-02 0.284D-01-0.245D+00 0.122D+01
 Coeff:      0.553D-03-0.204D-03-0.530D-02 0.284D-01-0.245D+00 0.122D+01
 Gap=     0.645 Goal=   None    Shift=    0.000
 RMSDP=6.30D-06 MaxDP=5.26D-05 DE=-2.08D-07 OVMax= 5.51D-05

 Cycle   7  Pass 1  IDiag  1:
 E= -33.6028084683408     Delta-E=       -0.000000009234 Rises=F Damp=F
 DIIS: error= 3.76D-06 at cycle   7 NSaved=   7.
 NSaved= 7 IEnMin= 7 EnMin= -33.6028084683408     IErMin= 7 ErrMin= 3.76D-06
 ErrMax= 3.76D-06  0.00D+00 EMaxC= 1.00D-01 BMatC= 5.47D-10 BMatP= 3.48D-09
 IDIUse=1 WtCom= 1.00D+00 WtEn= 0.00D+00
 Coeff-Com:  0.733D-03-0.508D-03-0.840D-02 0.336D-01-0.145D+00 0.210D+00
 Coeff-Com:  0.909D+00
 Coeff:      0.733D-03-0.508D-03-0.840D-02 0.336D-01-0.145D+00 0.210D+00
 Coeff:      0.909D+00
 Gap=     0.645 Goal=   None    Shift=    0.000
 RMSDP=1.75D-06 MaxDP=1.06D-05 DE=-9.23D-09 OVMax= 1.44D-05

 Cycle   8  Pass 1  IDiag  1:
 E= -33.6028084693609     Delta-E=       -0.000000001020 Rises=F Damp=F
 DIIS: error= 1.51D-06 at cycle   8 NSaved=   8.
 NSaved= 8 IEnMin= 8 EnMin= -33.6028084693609     IErMin= 8 ErrMin= 1.51D-06
 ErrMax= 1.51D-06  0.00D+00 EMaxC= 1.00D-01 BMatC= 5.94D-11 BMatP= 5.47D-10
 IDIUse=1 WtCom= 1.00D+00 WtEn= 0.00D+00
 Coeff-Com:  0.255D-04-0.665D-04-0.531D-03 0.569D-03 0.241D-01-0.181D+00
 Coeff-Com:  0.236D-01 0.113D+01
 Coeff:      0.255D-04-0.665D-04-0.531D-03 0.569D-03 0.241D-01-0.181D+00
 Coeff:      0.236D-01 0.113D+01
 Gap=     0.645 Goal=   None    Shift=    0.000
 RMSDP=9.18D-07 MaxDP=6.96D-06 DE=-1.02D-09 OVMax= 7.11D-06

 Cycle   9  Pass 1  IDiag  1:
 E= -33.6028084695181     Delta-E=       -0.000000000157 Rises=F Damp=F
 DIIS: error= 2.01D-07 at cycle   9 NSaved=   9.
 NSaved= 9 IEnMin= 9 EnMin= -33.6028084695181     IErMin= 9 ErrMin= 2.01D-07
 ErrMax= 2.01D-07  0.00D+00 EMaxC= 1.00D-01 BMatC= 1.51D-12 BMatP= 5.94D-11
 IDIUse=1 WtCom= 1.00D+00 WtEn= 0.00D+00
 Coeff-Com:  0.622D-05 0.875D-05-0.418D-05 0.216D-03-0.659D-02 0.511D-01
 Coeff-Com: -0.358D-01-0.352D+00 0.134D+01
 Coeff:      0.622D-05 0.875D-05-0.418D-05 0.216D-03-0.659D-02 0.511D-01
 Coeff:     -0.358D-01-0.352D+00 0.134D+01
 Gap=     0.645 Goal=   None    Shift=    0.000
 RMSDP=2.12D-07 MaxDP=1.02D-06 DE=-1.57D-10 OVMax= 1.46D-06

 Cycle  10  Pass 1  IDiag  1:
 E= -33.6028084695230     Delta-E=       -0.000000000005 Rises=F Damp=F
 DIIS: error= 1.64D-08 at cycle  10 NSaved=  10.
 NSaved=10 IEnMin=10 EnMin= -33.6028084695230     IErMin=10 ErrMin= 1.64D-08
 ErrMax= 1.64D-08  0.00D+00 EMaxC= 1.00D-01 BMatC= 1.48D-14 BMatP= 1.51D-12
 IDIUse=1 WtCom= 1.00D+00 WtEn= 0.00D+00
 Coeff-Com:  0.274D-06-0.315D-05-0.177D-04 0.359D-04 0.105D-02-0.104D-01
 Coeff-Com:  0.915D-02 0.750D-01-0.363D+00 0.129D+01
 Coeff:      0.274D-06-0.315D-05-0.177D-04 0.359D-04 0.105D-02-0.104D-01
 Coeff:      0.915D-02 0.750D-01-0.363D+00 0.129D+01
 Gap=     0.645 Goal=   None    Shift=    0.000
 RMSDP=2.20D-08 MaxDP=1.39D-07 DE=-4.91D-12 OVMax= 1.32D-07

 Cycle  11  Pass 1  IDiag  1:
 E= -33.6028084695230     Delta-E=       -0.000000000000 Rises=F Damp=F
 DIIS: error= 2.01D-09 at cycle  11 NSaved=  11.
 NSaved=11 IEnMin=11 EnMin= -33.6028084695230     IErMin=11 ErrMin= 2.01D-09
 ErrMax= 2.01D-09  0.00D+00 EMaxC= 1.00D-01 BMatC= 1.56D-16 BMatP= 1.48D-14
 IDIUse=1 WtCom= 1.00D+00 WtEn= 0.00D+00
 Coeff-Com: -0.206D-06 0.826D-06 0.580D-05-0.153D-04-0.228D-03 0.250D-02
 Coeff-Com: -0.245D-02-0.179D-01 0.920D-01-0.372D+00 0.130D+01
 Coeff:     -0.206D-06 0.826D-06 0.580D-05-0.153D-04-0.228D-03 0.250D-02
 Coeff:     -0.245D-02-0.179D-01 0.920D-01-0.372D+00 0.130D+01
 Gap=     0.645 Goal=   None    Shift=    0.000
 RMSDP=1.93D-09 MaxDP=1.26D-08 DE=-2.84D-14 OVMax= 1.26D-08

 SCF Done:  E(RHF) =  -33.6028084695     A.U. after   11 cycles
            NFock= 11  Conv=0.19D-08     -V/T= 2.2522
 KE= 2.683543084256D+01 PE=-1.391196230112D+02 EE= 5.018075323068D+01
 Leave Link  502 at Sun Dec 10 06:32:27 2023, MaxMem=   536870912 cpu:               0.3 elap:               0.1
 (Enter /usr/site/hpc/x86_64/glibc-2.17/broadwell/gaussian/g16_a.03/pgi-16.5/g16/l801.exe)
 Windowed orbitals will be sorted by symmetry type.
 Range of M.O.s used for correlation:     1    24
 NBasis=    24 NAE=     8 NBE=     8 NFC=     0 NFV=     0
 NROrb=     24 NOA=     8 NOB=     8 NVA=    16 NVB=    16
 Leave Link  801 at Sun Dec 10 06:32:27 2023, MaxMem=   536870912 cpu:               0.1 elap:               0.0
 (Enter /usr/site/hpc/x86_64/glibc-2.17/broadwell/gaussian/g16_a.03/pgi-16.5/g16/l804.exe)
 Closed-shell transformation, MDV=   536870912 ITran=4 ISComp=2.
 Unit  1 TFree=       1025975 TCopy=        210600.
 Semi-Direct transformation.
 ModeAB=           2 MOrb=             8 LenV=     536741548
 LASXX=        22470 LTotXX=       22470 LenRXX=       22470
 LTotAB=       26208 MaxLAS=       57600 LenRXY=       57600
 NonZer=       62208 LenScr=      524288 LnRSAI=           0
 LnScr1=           0 LExtra=           0 Total=       604358
 MaxDsk=          -1 SrtSym=           F ITran=            4
 DoSDTr:  NPSUse=  4
 JobTyp=0 Pass  1:  I=   1 to   8.
 (rs|ai) integrals will be sorted in core.
 Complete sort for first half transformation.
 First half transformation complete.
 Complete sort for second half transformation.
 Second half transformation complete.
 Spin components of T(2) and E(2):
     alpha-alpha T2 =       0.9342162079D-02 E2=     -0.2672546147D-01
     alpha-beta  T2 =       0.6080632209D-01 E2=     -0.1786742593D+00
     beta-beta   T2 =       0.9342162079D-02 E2=     -0.2672546147D-01
 ANorm=    0.1038985393D+01
 E2 =    -0.2321251822D+00 EUMP2 =    -0.33834933651761D+02
 Leave Link  804 at Sun Dec 10 06:32:27 2023, MaxMem=   536870912 cpu:               0.2 elap:               0.1
 (Enter /usr/site/hpc/x86_64/glibc-2.17/broadwell/gaussian/g16_a.03/pgi-16.5/g16/l913.exe)
 CIDS:  MDV=   536870912.
 IFCWin=0 IBDFC=1 NFBD=     0     0 NFCmp=     0     0 NFFFC=     0     0
 Using DD3R+UMP44R for 1st iteration.
 Using DD4RQ for 2nd and later iterations.
 Keep R2 and R3 ints in memory in symmetry-blocked form, NReq=865353.
 FoFCou: FMM=F IPFlag=           0 FMFlag=           0 FMFlg1=           0
         NFxFlg=           0 DoJE=F BraDBF=F KetDBF=F FulRan=T
         wScrn=  0.000000 ICntrl=       600 IOpCl=  0 I1Cent=           0 NGrid=           0
         NMat0=    1 NMatS0=    300 NMatT0=    0 NMatD0=    1 NMtDS0=    0 NMtDT0=    0
 Petite list used in FoFCou.
 CIDS: In Core Option IDoMem=           1.
 CCSD(T)
 =======
 Iterations=  50 Convergence= 0.100D-06
 Produce multiple copies of IABC intergrals
 Iteration Nr.   1
 **********************
 DD1Dir will call FoFMem   1 times, MxPair=        72
 NAB=    36 NAA=     0 NBB=     0.
 MP4(R+Q)= -0.43336750D-03
 Maximum subspace dimension=  5
 A-vector RMS=  6.3909207D-03 Max=  1.8214118D-02 conv= 1.00D-05.
 RLE energy=       -0.2376985717
 E3=       -0.52930637D-02        EUMP3=      -0.33840226715D+02
 E4(DQ)=   -0.57701789D-02        UMP4(DQ)=   -0.33845996894D+02
 E4(SDQ)=  -0.80561113D-02        UMP4(SDQ)=  -0.33848282827D+02
 VARIATIONAL ENERGIES WITH THE FIRST-ORDER WAVEFUNCTION:
 DE(Corr)= -0.23756825     E(Corr)=     -33.840376715    
 NORM(A)=   0.10425299D+01
 Iteration Nr.   2
 **********************
 DD1Dir will call FoFMem   1 times, MxPair=        72
 NAB=    36 NAA=     0 NBB=     0.
 A-vector RMS=  1.0964407D-03 Max=  2.4806811D-03 conv= 1.00D-05.
 RLE energy=       -0.2457921838
 DE(Corr)= -0.24386630     E(CORR)=     -33.846674769     Delta=-6.30D-03
 NORM(A)=   0.10466512D+01
 Iteration Nr.   3
 **********************
 DD1Dir will call FoFMem   1 times, MxPair=        72
 NAB=    36 NAA=     0 NBB=     0.
 A-vector RMS=  6.5911579D-04 Max=  3.0133444D-03 conv= 1.00D-05.
 RLE energy=       -0.2463999513
 DE(Corr)= -0.24586638     E(CORR)=     -33.848674847     Delta=-2.00D-03
 NORM(A)=   0.10474149D+01
 Iteration Nr.   4
 **********************
 DD1Dir will call FoFMem   1 times, MxPair=        72
 NAB=    36 NAA=     0 NBB=     0.
 A-vector RMS=  1.5504162D-04 Max=  4.8676739D-04 conv= 1.00D-05.
 RLE energy=       -0.2464670747
 DE(Corr)= -0.24641721     E(CORR)=     -33.849225676     Delta=-5.51D-04
 NORM(A)=   0.10475599D+01
 Iteration Nr.   5
 **********************
 DD1Dir will call FoFMem   1 times, MxPair=        72
 NAB=    36 NAA=     0 NBB=     0.
 A-vector RMS=  7.8470784D-05 Max=  3.7045413D-04 conv= 1.00D-05.
 RLE energy=       -0.2464673919
 DE(Corr)= -0.24646079     E(CORR)=     -33.849269256     Delta=-4.36D-05
 NORM(A)=   0.10475944D+01
 Iteration Nr.   6
 **********************
 DD1Dir will call FoFMem   1 times, MxPair=        72
 NAB=    36 NAA=     0 NBB=     0.
 A-vector RMS=  2.6918201D-05 Max=  9.3120053D-05 conv= 1.00D-05.
 RLE energy=       -0.2464593958
 DE(Corr)= -0.24646549     E(CORR)=     -33.849273964     Delta=-4.71D-06
 NORM(A)=   0.10476032D+01
 Iteration Nr.   7
 **********************
 DD1Dir will call FoFMem   1 times, MxPair=        72
 NAB=    36 NAA=     0 NBB=     0.
 A-vector RMS=  7.6836859D-06 Max=  2.8676399D-05 conv= 1.00D-05.
 RLE energy=       -0.2464629167
 DE(Corr)= -0.24646477     E(CORR)=     -33.849273241     Delta= 7.23D-07
 NORM(A)=   0.10476076D+01
 Iteration Nr.   8
 **********************
 DD1Dir will call FoFMem   1 times, MxPair=        72
 NAB=    36 NAA=     0 NBB=     0.
 A-vector RMS=  2.5279396D-06 Max=  1.1435199D-05 conv= 1.00D-05.
 RLE energy=       -0.2464635157
 DE(Corr)= -0.24646373     E(CORR)=     -33.849272204     Delta= 1.04D-06
 NORM(A)=   0.10476090D+01
 Iteration Nr.   9
 **********************
 DD1Dir will call FoFMem   1 times, MxPair=        72
 NAB=    36 NAA=     0 NBB=     0.
 A-vector RMS=  5.5423350D-07 Max=  1.6921449D-06 conv= 1.00D-05.
 RLE energy=       -0.2464641109
 DE(Corr)= -0.24646409     E(CORR)=     -33.849272562     Delta=-3.58D-07
 NORM(A)=   0.10476095D+01
 Iteration Nr.  10
 **********************
 DD1Dir will call FoFMem   1 times, MxPair=        72
 NAB=    36 NAA=     0 NBB=     0.
 A-vector RMS=  2.4033635D-07 Max=  8.7001623D-07 conv= 1.00D-05.
 RLE energy=       -0.2464642962
 DE(Corr)= -0.24646424     E(CORR)=     -33.849272705     Delta=-1.43D-07
 NORM(A)=   0.10476097D+01
 Iteration Nr.  11
 **********************
 DD1Dir will call FoFMem   1 times, MxPair=        72
 NAB=    36 NAA=     0 NBB=     0.
 A-vector RMS=  8.2612386D-08 Max=  2.3278932D-07 conv= 1.00D-05.
 RLE energy=       -0.2464643576
 DE(Corr)= -0.24646433     E(CORR)=     -33.849272802     Delta=-9.70D-08
 NORM(A)=   0.10476098D+01
 CI/CC converged in   11 iterations to DelEn=-9.70D-08 Conv= 1.00D-07 ErrA1= 8.26D-08 Conv= 1.00D-05
 Wavefunction amplitudes converged. E(Corr)=     -33.849272802    
 Largest amplitude= 3.25D-02
 IPart=  2 IA=    2   12.50% done.
 IPart=  4 IA=    3   24.17% done.
 IPart=  3 IA=    4   35.00% done.
 IPart=  3 IA=    5   45.00% done.
 IPart=  4 IA=    6   54.17% done.
 IPart=  1 IA=    7   62.50% done.
 IPart=  2 IA=    8   70.00% done.
 IPart=  3 IA=   10   82.50% done.
 IPart=  1 IA=   12   91.67% done.
 Time for triples=        0.24 seconds.
 T4(CCSD)= -0.35430143D-02
 T5(CCSD)=  0.61450292D-03
 CCSD(T)= -0.33852201314D+02
 Discarding MO integrals.
 Leave Link  913 at Sun Dec 10 06:32:27 2023, MaxMem=   536870912 cpu:               1.0 elap:               0.3
 (Enter /usr/site/hpc/x86_64/glibc-2.17/broadwell/gaussian/g16_a.03/pgi-16.5/g16/l601.exe)
 Copying SCF densities to generalized density rwf, IOpCl= 0 IROHF=0.

 **********************************************************************

            Population analysis using the SCF density.

 **********************************************************************

 Orbital symmetries:
       Occupied  (A') (A') (A') (A') (A') (A") (A") (A')
       Virtual   (A') (A') (A') (A') (A") (A') (A") (A') (A') (A')
                 (A') (A') (A') (A') (A') (A')
 The electronic state is 1-A'.
 Alpha  occ. eigenvalues --   -1.34098  -1.30703  -0.69562  -0.67286  -0.57218
 Alpha  occ. eigenvalues --   -0.48936  -0.44574  -0.43757
 Alpha virt. eigenvalues --    0.20700   0.26530   0.31977   0.33303   0.80040
 Alpha virt. eigenvalues --    0.83156   0.90008   0.97902   0.99080   1.16479
 Alpha virt. eigenvalues --    1.19373   1.23920   1.25433   1.31148   2.51781
 Alpha virt. eigenvalues --    3.15337
          Condensed to atoms (all electrons):
               1          2          3          4          5          6
     1  O    6.503895   0.238660   0.263128  -0.284176   0.008059   0.009147
     2  H    0.238660   0.430079  -0.021811   0.010572  -0.000118  -0.001000
     3  H    0.263128  -0.021811   0.367956   0.012607  -0.000239  -0.000321
     4  O   -0.284176   0.010572   0.012607   6.444275   0.238372   0.252663
     5  H    0.008059  -0.000118  -0.000239   0.238372   0.430423  -0.020582
     6  H    0.009147  -0.001000  -0.000321   0.252663  -0.020582   0.413449
 Mulliken charges:
               1
     1  O   -0.738713
     2  H    0.343617
     3  H    0.378680
     4  O   -0.674313
     5  H    0.344085
     6  H    0.346644
 Sum of Mulliken charges =  -0.00000
 Mulliken charges with hydrogens summed into heavy atoms:
               1
     1  O   -0.016416
     4  O    0.016416
 Electronic spatial extent (au):  <R**2>=            107.8728
 Charge=             -0.0000 electrons
 Dipole moment (field-independent basis, Debye):
    X=             -1.4883    Y=             -0.6759    Z=              0.0000  Tot=              1.6346
 Quadrupole moment (field-independent basis, Debye-Ang):
   XX=             -9.1320   YY=             -3.8644   ZZ=            -15.0030
   XY=             -1.1220   XZ=              0.0000   YZ=              0.0000
 Traceless Quadrupole moment (field-independent basis, Debye-Ang):
   XX=              0.2011   YY=              5.4687   ZZ=             -5.6699
   XY=             -1.1220   XZ=              0.0000   YZ=              0.0000
 Octapole moment (field-independent basis, Debye-Ang**2):
  XXX=             -1.5267  YYY=              0.8593  ZZZ=              0.0000  XYY=              0.9181
  XXY=             -2.3023  XXZ=              0.0000  XZZ=             -0.2478  YZZ=             -0.1153
  YYZ=              0.0000  XYZ=              0.0000
 Hexadecapole moment (field-independent basis, Debye-Ang**3):
 XXXX=            -12.2403 YYYY=            -71.2734 ZZZZ=            -12.2421 XXXY=             -1.3347
 XXXZ=              0.0000 YYYX=              2.2555 YYYZ=              0.0000 ZZZX=              0.0000
 ZZZY=              0.0000 XXYY=            -13.0402 XXZZ=             -4.6415 YYZZ=            -22.0150
 XXYZ=              0.0000 YYXZ=              0.0000 ZZXY=              0.1487
 N-N= 2.850063046843D+01 E-N=-1.391196230287D+02  KE= 2.683543084256D+01
 Symmetry A'   KE= 1.796277500759D+01
 Symmetry A"   KE= 8.872655834972D+00
 Leave Link  601 at Sun Dec 10 06:32:27 2023, MaxMem=   536870912 cpu:               0.1 elap:               0.0
 (Enter /usr/site/hpc/x86_64/glibc-2.17/broadwell/gaussian/g16_a.03/pgi-16.5/g16/l9999.exe)
 1\1\GINC-N033\SP\RCCSD(T)-FC\CEP-31G\H4O2\ROOT\10-Dec-2023\0\\#p CCSD(
 T)/CEP-31G\\H2O_H2O_411\\0,1\O,0,0.,-0.009833,0.\H,0,-0.799571,-0.5809
 65,0.\H,0,0.799571,-0.580965,0.\O,0,-0.006483,2.020394,0.\H,0,0.218093
 ,2.976988,0.\H,0,-0.984207,1.922599,0.\\Version=ES64L-G16RevA.03\State
 =1-A'\HF=-33.6028085\MP2=-33.8349337\MP3=-33.8402267\MP4D=-33.8455635\
 MP4DQ=-33.8459969\MP4SDQ=-33.8482828\CCSD=-33.8492728\CCSD(T)=-33.8522
 013\RMSD=1.933e-09\PG=CS [SG(H4O2)]\\@


 Any fool can criticize, condemn, and complain -- and most do.
 -- Dale Carnegie
 Job cpu time:       0 days  0 hours  0 minutes  3.4 seconds.
 Elapsed time:       0 days  0 hours  0 minutes  1.0 seconds.
 File lengths (MBytes):  RWF=     72 Int=      0 D2E=      0 Chk=      8 Scr=      8
 Normal termination of Gaussian 16 at Sun Dec 10 06:32:27 2023.
