 Entering Gaussian System, Link 0=g16
 Input=H2O_H2O_2650.com
 Output=H2O_H2O_2650.log
 Initial command:
 /usr/site/hpc/x86_64/glibc-2.17/broadwell/gaussian/g16_a.03/pgi-16.5/g16/l1.exe "/gpfs/gpfs1/scratch/c7441090/OO Coord/Gau-1732159.inp" -scrdir="/gpfs/gpfs1/scratch/c7441090/OO Coord/"
 Entering Link 1 = /usr/site/hpc/x86_64/glibc-2.17/broadwell/gaussian/g16_a.03/pgi-16.5/g16/l1.exe PID=   1732160.
  
 Copyright (c) 1988,1990,1992,1993,1995,1998,2003,2009,2016,
            Gaussian, Inc.  All Rights Reserved.
  
 This is part of the Gaussian(R) 16 program.  It is based on
 the Gaussian(R) 09 system (copyright 2009, Gaussian, Inc.),
 the Gaussian(R) 03 system (copyright 2003, Gaussian, Inc.),
 the Gaussian(R) 98 system (copyright 1998, Gaussian, Inc.),
 the Gaussian(R) 94 system (copyright 1995, Gaussian, Inc.),
 the Gaussian 92(TM) system (copyright 1992, Gaussian, Inc.),
 the Gaussian 90(TM) system (copyright 1990, Gaussian, Inc.),
 the Gaussian 88(TM) system (copyright 1988, Gaussian, Inc.),
 the Gaussian 86(TM) system (copyright 1986, Carnegie Mellon
 University), and the Gaussian 82(TM) system (copyright 1983,
 Carnegie Mellon University). Gaussian is a federally registered
 trademark of Gaussian, Inc.
  
 This software contains proprietary and confidential information,
 including trade secrets, belonging to Gaussian, Inc.
  
 This software is provided under written license and may be
 used, copied, transmitted, or stored only in accord with that
 written license.
  
 The following legend is applicable only to US Government
 contracts under FAR:
  
                    RESTRICTED RIGHTS LEGEND
  
 Use, reproduction and disclosure by the US Government is
 subject to restrictions as set forth in subparagraphs (a)
 and (c) of the Commercial Computer Software - Restricted
 Rights clause in FAR 52.227-19.
  
 Gaussian, Inc.
 340 Quinnipiac St., Bldg. 40, Wallingford CT 06492
  
  
 ---------------------------------------------------------------
 Warning -- This program may not be used in any manner that
 competes with the business of Gaussian, Inc. or will provide
 assistance to any competitor of Gaussian, Inc.  The licensee
 of this program is prohibited from giving any competitor of
 Gaussian, Inc. access to this program.  By using this program,
 the user acknowledges that Gaussian, Inc. is engaged in the
 business of creating and licensing software in the field of
 computational chemistry and represents and warrants to the
 licensee that it is not a competitor of Gaussian, Inc. and that
 it will not use this program in any manner prohibited above.
 ---------------------------------------------------------------
  

 Cite this work as:
 Gaussian 16, Revision A.03,
 M. J. Frisch, G. W. Trucks, H. B. Schlegel, G. E. Scuseria, 
 M. A. Robb, J. R. Cheeseman, G. Scalmani, V. Barone, 
 G. A. Petersson, H. Nakatsuji, X. Li, M. Caricato, A. V. Marenich, 
 J. Bloino, B. G. Janesko, R. Gomperts, B. Mennucci, H. P. Hratchian, 
 J. V. Ortiz, A. F. Izmaylov, J. L. Sonnenberg, D. Williams-Young, 
 F. Ding, F. Lipparini, F. Egidi, J. Goings, B. Peng, A. Petrone, 
 T. Henderson, D. Ranasinghe, V. G. Zakrzewski, J. Gao, N. Rega, 
 G. Zheng, W. Liang, M. Hada, M. Ehara, K. Toyota, R. Fukuda, 
 J. Hasegawa, M. Ishida, T. Nakajima, Y. Honda, O. Kitao, H. Nakai, 
 T. Vreven, K. Throssell, J. A. Montgomery, Jr., J. E. Peralta, 
 F. Ogliaro, M. J. Bearpark, J. J. Heyd, E. N. Brothers, K. N. Kudin, 
 V. N. Staroverov, T. A. Keith, R. Kobayashi, J. Normand, 
 K. Raghavachari, A. P. Rendell, J. C. Burant, S. S. Iyengar, 
 J. Tomasi, M. Cossi, J. M. Millam, M. Klene, C. Adamo, R. Cammi, 
 J. W. Ochterski, R. L. Martin, K. Morokuma, O. Farkas, 
 J. B. Foresman, and D. J. Fox, Gaussian, Inc., Wallingford CT, 2016.
 
 ******************************************
 Gaussian 16:  ES64L-G16RevA.03 25-Dec-2016
                10-Dec-2023 
 ******************************************
 %NProcShared=4
 Will use up to    4 processors via shared memory.
 %Mem=4GB
 %Chk=H2O_H2O_2650.chk
 ------------------
 #p CCSD(T)/CEP-31G
 ------------------
 1/38=1,172=1/1;
 2/12=2,17=6,18=5,40=1/2;
 3/5=9,6=1,11=9,25=1,30=1/1,2,3;
 4//1;
 5/5=2,38=5/2;
 8/6=4,9=120000,10=1/1,4;
 9/5=7,14=2/13;
 6/7=2,8=2,9=2,10=2/1;
 99/5=1,9=1/99;
 Leave Link    1 at Sun Dec 10 06:27:30 2023, MaxMem=   536870912 cpu:               0.2 elap:               0.1
 (Enter /usr/site/hpc/x86_64/glibc-2.17/broadwell/gaussian/g16_a.03/pgi-16.5/g16/l101.exe)
 ------------
 H2O_H2O_2650
 ------------
 Symbolic Z-matrix:
 Charge =  0 Multiplicity = 1
 O                     0.       -0.00983   0. 
 H                    -0.79957  -0.58097   0. 
 H                     0.79957  -0.58097   0. 
 O                     0.        4.4161    0. 
 H                     0.79957   4.98723   0. 
 H                    -0.79957   4.98723   0. 
 
 ITRead=  0  0  0  0  0  0
 MicOpt= -1 -1 -1 -1 -1 -1
 NAtoms=      6 NQM=        6 NQMF=       0 NMMI=      0 NMMIF=      0
                NMic=       0 NMicF=      0.
                    Isotopes and Nuclear Properties:
 (Nuclear quadrupole moments (NQMom) in fm**2, nuclear magnetic moments (NMagM)
  in nuclear magnetons)

  Atom         1           2           3           4           5           6
 IAtWgt=          16           1           1          16           1           1
 AtmWgt=  15.9949146   1.0078250   1.0078250  15.9949146   1.0078250   1.0078250
 NucSpn=           0           1           1           0           1           1
 AtZEff=  -0.0000000  -0.0000000  -0.0000000  -0.0000000  -0.0000000  -0.0000000
 NQMom=    0.0000000   0.0000000   0.0000000   0.0000000   0.0000000   0.0000000
 NMagM=    0.0000000   2.7928460   2.7928460   0.0000000   2.7928460   2.7928460
 AtZNuc=   8.0000000   1.0000000   1.0000000   8.0000000   1.0000000   1.0000000
 Leave Link  101 at Sun Dec 10 06:27:31 2023, MaxMem=   536870912 cpu:               0.3 elap:               0.1
 (Enter /usr/site/hpc/x86_64/glibc-2.17/broadwell/gaussian/g16_a.03/pgi-16.5/g16/l202.exe)
                          Input orientation:                          
 ---------------------------------------------------------------------
 Center     Atomic      Atomic             Coordinates (Angstroms)
 Number     Number       Type             X           Y           Z
 ---------------------------------------------------------------------
      1          8           0        0.000000   -0.009833    0.000000
      2          1           0       -0.799571   -0.580965    0.000000
      3          1           0        0.799571   -0.580965    0.000000
      4          8           0        0.000000    4.416098    0.000000
      5          1           0        0.799571    4.987230    0.000000
      6          1           0       -0.799571    4.987230    0.000000
 ---------------------------------------------------------------------
                    Distance matrix (angstroms):
                    1          2          3          4          5
     1  O    0.000000
     2  H    0.982601   0.000000
     3  H    0.982601   1.599142   0.000000
     4  O    4.425931   5.060628   5.060628   0.000000
     5  H    5.060628   5.793276   5.568195   0.982601   0.000000
     6  H    5.060628   5.568195   5.793276   0.982601   1.599142
                    6
     6  H    0.000000
 Stoichiometry    H4O2
 Framework group  D2H[C2"(O.O),SG(H4)]
 Deg. of freedom     3
 Full point group                 D2H     NOp   8
 Largest Abelian subgroup         D2H     NOp   8
 Largest concise Abelian subgroup D2      NOp   4
                         Standard orientation:                         
 ---------------------------------------------------------------------
 Center     Atomic      Atomic             Coordinates (Angstroms)
 Number     Number       Type             X           Y           Z
 ---------------------------------------------------------------------
      1          8           0        0.000000   -0.000000    2.212966
      2          1           0        0.000000    0.799571    2.784098
      3          1           0       -0.000000   -0.799571    2.784098
      4          8           0        0.000000   -0.000000   -2.212966
      5          1           0       -0.000000   -0.799571   -2.784098
      6          1           0        0.000000    0.799571   -2.784098
 ---------------------------------------------------------------------
 Rotational constants (GHZ):         196.0911516           2.6894949           2.6531061
 Leave Link  202 at Sun Dec 10 06:27:31 2023, MaxMem=   536870912 cpu:               0.1 elap:               0.0
 (Enter /usr/site/hpc/x86_64/glibc-2.17/broadwell/gaussian/g16_a.03/pgi-16.5/g16/l301.exe)
 Standard basis: CEP-31G (6D, 10F)
 Ernie: Thresh=  0.10000D-02 Tol=  0.10000D-05 Strict=F.
 There are     6 symmetry adapted cartesian basis functions of AG  symmetry.
 There are     0 symmetry adapted cartesian basis functions of B1G symmetry.
 There are     2 symmetry adapted cartesian basis functions of B2G symmetry.
 There are     4 symmetry adapted cartesian basis functions of B3G symmetry.
 There are     0 symmetry adapted cartesian basis functions of AU  symmetry.
 There are     6 symmetry adapted cartesian basis functions of B1U symmetry.
 There are     4 symmetry adapted cartesian basis functions of B2U symmetry.
 There are     2 symmetry adapted cartesian basis functions of B3U symmetry.
 There are     6 symmetry adapted basis functions of AG  symmetry.
 There are     0 symmetry adapted basis functions of B1G symmetry.
 There are     2 symmetry adapted basis functions of B2G symmetry.
 There are     4 symmetry adapted basis functions of B3G symmetry.
 There are     0 symmetry adapted basis functions of AU  symmetry.
 There are     6 symmetry adapted basis functions of B1U symmetry.
 There are     4 symmetry adapted basis functions of B2U symmetry.
 There are     2 symmetry adapted basis functions of B3U symmetry.
    24 basis functions,    48 primitive gaussians,    24 cartesian basis functions
     8 alpha electrons        8 beta electrons
       nuclear repulsion energy        20.7736015626 Hartrees.
 IExCor=    0 DFT=F Ex=HF Corr=None ExCW=0 ScaHFX=  1.000000
 ScaDFX=  1.000000  1.000000  1.000000  1.000000 ScalE2=  1.000000  1.000000
 IRadAn=      5 IRanWt=     -1 IRanGd=            0 ICorTp=0 IEmpDi=  4
 NAtoms=    6 NActive=    6 NUniq=    2 SFac= 4.00D+00 NAtFMM=   60 NAOKFM=F Big=F
 Integral buffers will be    131072 words long.
 Raffenetti 1 integral format.
 Two-electron integral symmetry is turned on.
 Leave Link  301 at Sun Dec 10 06:27:31 2023, MaxMem=   536870912 cpu:               0.2 elap:               0.1
 (Enter /usr/site/hpc/x86_64/glibc-2.17/broadwell/gaussian/g16_a.03/pgi-16.5/g16/l302.exe)
 NPDir=0 NMtPBC=     1 NCelOv=     1 NCel=       1 NClECP=     1 NCelD=      1
         NCelK=      1 NCelE2=     1 NClLst=     1 CellRange=     0.0.
 One-electron integrals computed using PRISM.
 One-electron integral symmetry used in STVInt
   8 Symmetry operations used in ECPInt.
 ECPInt:  NShTT=      78 NPrTT=     318 LenC2=      79 LenP2D=     256.
 LDataN:  DoStor=T MaxTD1= 2 Len=   12
 NBasis=    24 RedAO= T EigKep=  3.85D-02  NBF=     6     0     2     4     0     6     4     2
 NBsUse=    24 1.00D-06 EigRej= -1.00D+00 NBFU=     6     0     2     4     0     6     4     2
 Leave Link  302 at Sun Dec 10 06:27:31 2023, MaxMem=   536870912 cpu:               0.3 elap:               0.1
 (Enter /usr/site/hpc/x86_64/glibc-2.17/broadwell/gaussian/g16_a.03/pgi-16.5/g16/l303.exe)
 DipDrv:  MaxL=1.
 Leave Link  303 at Sun Dec 10 06:27:31 2023, MaxMem=   536870912 cpu:               0.1 elap:               0.0
 (Enter /usr/site/hpc/x86_64/glibc-2.17/broadwell/gaussian/g16_a.03/pgi-16.5/g16/l401.exe)
 ExpMin= 1.78D-01 ExpMax= 1.92D+01 ExpMxC= 1.92D+01 IAcc=3 IRadAn=         5 AccDes= 0.00D+00
 Harris functional with IExCor=  205 and IRadAn=       5 diagonalized for initial guess.
 HarFok:  IExCor=  205 AccDes= 0.00D+00 IRadAn=         5 IDoV= 1 UseB2=F ITyADJ=14
 ICtDFT=  3500011 ScaDFX=  1.000000  1.000000  1.000000  1.000000
 FoFCou: FMM=F IPFlag=           0 FMFlag=      100000 FMFlg1=           0
         NFxFlg=           0 DoJE=T BraDBF=F KetDBF=T FulRan=T
         wScrn=  0.000000 ICntrl=       500 IOpCl=  0 I1Cent=   200000004 NGrid=           0
         NMat0=    1 NMatS0=      1 NMatT0=    0 NMatD0=    1 NMtDS0=    0 NMtDT0=    0
 Petite list used in FoFCou.
 Harris En= -34.4764150054107    
 JPrj=0 DoOrth=F DoCkMO=F.
 Initial guess orbital symmetries:
       Occupied  (AG) (B1U) (B2U) (B3G) (AG) (B1U) (B3U) (B2G)
       Virtual   (AG) (B1U) (B2U) (B3G) (AG) (B3U) (B2G) (B1U)
                 (B2U) (B3G) (AG) (B1U) (B2U) (B3G) (B1U) (AG)
 The electronic state of the initial guess is 1-AG.
 Leave Link  401 at Sun Dec 10 06:27:31 2023, MaxMem=   536870912 cpu:               0.4 elap:               0.1
 (Enter /usr/site/hpc/x86_64/glibc-2.17/broadwell/gaussian/g16_a.03/pgi-16.5/g16/l502.exe)
 Keep R1 ints in memory in symmetry-blocked form, NReq=853229.
 FoFCou: FMM=F IPFlag=           0 FMFlag=           0 FMFlg1=           0
         NFxFlg=           0 DoJE=F BraDBF=F KetDBF=F FulRan=T
         wScrn=  0.000000 ICntrl=       600 IOpCl=  0 I1Cent=           0 NGrid=           0
         NMat0=    1 NMatS0=    300 NMatT0=    0 NMatD0=    1 NMtDS0=    0 NMtDT0=    0
 Petite list used in FoFCou.
 Closed shell SCF:
 Using DIIS extrapolation, IDIIS=  1040.
 NGot=   536870912 LenX=   536859760 LenY=   536858743
 Requested convergence on RMS density matrix=1.00D-08 within 128 cycles.
 Requested convergence on MAX density matrix=1.00D-06.
 Requested convergence on             energy=1.00D-06.
 No special actions if energy rises.

 Cycle   1  Pass 1  IDiag  1:
 E= -33.5521567546661    
 DIIS: error= 6.97D-02 at cycle   1 NSaved=   1.
 NSaved= 1 IEnMin= 1 EnMin= -33.5521567546661     IErMin= 1 ErrMin= 6.97D-02
 ErrMax= 6.97D-02  0.00D+00 EMaxC= 1.00D-01 BMatC= 1.03D-01 BMatP= 1.03D-01
 IDIUse=3 WtCom= 3.03D-01 WtEn= 6.97D-01
 Coeff-Com:  0.100D+01
 Coeff-En:   0.100D+01
 Coeff:      0.100D+01
 Gap=     0.601 Goal=   None    Shift=    0.000
 GapD=    0.601 DampG=2.000 DampE=0.500 DampFc=1.0000 IDamp=-1.
 RMSDP=1.51D-02 MaxDP=1.18D-01              OVMax= 1.01D-01

 Cycle   2  Pass 1  IDiag  1:
 E= -33.6162149633685     Delta-E=       -0.064058208702 Rises=F Damp=F
 DIIS: error= 3.77D-02 at cycle   2 NSaved=   2.
 NSaved= 2 IEnMin= 2 EnMin= -33.6162149633685     IErMin= 2 ErrMin= 3.77D-02
 ErrMax= 3.77D-02  0.00D+00 EMaxC= 1.00D-01 BMatC= 3.90D-02 BMatP= 1.03D-01
 IDIUse=3 WtCom= 6.23D-01 WtEn= 3.77D-01
 Coeff-Com:  0.378D+00 0.622D+00
 Coeff-En:   0.107D+00 0.893D+00
 Coeff:      0.276D+00 0.724D+00
 Gap=     0.705 Goal=   None    Shift=    0.000
 RMSDP=6.49D-03 MaxDP=5.49D-02 DE=-6.41D-02 OVMax= 3.65D-02

 Cycle   3  Pass 1  IDiag  1:
 E= -33.6473443216153     Delta-E=       -0.031129358247 Rises=F Damp=F
 DIIS: error= 7.41D-03 at cycle   3 NSaved=   3.
 NSaved= 3 IEnMin= 3 EnMin= -33.6473443216153     IErMin= 3 ErrMin= 7.41D-03
 ErrMax= 7.41D-03  0.00D+00 EMaxC= 1.00D-01 BMatC= 9.57D-04 BMatP= 3.90D-02
 IDIUse=3 WtCom= 9.26D-01 WtEn= 7.41D-02
 Coeff-Com: -0.115D+00-0.134D-01 0.113D+01
 Coeff-En:   0.000D+00 0.000D+00 0.100D+01
 Coeff:     -0.106D+00-0.124D-01 0.112D+01
 Gap=     0.698 Goal=   None    Shift=    0.000
 RMSDP=1.15D-03 MaxDP=9.57D-03 DE=-3.11D-02 OVMax= 8.40D-03

 Cycle   4  Pass 1  IDiag  1:
 E= -33.6483058623587     Delta-E=       -0.000961540743 Rises=F Damp=F
 DIIS: error= 7.91D-04 at cycle   4 NSaved=   4.
 NSaved= 4 IEnMin= 4 EnMin= -33.6483058623587     IErMin= 4 ErrMin= 7.91D-04
 ErrMax= 7.91D-04  0.00D+00 EMaxC= 1.00D-01 BMatC= 6.47D-06 BMatP= 9.57D-04
 IDIUse=3 WtCom= 9.92D-01 WtEn= 7.91D-03
 Coeff-Com:  0.433D-01-0.189D-01-0.513D+00 0.149D+01
 Coeff-En:   0.000D+00 0.000D+00 0.000D+00 0.100D+01
 Coeff:      0.430D-01-0.188D-01-0.508D+00 0.148D+01
 Gap=     0.699 Goal=   None    Shift=    0.000
 RMSDP=2.41D-04 MaxDP=2.09D-03 DE=-9.62D-04 OVMax= 9.82D-04

 Cycle   5  Pass 1  IDiag  1:
 E= -33.6483198684558     Delta-E=       -0.000014006097 Rises=F Damp=F
 DIIS: error= 5.55D-05 at cycle   5 NSaved=   5.
 NSaved= 5 IEnMin= 5 EnMin= -33.6483198684558     IErMin= 5 ErrMin= 5.55D-05
 ErrMax= 5.55D-05  0.00D+00 EMaxC= 1.00D-01 BMatC= 4.76D-08 BMatP= 6.47D-06
 IDIUse=1 WtCom= 1.00D+00 WtEn= 0.00D+00
 Coeff-Com: -0.730D-02 0.353D-02 0.867D-01-0.305D+00 0.122D+01
 Coeff:     -0.730D-02 0.353D-02 0.867D-01-0.305D+00 0.122D+01
 Gap=     0.699 Goal=   None    Shift=    0.000
 RMSDP=1.76D-05 MaxDP=1.68D-04 DE=-1.40D-05 OVMax= 1.16D-04

 Cycle   6  Pass 1  IDiag  1:
 E= -33.6483199882314     Delta-E=       -0.000000119776 Rises=F Damp=F
 DIIS: error= 1.18D-05 at cycle   6 NSaved=   6.
 NSaved= 6 IEnMin= 6 EnMin= -33.6483199882314     IErMin= 6 ErrMin= 1.18D-05
 ErrMax= 1.18D-05  0.00D+00 EMaxC= 1.00D-01 BMatC= 2.57D-09 BMatP= 4.76D-08
 IDIUse=1 WtCom= 1.00D+00 WtEn= 0.00D+00
 Coeff-Com:  0.132D-02-0.491D-03-0.149D-01 0.604D-01-0.420D+00 0.137D+01
 Coeff:      0.132D-02-0.491D-03-0.149D-01 0.604D-01-0.420D+00 0.137D+01
 Gap=     0.699 Goal=   None    Shift=    0.000
 RMSDP=4.27D-06 MaxDP=4.29D-05 DE=-1.20D-07 OVMax= 3.69D-05

 Cycle   7  Pass 1  IDiag  1:
 E= -33.6483199953515     Delta-E=       -0.000000007120 Rises=F Damp=F
 DIIS: error= 2.25D-06 at cycle   7 NSaved=   7.
 NSaved= 7 IEnMin= 7 EnMin= -33.6483199953515     IErMin= 7 ErrMin= 2.25D-06
 ErrMax= 2.25D-06  0.00D+00 EMaxC= 1.00D-01 BMatC= 1.06D-10 BMatP= 2.57D-09
 IDIUse=1 WtCom= 1.00D+00 WtEn= 0.00D+00
 Coeff-Com:  0.315D-04-0.855D-04-0.662D-03-0.899D-03 0.748D-01-0.446D+00
 Coeff-Com:  0.137D+01
 Coeff:      0.315D-04-0.855D-04-0.662D-03-0.899D-03 0.748D-01-0.446D+00
 Coeff:      0.137D+01
 Gap=     0.699 Goal=   None    Shift=    0.000
 RMSDP=1.17D-06 MaxDP=8.26D-06 DE=-7.12D-09 OVMax= 8.73D-06

 Cycle   8  Pass 1  IDiag  1:
 E= -33.6483199956625     Delta-E=       -0.000000000311 Rises=F Damp=F
 DIIS: error= 3.73D-07 at cycle   8 NSaved=   8.
 NSaved= 8 IEnMin= 8 EnMin= -33.6483199956625     IErMin= 8 ErrMin= 3.73D-07
 ErrMax= 3.73D-07  0.00D+00 EMaxC= 1.00D-01 BMatC= 3.01D-12 BMatP= 1.06D-10
 IDIUse=1 WtCom= 1.00D+00 WtEn= 0.00D+00
 Coeff-Com:  0.516D-05 0.243D-04 0.704D-04 0.978D-03-0.323D-01 0.187D+00
 Coeff-Com: -0.637D+00 0.148D+01
 Coeff:      0.516D-05 0.243D-04 0.704D-04 0.978D-03-0.323D-01 0.187D+00
 Coeff:     -0.637D+00 0.148D+01
 Gap=     0.699 Goal=   None    Shift=    0.000
 RMSDP=2.64D-07 MaxDP=1.22D-06 DE=-3.11D-10 OVMax= 1.77D-06

 Cycle   9  Pass 1  IDiag  1:
 E= -33.6483199956710     Delta-E=       -0.000000000009 Rises=F Damp=F
 DIIS: error= 1.98D-08 at cycle   9 NSaved=   9.
 NSaved= 9 IEnMin= 9 EnMin= -33.6483199956710     IErMin= 9 ErrMin= 1.98D-08
 ErrMax= 1.98D-08  0.00D+00 EMaxC= 1.00D-01 BMatC= 1.18D-14 BMatP= 3.01D-12
 IDIUse=1 WtCom= 1.00D+00 WtEn= 0.00D+00
 Coeff-Com:  0.543D-06-0.602D-05-0.365D-04-0.154D-03 0.716D-02-0.428D-01
 Coeff-Com:  0.147D+00-0.391D+00 0.128D+01
 Coeff:      0.543D-06-0.602D-05-0.365D-04-0.154D-03 0.716D-02-0.428D-01
 Coeff:      0.147D+00-0.391D+00 0.128D+01
 Gap=     0.699 Goal=   None    Shift=    0.000
 RMSDP=2.44D-08 MaxDP=1.11D-07 DE=-8.57D-12 OVMax= 1.41D-07

 Cycle  10  Pass 1  IDiag  1:
 E= -33.6483199956710     Delta-E=        0.000000000000 Rises=F Damp=F
 DIIS: error= 8.37D-10 at cycle  10 NSaved=  10.
 NSaved=10 IEnMin= 9 EnMin= -33.6483199956710     IErMin=10 ErrMin= 8.37D-10
 ErrMax= 8.37D-10  0.00D+00 EMaxC= 1.00D-01 BMatC= 2.10D-17 BMatP= 1.18D-14
 IDIUse=1 WtCom= 1.00D+00 WtEn= 0.00D+00
 Coeff-Com: -0.196D-06 0.830D-06 0.625D-05 0.168D-04-0.976D-03 0.590D-02
 Coeff-Com: -0.205D-01 0.557D-01-0.203D+00 0.116D+01
 Coeff:     -0.196D-06 0.830D-06 0.625D-05 0.168D-04-0.976D-03 0.590D-02
 Coeff:     -0.205D-01 0.557D-01-0.203D+00 0.116D+01
 Gap=     0.699 Goal=   None    Shift=    0.000
 RMSDP=5.13D-10 MaxDP=2.29D-09 DE= 2.84D-14 OVMax= 2.20D-09

 SCF Done:  E(RHF) =  -33.6483199957     A.U. after   10 cycles
            NFock= 10  Conv=0.51D-09     -V/T= 2.2571
 KE= 2.676722207032D+01 PE=-1.233225241151D+02 EE= 4.213338048651D+01
 Leave Link  502 at Sun Dec 10 06:27:31 2023, MaxMem=   536870912 cpu:               0.3 elap:               0.1
 (Enter /usr/site/hpc/x86_64/glibc-2.17/broadwell/gaussian/g16_a.03/pgi-16.5/g16/l801.exe)
 Windowed orbitals will be sorted by symmetry type.
 Range of M.O.s used for correlation:     1    24
 NBasis=    24 NAE=     8 NBE=     8 NFC=     0 NFV=     0
 NROrb=     24 NOA=     8 NOB=     8 NVA=    16 NVB=    16
 Leave Link  801 at Sun Dec 10 06:27:31 2023, MaxMem=   536870912 cpu:               0.1 elap:               0.0
 (Enter /usr/site/hpc/x86_64/glibc-2.17/broadwell/gaussian/g16_a.03/pgi-16.5/g16/l804.exe)
 Closed-shell transformation, MDV=   536870912 ITran=4 ISComp=2.
 Unit  1 TFree=       1025246 TCopy=        210600.
 Semi-Direct transformation.
 ModeAB=           4 MOrb=             8 LenV=     536741142
 LASXX=         5694 LTotXX=        5694 LenRXX=       12406
 LTotAB=        6712 MaxLAS=       26496 LenRXY=           0
 NonZer=       18100 LenScr=      524288 LnRSAI=       26496
 LnScr1=      524288 LExtra=           0 Total=      1087478
 MaxDsk=          -1 SrtSym=           T ITran=            4
 DoSDTr:  NPSUse=  4
 JobTyp=0 Pass  1:  I=   1 to   8.
 (rs|ai) integrals will be sorted in core.
 Complete sort for first half transformation.
 First half transformation complete.
 Complete sort for second half transformation.
 Second half transformation complete.
 Spin components of T(2) and E(2):
     alpha-alpha T2 =       0.9080241521D-02 E2=     -0.2589613682D-01
     alpha-beta  T2 =       0.6010298168D-01 E2=     -0.1767965009D+00
     beta-beta   T2 =       0.9080241521D-02 E2=     -0.2589613682D-01
 ANorm=    0.1038394657D+01
 E2 =    -0.2285887745D+00 EUMP2 =    -0.33876908770171D+02
 Leave Link  804 at Sun Dec 10 06:27:31 2023, MaxMem=   536870912 cpu:               0.2 elap:               0.1
 (Enter /usr/site/hpc/x86_64/glibc-2.17/broadwell/gaussian/g16_a.03/pgi-16.5/g16/l913.exe)
 CIDS:  MDV=   536870912.
 IFCWin=0 IBDFC=1 NFBD=     0     0 NFCmp=     0     0 NFFFC=     0     0
 Using DD3R+UMP44R for 1st iteration.
 Using DD4RQ for 2nd and later iterations.
 Keep R2 and R3 ints in memory in symmetry-blocked form, NReq=855959.
 FoFCou: FMM=F IPFlag=           0 FMFlag=           0 FMFlg1=           0
         NFxFlg=           0 DoJE=F BraDBF=F KetDBF=F FulRan=T
         wScrn=  0.000000 ICntrl=       600 IOpCl=  0 I1Cent=           0 NGrid=           0
         NMat0=    1 NMatS0=    300 NMatT0=    0 NMatD0=    1 NMtDS0=    0 NMtDT0=    0
 Petite list used in FoFCou.
 CIDS: In Core Option IDoMem=           1.
 CCSD(T)
 =======
 Iterations=  50 Convergence= 0.100D-06
 Produce multiple copies of IABC intergrals
 Iteration Nr.   1
 **********************
 DD1Dir will call FoFMem   1 times, MxPair=        72
 NAB=    36 NAA=     0 NBB=     0.
 MP4(R+Q)= -0.72306885D-03
 Maximum subspace dimension=  5
 A-vector RMS=  5.7859613D-03 Max=  1.3286658D-02 conv= 1.00D-05.
 RLE energy=       -0.2346986028
 E3=       -0.55028283D-02        EUMP3=      -0.33882411599D+02
 E4(DQ)=   -0.59239541D-02        UMP4(DQ)=   -0.33888335553D+02
 E4(SDQ)=  -0.79625991D-02        UMP4(SDQ)=  -0.33890374198D+02
 VARIATIONAL ENERGIES WITH THE FIRST-ORDER WAVEFUNCTION:
 DE(Corr)= -0.23453989     E(Corr)=     -33.882859883    
 NORM(A)=   0.10418685D+01
 Iteration Nr.   2
 **********************
 DD1Dir will call FoFMem   1 times, MxPair=        72
 NAB=    36 NAA=     0 NBB=     0.
 A-vector RMS=  9.8873236D-04 Max=  2.1062150D-03 conv= 1.00D-05.
 RLE energy=       -0.2425150753
 DE(Corr)= -0.24056217     E(CORR)=     -33.888882165     Delta=-6.02D-03
 NORM(A)=   0.10456987D+01
 Iteration Nr.   3
 **********************
 DD1Dir will call FoFMem   1 times, MxPair=        72
 NAB=    36 NAA=     0 NBB=     0.
 A-vector RMS=  3.9452475D-04 Max=  1.2446102D-03 conv= 1.00D-05.
 RLE energy=       -0.2430685843
 DE(Corr)= -0.24261663     E(CORR)=     -33.890936628     Delta=-2.05D-03
 NORM(A)=   0.10462702D+01
 Iteration Nr.   4
 **********************
 DD1Dir will call FoFMem   1 times, MxPair=        72
 NAB=    36 NAA=     0 NBB=     0.
 A-vector RMS=  9.6103950D-05 Max=  2.7878014D-04 conv= 1.00D-05.
 RLE energy=       -0.2431166058
 DE(Corr)= -0.24307986     E(CORR)=     -33.891399860     Delta=-4.63D-04
 NORM(A)=   0.10463481D+01
 Iteration Nr.   5
 **********************
 DD1Dir will call FoFMem   1 times, MxPair=        72
 NAB=    36 NAA=     0 NBB=     0.
 A-vector RMS=  4.3559558D-05 Max=  1.6657312D-04 conv= 1.00D-05.
 RLE energy=       -0.2431147893
 DE(Corr)= -0.24311263     E(CORR)=     -33.891432626     Delta=-3.28D-05
 NORM(A)=   0.10463598D+01
 Iteration Nr.   6
 **********************
 DD1Dir will call FoFMem   1 times, MxPair=        72
 NAB=    36 NAA=     0 NBB=     0.
 A-vector RMS=  1.1929211D-05 Max=  4.7009478D-05 conv= 1.00D-05.
 RLE energy=       -0.2431137976
 DE(Corr)= -0.24311491     E(CORR)=     -33.891434901     Delta=-2.28D-06
 NORM(A)=   0.10463636D+01
 Iteration Nr.   7
 **********************
 DD1Dir will call FoFMem   1 times, MxPair=        72
 NAB=    36 NAA=     0 NBB=     0.
 A-vector RMS=  3.5053408D-06 Max=  1.4817640D-05 conv= 1.00D-05.
 RLE energy=       -0.2431147582
 DE(Corr)= -0.24311424     E(CORR)=     -33.891434232     Delta= 6.69D-07
 NORM(A)=   0.10463651D+01
 Iteration Nr.   8
 **********************
 DD1Dir will call FoFMem   1 times, MxPair=        72
 NAB=    36 NAA=     0 NBB=     0.
 A-vector RMS=  7.1588986D-07 Max=  3.2795054D-06 conv= 1.00D-05.
 RLE energy=       -0.2431142401
 DE(Corr)= -0.24311427     E(CORR)=     -33.891434270     Delta=-3.75D-08
 NORM(A)=   0.10463652D+01
 CI/CC converged in    8 iterations to DelEn=-3.75D-08 Conv= 1.00D-07 ErrA1= 7.16D-07 Conv= 1.00D-05
 Wavefunction amplitudes converged. E(Corr)=     -33.891434270    
 Largest amplitude= 2.93D-02
 IPart=  4 IA=    2   12.50% done.
 IPart=  2 IA=    3   24.17% done.
 IPart=  3 IA=    4   35.00% done.
 IPart=  3 IA=    5   45.00% done.
 IPart=  2 IA=    6   54.17% done.
 IPart=  4 IA=    7   62.50% done.
 IPart=  1 IA=    8   70.00% done.
 IPart=  2 IA=   10   82.50% done.
 IPart=  1 IA=   12   91.67% done.
 Time for triples=        1.10 seconds.
 T4(CCSD)= -0.31043781D-02
 T5(CCSD)=  0.52916776D-03
 CCSD(T)= -0.33894009480D+02
 Discarding MO integrals.
 Leave Link  913 at Sun Dec 10 06:27:32 2023, MaxMem=   536870912 cpu:               1.7 elap:               0.4
 (Enter /usr/site/hpc/x86_64/glibc-2.17/broadwell/gaussian/g16_a.03/pgi-16.5/g16/l601.exe)
 Copying SCF densities to generalized density rwf, IOpCl= 0 IROHF=0.

 **********************************************************************

            Population analysis using the SCF density.

 **********************************************************************

 Orbital symmetries:
       Occupied  (AG) (B1U) (B2U) (B3G) (AG) (B1U) (B3U) (B2G)
       Virtual   (AG) (B1U) (B2U) (B3G) (B3U) (B2G) (AG) (B2U)
                 (B1U) (B3G) (AG) (B1U) (B2U) (B3G) (B1U) (AG)
 The electronic state is 1-AG.
 Alpha  occ. eigenvalues --   -1.34387  -1.34384  -0.70010  -0.70005  -0.54011
 Alpha  occ. eigenvalues --   -0.53819  -0.48917  -0.48895
 Alpha virt. eigenvalues --    0.21047   0.21347   0.31386   0.31464   0.81470
 Alpha virt. eigenvalues --    0.81816   0.82457   0.87562   0.87782   0.88365
 Alpha virt. eigenvalues --    1.18372   1.18372   1.22809   1.22916   2.58372
 Alpha virt. eigenvalues --    2.58576
          Condensed to atoms (all electrons):
               1          2          3          4          5          6
     1  O    6.207132   0.260950   0.260950   0.000037   0.000001   0.000001
     2  H    0.260950   0.398331  -0.023818   0.000001  -0.000000  -0.000000
     3  H    0.260950  -0.023818   0.398331   0.000001  -0.000000  -0.000000
     4  O    0.000037   0.000001   0.000001   6.207132   0.260950   0.260950
     5  H    0.000001  -0.000000  -0.000000   0.260950   0.398331  -0.023818
     6  H    0.000001  -0.000000  -0.000000   0.260950  -0.023818   0.398331
 Mulliken charges:
               1
     1  O   -0.729072
     2  H    0.364536
     3  H    0.364536
     4  O   -0.729072
     5  H    0.364536
     6  H    0.364536
 Sum of Mulliken charges =  -0.00000
 Mulliken charges with hydrogens summed into heavy atoms:
               1
     1  O   -0.000000
     4  O   -0.000000
 Electronic spatial extent (au):  <R**2>=            338.4304
 Charge=              0.0000 electrons
 Dipole moment (field-independent basis, Debye):
    X=             -0.0000    Y=              0.0000    Z=              0.0000  Tot=              0.0000
 Quadrupole moment (field-independent basis, Debye-Ang):
   XX=            -14.9847   YY=             -8.0744   ZZ=             11.3320
   XY=              0.0000   XZ=              0.0000   YZ=             -0.0000
 Traceless Quadrupole moment (field-independent basis, Debye-Ang):
   XX=            -11.0757   YY=             -4.1653   ZZ=             15.2410
   XY=              0.0000   XZ=              0.0000   YZ=             -0.0000
 Octapole moment (field-independent basis, Debye-Ang**2):
  XXX=             -0.0000  YYY=              0.0000  ZZZ=              0.0000  XYY=             -0.0000
  XXY=             -0.0000  XXZ=              0.0000  XZZ=             -0.0000  YZZ=              0.0000
  YYZ=              0.0000  XYZ=             -0.0000
 Hexadecapole moment (field-independent basis, Debye-Ang**3):
 XXXX=            -12.2144 YYYY=            -12.0863 ZZZZ=           -141.0397 XXXY=             -0.0000
 XXXZ=              0.0000 YYYX=              0.0000 YYYZ=             -0.0000 ZZZX=              0.0000
 ZZZY=             -0.0000 XXYY=             -4.6277 XXZZ=            -81.1124 YYZZ=            -34.6964
 XXYZ=              0.0000 YYXZ=              0.0000 ZZXY=              0.0000
 N-N= 2.077360156259D+01 E-N=-1.233225241323D+02  KE= 2.676722207032D+01
 Symmetry AG   KE= 5.519183259899D+00
 Symmetry B1G  KE= 0.000000000000D+00
 Symmetry B2G  KE= 4.446033085159D+00
 Symmetry B3G  KE= 3.404138244231D+00
 Symmetry AU   KE= 0.000000000000D+00
 Symmetry B1U  KE= 5.553405457459D+00
 Symmetry B2U  KE= 3.403159430492D+00
 Symmetry B3U  KE= 4.441302593084D+00
 Leave Link  601 at Sun Dec 10 06:27:32 2023, MaxMem=   536870912 cpu:               0.1 elap:               0.0
 (Enter /usr/site/hpc/x86_64/glibc-2.17/broadwell/gaussian/g16_a.03/pgi-16.5/g16/l9999.exe)
 1\1\GINC-N045\SP\RCCSD(T)-FC\CEP-31G\H4O2\ROOT\10-Dec-2023\0\\#p CCSD(
 T)/CEP-31G\\H2O_H2O_2650\\0,1\O,0,0.,-0.009833,0.\H,0,-0.799571,-0.580
 965,0.\H,0,0.799571,-0.580965,0.\O,0,0.,4.416098,0.\H,0,0.799571,4.987
 23,0.\H,0,-0.799571,4.98723,0.\\Version=ES64L-G16RevA.03\State=1-AG\HF
 =-33.64832\MP2=-33.8769088\MP3=-33.8824116\MP4D=-33.8876125\MP4DQ=-33.
 8883356\MP4SDQ=-33.8903742\CCSD=-33.8914343\CCSD(T)=-33.8940095\RMSD=5
 .126e-10\PG=D02H [C2"(O1.O1),SG(H4)]\\@


 O WAD SOME POWER THE GIFTIE GIE US       
 TO SEE OURSELS AS OTHERS SEE US.....     
 IT WOULD FRAE MONIE A BLUNDER FREE US,   
                     AND FOOLISH NOTION...
 WHAT AIRS IN DRESS AND GAIT WAD LEA'E US,
                     AND EV'N DEVOTION....
                                          
              (ROBERT BURNS 'TO A LOUSE') 
 Job cpu time:       0 days  0 hours  0 minutes  4.2 seconds.
 Elapsed time:       0 days  0 hours  0 minutes  1.3 seconds.
 File lengths (MBytes):  RWF=     72 Int=      0 D2E=      0 Chk=      8 Scr=      8
 Normal termination of Gaussian 16 at Sun Dec 10 06:27:32 2023.
