 Entering Gaussian System, Link 0=g16
 Input=H2O_H2O_1808.com
 Output=H2O_H2O_1808.log
 Initial command:
 /usr/site/hpc/x86_64/glibc-2.17/broadwell/gaussian/g16_a.03/pgi-16.5/g16/l1.exe "/gpfs/gpfs1/scratch/c7441090/OO Coord/Gau-1320662.inp" -scrdir="/gpfs/gpfs1/scratch/c7441090/OO Coord/"
 Entering Link 1 = /usr/site/hpc/x86_64/glibc-2.17/broadwell/gaussian/g16_a.03/pgi-16.5/g16/l1.exe PID=   1320663.
  
 Copyright (c) 1988,1990,1992,1993,1995,1998,2003,2009,2016,
            Gaussian, Inc.  All Rights Reserved.
  
 This is part of the Gaussian(R) 16 program.  It is based on
 the Gaussian(R) 09 system (copyright 2009, Gaussian, Inc.),
 the Gaussian(R) 03 system (copyright 2003, Gaussian, Inc.),
 the Gaussian(R) 98 system (copyright 1998, Gaussian, Inc.),
 the Gaussian(R) 94 system (copyright 1995, Gaussian, Inc.),
 the Gaussian 92(TM) system (copyright 1992, Gaussian, Inc.),
 the Gaussian 90(TM) system (copyright 1990, Gaussian, Inc.),
 the Gaussian 88(TM) system (copyright 1988, Gaussian, Inc.),
 the Gaussian 86(TM) system (copyright 1986, Carnegie Mellon
 University), and the Gaussian 82(TM) system (copyright 1983,
 Carnegie Mellon University). Gaussian is a federally registered
 trademark of Gaussian, Inc.
  
 This software contains proprietary and confidential information,
 including trade secrets, belonging to Gaussian, Inc.
  
 This software is provided under written license and may be
 used, copied, transmitted, or stored only in accord with that
 written license.
  
 The following legend is applicable only to US Government
 contracts under FAR:
  
                    RESTRICTED RIGHTS LEGEND
  
 Use, reproduction and disclosure by the US Government is
 subject to restrictions as set forth in subparagraphs (a)
 and (c) of the Commercial Computer Software - Restricted
 Rights clause in FAR 52.227-19.
  
 Gaussian, Inc.
 340 Quinnipiac St., Bldg. 40, Wallingford CT 06492
  
  
 ---------------------------------------------------------------
 Warning -- This program may not be used in any manner that
 competes with the business of Gaussian, Inc. or will provide
 assistance to any competitor of Gaussian, Inc.  The licensee
 of this program is prohibited from giving any competitor of
 Gaussian, Inc. access to this program.  By using this program,
 the user acknowledges that Gaussian, Inc. is engaged in the
 business of creating and licensing software in the field of
 computational chemistry and represents and warrants to the
 licensee that it is not a competitor of Gaussian, Inc. and that
 it will not use this program in any manner prohibited above.
 ---------------------------------------------------------------
  

 Cite this work as:
 Gaussian 16, Revision A.03,
 M. J. Frisch, G. W. Trucks, H. B. Schlegel, G. E. Scuseria, 
 M. A. Robb, J. R. Cheeseman, G. Scalmani, V. Barone, 
 G. A. Petersson, H. Nakatsuji, X. Li, M. Caricato, A. V. Marenich, 
 J. Bloino, B. G. Janesko, R. Gomperts, B. Mennucci, H. P. Hratchian, 
 J. V. Ortiz, A. F. Izmaylov, J. L. Sonnenberg, D. Williams-Young, 
 F. Ding, F. Lipparini, F. Egidi, J. Goings, B. Peng, A. Petrone, 
 T. Henderson, D. Ranasinghe, V. G. Zakrzewski, J. Gao, N. Rega, 
 G. Zheng, W. Liang, M. Hada, M. Ehara, K. Toyota, R. Fukuda, 
 J. Hasegawa, M. Ishida, T. Nakajima, Y. Honda, O. Kitao, H. Nakai, 
 T. Vreven, K. Throssell, J. A. Montgomery, Jr., J. E. Peralta, 
 F. Ogliaro, M. J. Bearpark, J. J. Heyd, E. N. Brothers, K. N. Kudin, 
 V. N. Staroverov, T. A. Keith, R. Kobayashi, J. Normand, 
 K. Raghavachari, A. P. Rendell, J. C. Burant, S. S. Iyengar, 
 J. Tomasi, M. Cossi, J. M. Millam, M. Klene, C. Adamo, R. Cammi, 
 J. W. Ochterski, R. L. Martin, K. Morokuma, O. Farkas, 
 J. B. Foresman, and D. J. Fox, Gaussian, Inc., Wallingford CT, 2016.
 
 ******************************************
 Gaussian 16:  ES64L-G16RevA.03 25-Dec-2016
                10-Dec-2023 
 ******************************************
 %NProcShared=4
 Will use up to    4 processors via shared memory.
 %Mem=4GB
 %Chk=H2O_H2O_1808.chk
 ------------------
 #p CCSD(T)/CEP-31G
 ------------------
 1/38=1,172=1/1;
 2/12=2,17=6,18=5,40=1/2;
 3/5=9,6=1,11=9,25=1,30=1/1,2,3;
 4//1;
 5/5=2,38=5/2;
 8/6=4,9=120000,10=1/1,4;
 9/5=7,14=2/13;
 6/7=2,8=2,9=2,10=2/1;
 99/5=1,9=1/99;
 Leave Link    1 at Sun Dec 10 06:58:28 2023, MaxMem=   536870912 cpu:               0.2 elap:               0.1
 (Enter /usr/site/hpc/x86_64/glibc-2.17/broadwell/gaussian/g16_a.03/pgi-16.5/g16/l101.exe)
 ------------
 H2O_H2O_1808
 ------------
 Symbolic Z-matrix:
 Charge =  0 Multiplicity = 1
 O                     0.       -0.00983   0. 
 H                    -0.79957  -0.58097   0. 
 H                     0.79957  -0.58097   0. 
 O                    -0.00492   3.51066   0. 
 H                     0.40197   4.40506   0. 
 H                    -0.98293   3.60549   0. 
 
 ITRead=  0  0  0  0  0  0
 MicOpt= -1 -1 -1 -1 -1 -1
 NAtoms=      6 NQM=        6 NQMF=       0 NMMI=      0 NMMIF=      0
                NMic=       0 NMicF=      0.
                    Isotopes and Nuclear Properties:
 (Nuclear quadrupole moments (NQMom) in fm**2, nuclear magnetic moments (NMagM)
  in nuclear magnetons)

  Atom         1           2           3           4           5           6
 IAtWgt=          16           1           1          16           1           1
 AtmWgt=  15.9949146   1.0078250   1.0078250  15.9949146   1.0078250   1.0078250
 NucSpn=           0           1           1           0           1           1
 AtZEff=  -0.0000000  -0.0000000  -0.0000000  -0.0000000  -0.0000000  -0.0000000
 NQMom=    0.0000000   0.0000000   0.0000000   0.0000000   0.0000000   0.0000000
 NMagM=    0.0000000   2.7928460   2.7928460   0.0000000   2.7928460   2.7928460
 AtZNuc=   8.0000000   1.0000000   1.0000000   8.0000000   1.0000000   1.0000000
 Leave Link  101 at Sun Dec 10 06:58:28 2023, MaxMem=   536870912 cpu:               0.3 elap:               0.1
 (Enter /usr/site/hpc/x86_64/glibc-2.17/broadwell/gaussian/g16_a.03/pgi-16.5/g16/l202.exe)
                          Input orientation:                          
 ---------------------------------------------------------------------
 Center     Atomic      Atomic             Coordinates (Angstroms)
 Number     Number       Type             X           Y           Z
 ---------------------------------------------------------------------
      1          8           0        0.000000   -0.009833    0.000000
      2          1           0       -0.799571   -0.580965    0.000000
      3          1           0        0.799571   -0.580965    0.000000
      4          8           0       -0.004917    3.510659    0.000000
      5          1           0        0.401967    4.405059    0.000000
      6          1           0       -0.982932    3.605488    0.000000
 ---------------------------------------------------------------------
                    Distance matrix (angstroms):
                    1          2          3          4          5
     1  O    0.000000
     2  H    0.982601   0.000000
     3  H    0.982601   1.599142   0.000000
     4  O    3.520495   4.168077   4.169963   0.000000
     5  H    4.433153   5.128755   5.001852   0.982602   0.000000
     6  H    3.746559   4.190467   4.550132   0.982602   1.599143
                    6
     6  H    0.000000
 Stoichiometry    H4O2
 Framework group  CS[SG(H4O2)]
 Deg. of freedom     9
 Full point group                 CS      NOp   2
 Largest Abelian subgroup         CS      NOp   2
 Largest concise Abelian subgroup C1      NOp   1
                         Standard orientation:                         
 ---------------------------------------------------------------------
 Center     Atomic      Atomic             Coordinates (Angstroms)
 Number     Number       Type             X           Y           Z
 ---------------------------------------------------------------------
      1          8           0        0.028567   -1.752636    0.000000
      2          1           0       -0.771801   -2.322651    0.000000
      3          1           0        0.827340   -2.324884    0.000000
      4          8           0        0.028567    1.767860    0.000000
      5          1           0        0.436700    2.661690    0.000000
      6          1           0       -0.949314    1.864054    0.000000
 ---------------------------------------------------------------------
 Rotational constants (GHZ):         210.0122163           4.1887374           4.1068259
 Leave Link  202 at Sun Dec 10 06:58:28 2023, MaxMem=   536870912 cpu:               0.1 elap:               0.0
 (Enter /usr/site/hpc/x86_64/glibc-2.17/broadwell/gaussian/g16_a.03/pgi-16.5/g16/l301.exe)
 Standard basis: CEP-31G (6D, 10F)
 Ernie: Thresh=  0.10000D-02 Tol=  0.10000D-05 Strict=F.
 There are    20 symmetry adapted cartesian basis functions of A'  symmetry.
 There are     4 symmetry adapted cartesian basis functions of A"  symmetry.
 There are    20 symmetry adapted basis functions of A'  symmetry.
 There are     4 symmetry adapted basis functions of A"  symmetry.
    24 basis functions,    48 primitive gaussians,    24 cartesian basis functions
     8 alpha electrons        8 beta electrons
       nuclear repulsion energy        22.5366305977 Hartrees.
 IExCor=    0 DFT=F Ex=HF Corr=None ExCW=0 ScaHFX=  1.000000
 ScaDFX=  1.000000  1.000000  1.000000  1.000000 ScalE2=  1.000000  1.000000
 IRadAn=      5 IRanWt=     -1 IRanGd=            0 ICorTp=0 IEmpDi=  4
 NAtoms=    6 NActive=    6 NUniq=    6 SFac= 1.00D+00 NAtFMM=   60 NAOKFM=F Big=F
 Integral buffers will be    131072 words long.
 Raffenetti 1 integral format.
 Two-electron integral symmetry is turned on.
 Leave Link  301 at Sun Dec 10 06:58:28 2023, MaxMem=   536870912 cpu:               0.2 elap:               0.1
 (Enter /usr/site/hpc/x86_64/glibc-2.17/broadwell/gaussian/g16_a.03/pgi-16.5/g16/l302.exe)
 NPDir=0 NMtPBC=     1 NCelOv=     1 NCel=       1 NClECP=     1 NCelD=      1
         NCelK=      1 NCelE2=     1 NClLst=     1 CellRange=     0.0.
 One-electron integrals computed using PRISM.
 One-electron integral symmetry used in STVInt
   2 Symmetry operations used in ECPInt.
 ECPInt:  NShTT=      78 NPrTT=     318 LenC2=      79 LenP2D=     277.
 LDataN:  DoStor=T MaxTD1= 2 Len=   12
 NBasis=    24 RedAO= T EigKep=  3.82D-02  NBF=    20     4
 NBsUse=    24 1.00D-06 EigRej= -1.00D+00 NBFU=    20     4
 Leave Link  302 at Sun Dec 10 06:58:28 2023, MaxMem=   536870912 cpu:               0.3 elap:               0.1
 (Enter /usr/site/hpc/x86_64/glibc-2.17/broadwell/gaussian/g16_a.03/pgi-16.5/g16/l303.exe)
 DipDrv:  MaxL=1.
 Leave Link  303 at Sun Dec 10 06:58:28 2023, MaxMem=   536870912 cpu:               0.1 elap:               0.0
 (Enter /usr/site/hpc/x86_64/glibc-2.17/broadwell/gaussian/g16_a.03/pgi-16.5/g16/l401.exe)
 ExpMin= 1.78D-01 ExpMax= 1.92D+01 ExpMxC= 1.92D+01 IAcc=3 IRadAn=         5 AccDes= 0.00D+00
 Harris functional with IExCor=  205 and IRadAn=       5 diagonalized for initial guess.
 HarFok:  IExCor=  205 AccDes= 0.00D+00 IRadAn=         5 IDoV= 1 UseB2=F ITyADJ=14
 ICtDFT=  3500011 ScaDFX=  1.000000  1.000000  1.000000  1.000000
 FoFCou: FMM=F IPFlag=           0 FMFlag=      100000 FMFlg1=           0
         NFxFlg=           0 DoJE=T BraDBF=F KetDBF=T FulRan=T
         wScrn=  0.000000 ICntrl=       500 IOpCl=  0 I1Cent=   200000004 NGrid=           0
         NMat0=    1 NMatS0=      1 NMatT0=    0 NMatD0=    1 NMtDS0=    0 NMtDT0=    0
 Petite list used in FoFCou.
 Harris En= -34.4769698883480    
 JPrj=0 DoOrth=F DoCkMO=F.
 Initial guess orbital symmetries:
       Occupied  (A') (A') (A') (A') (A') (A') (A") (A")
       Virtual   (A') (A') (A') (A') (A') (A") (A") (A') (A') (A')
                 (A') (A') (A') (A') (A') (A')
 The electronic state of the initial guess is 1-A'.
 Leave Link  401 at Sun Dec 10 06:58:28 2023, MaxMem=   536870912 cpu:               0.4 elap:               0.1
 (Enter /usr/site/hpc/x86_64/glibc-2.17/broadwell/gaussian/g16_a.03/pgi-16.5/g16/l502.exe)
 Keep R1 ints in memory in symmetry-blocked form, NReq=852304.
 FoFCou: FMM=F IPFlag=           0 FMFlag=           0 FMFlg1=           0
         NFxFlg=           0 DoJE=F BraDBF=F KetDBF=F FulRan=T
         wScrn=  0.000000 ICntrl=       600 IOpCl=  0 I1Cent=           0 NGrid=           0
         NMat0=    1 NMatS0=    300 NMatT0=    0 NMatD0=    1 NMtDS0=    0 NMtDT0=    0
 Petite list used in FoFCou.
 Closed shell SCF:
 Using DIIS extrapolation, IDIIS=  1040.
 NGot=   536870912 LenX=   536840576 LenY=   536839559
 Requested convergence on RMS density matrix=1.00D-08 within 128 cycles.
 Requested convergence on MAX density matrix=1.00D-06.
 Requested convergence on             energy=1.00D-06.
 No special actions if energy rises.

 Cycle   1  Pass 1  IDiag  1:
 E= -33.5490503922311    
 DIIS: error= 7.03D-02 at cycle   1 NSaved=   1.
 NSaved= 1 IEnMin= 1 EnMin= -33.5490503922311     IErMin= 1 ErrMin= 7.03D-02
 ErrMax= 7.03D-02  0.00D+00 EMaxC= 1.00D-01 BMatC= 1.04D-01 BMatP= 1.04D-01
 IDIUse=3 WtCom= 2.97D-01 WtEn= 7.03D-01
 Coeff-Com:  0.100D+01
 Coeff-En:   0.100D+01
 Coeff:      0.100D+01
 Gap=     0.591 Goal=   None    Shift=    0.000
 GapD=    0.591 DampG=2.000 DampE=0.500 DampFc=1.0000 IDamp=-1.
 RMSDP=1.52D-02 MaxDP=1.17D-01              OVMax= 1.03D-01

 Cycle   2  Pass 1  IDiag  1:
 E= -33.6137996313383     Delta-E=       -0.064749239107 Rises=F Damp=F
 DIIS: error= 3.79D-02 at cycle   2 NSaved=   2.
 NSaved= 2 IEnMin= 2 EnMin= -33.6137996313383     IErMin= 2 ErrMin= 3.79D-02
 ErrMax= 3.79D-02  0.00D+00 EMaxC= 1.00D-01 BMatC= 3.93D-02 BMatP= 1.04D-01
 IDIUse=3 WtCom= 6.21D-01 WtEn= 3.79D-01
 Coeff-Com:  0.378D+00 0.622D+00
 Coeff-En:   0.104D+00 0.896D+00
 Coeff:      0.274D+00 0.726D+00
 Gap=     0.696 Goal=   None    Shift=    0.000
 RMSDP=6.55D-03 MaxDP=5.53D-02 DE=-6.47D-02 OVMax= 3.75D-02

 Cycle   3  Pass 1  IDiag  1:
 E= -33.6451197841496     Delta-E=       -0.031320152811 Rises=F Damp=F
 DIIS: error= 7.59D-03 at cycle   3 NSaved=   3.
 NSaved= 3 IEnMin= 3 EnMin= -33.6451197841496     IErMin= 3 ErrMin= 7.59D-03
 ErrMax= 7.59D-03  0.00D+00 EMaxC= 1.00D-01 BMatC= 1.00D-03 BMatP= 3.93D-02
 IDIUse=3 WtCom= 9.24D-01 WtEn= 7.59D-02
 Coeff-Com: -0.114D+00-0.929D-02 0.112D+01
 Coeff-En:   0.000D+00 0.000D+00 0.100D+01
 Coeff:     -0.105D+00-0.859D-02 0.111D+01
 Gap=     0.688 Goal=   None    Shift=    0.000
 RMSDP=1.20D-03 MaxDP=9.79D-03 DE=-3.13D-02 OVMax= 8.62D-03

 Cycle   4  Pass 1  IDiag  1:
 E= -33.6461268943971     Delta-E=       -0.001007110247 Rises=F Damp=F
 DIIS: error= 8.19D-04 at cycle   4 NSaved=   4.
 NSaved= 4 IEnMin= 4 EnMin= -33.6461268943971     IErMin= 4 ErrMin= 8.19D-04
 ErrMax= 8.19D-04  0.00D+00 EMaxC= 1.00D-01 BMatC= 6.95D-06 BMatP= 1.00D-03
 IDIUse=3 WtCom= 9.92D-01 WtEn= 8.19D-03
 Coeff-Com:  0.423D-01-0.207D-01-0.498D+00 0.148D+01
 Coeff-En:   0.000D+00 0.000D+00 0.000D+00 0.100D+01
 Coeff:      0.419D-01-0.205D-01-0.494D+00 0.147D+01
 Gap=     0.690 Goal=   None    Shift=    0.000
 RMSDP=2.45D-04 MaxDP=2.13D-03 DE=-1.01D-03 OVMax= 1.01D-03

 Cycle   5  Pass 1  IDiag  1:
 E= -33.6461415609863     Delta-E=       -0.000014666589 Rises=F Damp=F
 DIIS: error= 6.14D-05 at cycle   5 NSaved=   5.
 NSaved= 5 IEnMin= 5 EnMin= -33.6461415609863     IErMin= 5 ErrMin= 6.14D-05
 ErrMax= 6.14D-05  0.00D+00 EMaxC= 1.00D-01 BMatC= 5.69D-08 BMatP= 6.95D-06
 IDIUse=1 WtCom= 1.00D+00 WtEn= 0.00D+00
 Coeff-Com: -0.740D-02 0.394D-02 0.868D-01-0.316D+00 0.123D+01
 Coeff:     -0.740D-02 0.394D-02 0.868D-01-0.316D+00 0.123D+01
 Gap=     0.690 Goal=   None    Shift=    0.000
 RMSDP=1.94D-05 MaxDP=1.93D-04 DE=-1.47D-05 OVMax= 1.35D-04

 Cycle   6  Pass 1  IDiag  1:
 E= -33.6461417050131     Delta-E=       -0.000000144027 Rises=F Damp=F
 DIIS: error= 1.28D-05 at cycle   6 NSaved=   6.
 NSaved= 6 IEnMin= 6 EnMin= -33.6461417050131     IErMin= 6 ErrMin= 1.28D-05
 ErrMax= 1.28D-05  0.00D+00 EMaxC= 1.00D-01 BMatC= 3.11D-09 BMatP= 5.69D-08
 IDIUse=1 WtCom= 1.00D+00 WtEn= 0.00D+00
 Coeff-Com:  0.690D-03-0.211D-03-0.717D-02 0.352D-01-0.315D+00 0.129D+01
 Coeff:      0.690D-03-0.211D-03-0.717D-02 0.352D-01-0.315D+00 0.129D+01
 Gap=     0.690 Goal=   None    Shift=    0.000
 RMSDP=4.32D-06 MaxDP=4.88D-05 DE=-1.44D-07 OVMax= 3.86D-05

 Cycle   7  Pass 1  IDiag  1:
 E= -33.6461417128101     Delta-E=       -0.000000007797 Rises=F Damp=F
 DIIS: error= 2.96D-06 at cycle   7 NSaved=   7.
 NSaved= 7 IEnMin= 7 EnMin= -33.6461417128101     IErMin= 7 ErrMin= 2.96D-06
 ErrMax= 2.96D-06  0.00D+00 EMaxC= 1.00D-01 BMatC= 3.68D-10 BMatP= 3.11D-09
 IDIUse=1 WtCom= 1.00D+00 WtEn= 0.00D+00
 Coeff-Com:  0.708D-03-0.348D-03-0.810D-02 0.308D-01-0.150D+00 0.266D+00
 Coeff-Com:  0.861D+00
 Coeff:      0.708D-03-0.348D-03-0.810D-02 0.308D-01-0.150D+00 0.266D+00
 Coeff:      0.861D+00
 Gap=     0.690 Goal=   None    Shift=    0.000
 RMSDP=1.10D-06 MaxDP=8.73D-06 DE=-7.80D-09 OVMax= 9.35D-06

 Cycle   8  Pass 1  IDiag  1:
 E= -33.6461417133949     Delta-E=       -0.000000000585 Rises=F Damp=F
 DIIS: error= 1.15D-06 at cycle   8 NSaved=   8.
 NSaved= 8 IEnMin= 8 EnMin= -33.6461417133949     IErMin= 8 ErrMin= 1.15D-06
 ErrMax= 1.15D-06  0.00D+00 EMaxC= 1.00D-01 BMatC= 3.61D-11 BMatP= 3.68D-10
 IDIUse=1 WtCom= 1.00D+00 WtEn= 0.00D+00
 Coeff-Com:  0.991D-06-0.352D-04-0.165D-03-0.972D-03 0.333D-01-0.173D+00
 Coeff-Com:  0.225D-01 0.112D+01
 Coeff:      0.991D-06-0.352D-04-0.165D-03-0.972D-03 0.333D-01-0.173D+00
 Coeff:      0.225D-01 0.112D+01
 Gap=     0.690 Goal=   None    Shift=    0.000
 RMSDP=6.19D-07 MaxDP=4.04D-06 DE=-5.85D-10 OVMax= 4.44D-06

 Cycle   9  Pass 1  IDiag  1:
 E= -33.6461417134776     Delta-E=       -0.000000000083 Rises=F Damp=F
 DIIS: error= 2.35D-07 at cycle   9 NSaved=   9.
 NSaved= 9 IEnMin= 9 EnMin= -33.6461417134776     IErMin= 9 ErrMin= 2.35D-07
 ErrMax= 2.35D-07  0.00D+00 EMaxC= 1.00D-01 BMatC= 1.04D-12 BMatP= 3.61D-11
 IDIUse=1 WtCom= 1.00D+00 WtEn= 0.00D+00
 Coeff-Com:  0.232D-05 0.113D-04 0.388D-04 0.384D-03-0.120D-01 0.655D-01
 Coeff-Com: -0.330D-01-0.464D+00 0.144D+01
 Coeff:      0.232D-05 0.113D-04 0.388D-04 0.384D-03-0.120D-01 0.655D-01
 Coeff:     -0.330D-01-0.464D+00 0.144D+01
 Gap=     0.690 Goal=   None    Shift=    0.000
 RMSDP=1.64D-07 MaxDP=7.49D-07 DE=-8.26D-11 OVMax= 1.09D-06

 Cycle  10  Pass 1  IDiag  1:
 E= -33.6461417134807     Delta-E=       -0.000000000003 Rises=F Damp=F
 DIIS: error= 9.64D-09 at cycle  10 NSaved=  10.
 NSaved=10 IEnMin=10 EnMin= -33.6461417134807     IErMin=10 ErrMin= 9.64D-09
 ErrMax= 9.64D-09  0.00D+00 EMaxC= 1.00D-01 BMatC= 3.30D-15 BMatP= 1.04D-12
 IDIUse=1 WtCom= 1.00D+00 WtEn= 0.00D+00
 Coeff-Com:  0.268D-06-0.235D-05-0.156D-04-0.411D-04 0.214D-02-0.123D-01
 Coeff-Com:  0.668D-02 0.869D-01-0.314D+00 0.123D+01
 Coeff:      0.268D-06-0.235D-05-0.156D-04-0.411D-04 0.214D-02-0.123D-01
 Coeff:      0.668D-02 0.869D-01-0.314D+00 0.123D+01
 Gap=     0.690 Goal=   None    Shift=    0.000
 RMSDP=1.22D-08 MaxDP=6.28D-08 DE=-3.14D-12 OVMax= 7.04D-08

 Cycle  11  Pass 1  IDiag  1:
 E= -33.6461417134807     Delta-E=        0.000000000000 Rises=F Damp=F
 DIIS: error= 4.90D-10 at cycle  11 NSaved=  11.
 NSaved=11 IEnMin=10 EnMin= -33.6461417134807     IErMin=11 ErrMin= 4.90D-10
 ErrMax= 4.90D-10  0.00D+00 EMaxC= 1.00D-01 BMatC= 1.08D-17 BMatP= 3.30D-15
 IDIUse=1 WtCom= 1.00D+00 WtEn= 0.00D+00
 Coeff-Com: -0.928D-07 0.390D-06 0.304D-05 0.494D-05-0.349D-03 0.202D-02
 Coeff-Com: -0.114D-02-0.144D-01 0.532D-01-0.240D+00 0.120D+01
 Coeff:     -0.928D-07 0.390D-06 0.304D-05 0.494D-05-0.349D-03 0.202D-02
 Coeff:     -0.114D-02-0.144D-01 0.532D-01-0.240D+00 0.120D+01
 Gap=     0.690 Goal=   None    Shift=    0.000
 RMSDP=4.88D-10 MaxDP=2.63D-09 DE= 4.26D-14 OVMax= 2.48D-09

 SCF Done:  E(RHF) =  -33.6461417135     A.U. after   11 cycles
            NFock= 11  Conv=0.49D-09     -V/T= 2.2572
 KE= 2.676357407863D+01 PE=-1.269244338568D+02 EE= 4.397808746706D+01
 Leave Link  502 at Sun Dec 10 06:58:28 2023, MaxMem=   536870912 cpu:               0.3 elap:               0.1
 (Enter /usr/site/hpc/x86_64/glibc-2.17/broadwell/gaussian/g16_a.03/pgi-16.5/g16/l801.exe)
 Windowed orbitals will be sorted by symmetry type.
 Range of M.O.s used for correlation:     1    24
 NBasis=    24 NAE=     8 NBE=     8 NFC=     0 NFV=     0
 NROrb=     24 NOA=     8 NOB=     8 NVA=    16 NVB=    16
 Leave Link  801 at Sun Dec 10 06:58:28 2023, MaxMem=   536870912 cpu:               0.1 elap:               0.0
 (Enter /usr/site/hpc/x86_64/glibc-2.17/broadwell/gaussian/g16_a.03/pgi-16.5/g16/l804.exe)
 Closed-shell transformation, MDV=   536870912 ITran=4 ISComp=2.
 Unit  1 TFree=       1025975 TCopy=        210600.
 Semi-Direct transformation.
 ModeAB=           2 MOrb=             8 LenV=     536742021
 LASXX=        22470 LTotXX=       22470 LenRXX=       22470
 LTotAB=       26208 MaxLAS=       57600 LenRXY=       57600
 NonZer=       62016 LenScr=      524288 LnRSAI=           0
 LnScr1=           0 LExtra=           0 Total=       604358
 MaxDsk=          -1 SrtSym=           F ITran=            4
 DoSDTr:  NPSUse=  4
 JobTyp=0 Pass  1:  I=   1 to   8.
 (rs|ai) integrals will be sorted in core.
 Complete sort for first half transformation.
 First half transformation complete.
 Complete sort for second half transformation.
 Second half transformation complete.
 Spin components of T(2) and E(2):
     alpha-alpha T2 =       0.9096329760D-02 E2=     -0.2592829485D-01
     alpha-beta  T2 =       0.6022383675D-01 E2=     -0.1770203158D+00
     beta-beta   T2 =       0.9096329760D-02 E2=     -0.2592829485D-01
 ANorm=    0.1038468341D+01
 E2 =    -0.2288769055D+00 EUMP2 =    -0.33875018618992D+02
 Leave Link  804 at Sun Dec 10 06:58:28 2023, MaxMem=   536870912 cpu:               0.2 elap:               0.1
 (Enter /usr/site/hpc/x86_64/glibc-2.17/broadwell/gaussian/g16_a.03/pgi-16.5/g16/l913.exe)
 CIDS:  MDV=   536870912.
 IFCWin=0 IBDFC=1 NFBD=     0     0 NFCmp=     0     0 NFFFC=     0     0
 Using DD3R+UMP44R for 1st iteration.
 Using DD4RQ for 2nd and later iterations.
 Keep R2 and R3 ints in memory in symmetry-blocked form, NReq=864912.
 FoFCou: FMM=F IPFlag=           0 FMFlag=           0 FMFlg1=           0
         NFxFlg=           0 DoJE=F BraDBF=F KetDBF=F FulRan=T
         wScrn=  0.000000 ICntrl=       600 IOpCl=  0 I1Cent=           0 NGrid=           0
         NMat0=    1 NMatS0=    300 NMatT0=    0 NMatD0=    1 NMtDS0=    0 NMtDT0=    0
 Petite list used in FoFCou.
 CIDS: In Core Option IDoMem=           1.
 CCSD(T)
 =======
 Iterations=  50 Convergence= 0.100D-06
 Produce multiple copies of IABC intergrals
 Iteration Nr.   1
 **********************
 DD1Dir will call FoFMem   1 times, MxPair=        72
 NAB=    36 NAA=     0 NBB=     0.
 MP4(R+Q)= -0.70502029D-03
 Maximum subspace dimension=  5
 A-vector RMS=  5.8422235D-03 Max=  1.1950134D-02 conv= 1.00D-05.
 RLE energy=       -0.2349981596
 E3=       -0.55330651D-02        EUMP3=      -0.33880551684D+02
 E4(DQ)=   -0.59292708D-02        UMP4(DQ)=   -0.33886480955D+02
 E4(SDQ)=  -0.79952988D-02        UMP4(SDQ)=  -0.33888546983D+02
 VARIATIONAL ENERGIES WITH THE FIRST-ORDER WAVEFUNCTION:
 DE(Corr)= -0.23483905     E(Corr)=     -33.880980768    
 NORM(A)=   0.10419698D+01
 Iteration Nr.   2
 **********************
 DD1Dir will call FoFMem   1 times, MxPair=        72
 NAB=    36 NAA=     0 NBB=     0.
 A-vector RMS=  9.9102384D-04 Max=  2.7345007D-03 conv= 1.00D-05.
 RLE energy=       -0.2428580139
 DE(Corr)= -0.24090284     E(CORR)=     -33.887044557     Delta=-6.06D-03
 NORM(A)=   0.10458331D+01
 Iteration Nr.   3
 **********************
 DD1Dir will call FoFMem   1 times, MxPair=        72
 NAB=    36 NAA=     0 NBB=     0.
 A-vector RMS=  4.0557179D-04 Max=  1.3966096D-03 conv= 1.00D-05.
 RLE energy=       -0.2434152394
 DE(Corr)= -0.24295769     E(CORR)=     -33.889099401     Delta=-2.05D-03
 NORM(A)=   0.10464140D+01
 Iteration Nr.   4
 **********************
 DD1Dir will call FoFMem   1 times, MxPair=        72
 NAB=    36 NAA=     0 NBB=     0.
 A-vector RMS=  1.0091624D-04 Max=  3.2694068D-04 conv= 1.00D-05.
 RLE energy=       -0.2434647735
 DE(Corr)= -0.24342728     E(CORR)=     -33.889568997     Delta=-4.70D-04
 NORM(A)=   0.10464947D+01
 Iteration Nr.   5
 **********************
 DD1Dir will call FoFMem   1 times, MxPair=        72
 NAB=    36 NAA=     0 NBB=     0.
 A-vector RMS=  4.5249005D-05 Max=  1.8482182D-04 conv= 1.00D-05.
 RLE energy=       -0.2434631759
 DE(Corr)= -0.24346070     E(CORR)=     -33.889602418     Delta=-3.34D-05
 NORM(A)=   0.10465072D+01
 Iteration Nr.   6
 **********************
 DD1Dir will call FoFMem   1 times, MxPair=        72
 NAB=    36 NAA=     0 NBB=     0.
 A-vector RMS=  1.3541214D-05 Max=  5.9806214D-05 conv= 1.00D-05.
 RLE energy=       -0.2434614689
 DE(Corr)= -0.24346316     E(CORR)=     -33.889604874     Delta=-2.46D-06
 NORM(A)=   0.10465109D+01
 Iteration Nr.   7
 **********************
 DD1Dir will call FoFMem   1 times, MxPair=        72
 NAB=    36 NAA=     0 NBB=     0.
 A-vector RMS=  4.3481490D-06 Max=  1.9637333D-05 conv= 1.00D-05.
 RLE energy=       -0.2434625646
 DE(Corr)= -0.24346248     E(CORR)=     -33.889604193     Delta= 6.81D-07
 NORM(A)=   0.10465124D+01
 Iteration Nr.   8
 **********************
 DD1Dir will call FoFMem   1 times, MxPair=        72
 NAB=    36 NAA=     0 NBB=     0.
 A-vector RMS=  1.3172156D-06 Max=  5.4284383D-06 conv= 1.00D-05.
 RLE energy=       -0.2434621911
 DE(Corr)= -0.24346233     E(CORR)=     -33.889604046     Delta= 1.47D-07
 NORM(A)=   0.10465127D+01
 Iteration Nr.   9
 **********************
 DD1Dir will call FoFMem   1 times, MxPair=        72
 NAB=    36 NAA=     0 NBB=     0.
 A-vector RMS=  2.9774817D-07 Max=  1.1295004D-06 conv= 1.00D-05.
 RLE energy=       -0.2434623568
 DE(Corr)= -0.24346238     E(CORR)=     -33.889604094     Delta=-4.83D-08
 NORM(A)=   0.10465128D+01
 CI/CC converged in    9 iterations to DelEn=-4.83D-08 Conv= 1.00D-07 ErrA1= 2.98D-07 Conv= 1.00D-05
 Wavefunction amplitudes converged. E(Corr)=     -33.889604094    
 Largest amplitude= 4.48D-02
 IPart=  4 IA=    2   12.50% done.
 IPart=  2 IA=    3   24.17% done.
 IPart=  3 IA=    4   35.00% done.
 IPart=  3 IA=    5   45.00% done.
 IPart=  2 IA=    6   54.17% done.
 IPart=  1 IA=    7   62.50% done.
 IPart=  4 IA=    8   70.00% done.
 IPart=  4 IA=   10   82.50% done.
 IPart=  3 IA=   12   91.67% done.
 Time for triples=        0.23 seconds.
 T4(CCSD)= -0.31367186D-02
 T5(CCSD)=  0.53592393D-03
 CCSD(T)= -0.33892204889D+02
 Discarding MO integrals.
 Leave Link  913 at Sun Dec 10 06:58:29 2023, MaxMem=   536870912 cpu:               0.8 elap:               0.2
 (Enter /usr/site/hpc/x86_64/glibc-2.17/broadwell/gaussian/g16_a.03/pgi-16.5/g16/l601.exe)
 Copying SCF densities to generalized density rwf, IOpCl= 0 IROHF=0.

 **********************************************************************

            Population analysis using the SCF density.

 **********************************************************************

 Orbital symmetries:
       Occupied  (A') (A') (A') (A') (A') (A') (A") (A")
       Virtual   (A') (A') (A') (A') (A') (A") (A") (A') (A') (A')
                 (A') (A') (A') (A') (A') (A')
 The electronic state is 1-A'.
 Alpha  occ. eigenvalues --   -1.34097  -1.33711  -0.69719  -0.69310  -0.53829
 Alpha  occ. eigenvalues --   -0.52770  -0.48607  -0.48190
 Alpha virt. eigenvalues --    0.20848   0.22287   0.31618   0.31967   0.76421
 Alpha virt. eigenvalues --    0.80762   0.83538   0.85404   0.90544   1.01236
 Alpha virt. eigenvalues --    1.18576   1.19089   1.23135   1.23523   2.58225
 Alpha virt. eigenvalues --    2.59715
          Condensed to atoms (all electrons):
               1          2          3          4          5          6
     1  O    6.203872   0.256829   0.261628  -0.000067   0.000020   0.000101
     2  H    0.256829   0.409334  -0.023780   0.000026  -0.000000  -0.000007
     3  H    0.261628  -0.023780   0.397223   0.000024  -0.000001  -0.000002
     4  O   -0.000067   0.000026   0.000024   6.202623   0.254940   0.262592
     5  H    0.000020  -0.000000  -0.000001   0.254940   0.413564  -0.024082
     6  H    0.000101  -0.000007  -0.000002   0.262592  -0.024082   0.396944
 Mulliken charges:
               1
     1  O   -0.722383
     2  H    0.357599
     3  H    0.364909
     4  O   -0.720138
     5  H    0.355559
     6  H    0.364454
 Sum of Mulliken charges =  -0.00000
 Mulliken charges with hydrogens summed into heavy atoms:
               1
     1  O    0.000125
     4  O   -0.000125
 Electronic spatial extent (au):  <R**2>=            230.9729
 Charge=             -0.0000 electrons
 Dipole moment (field-independent basis, Debye):
    X=             -1.2951    Y=             -0.3750    Z=              0.0000  Tot=              1.3484
 Quadrupole moment (field-independent basis, Debye-Ang):
   XX=             -8.6264   YY=              5.5715   ZZ=            -14.9844
   XY=             -1.6384   XZ=              0.0000   YZ=              0.0000
 Traceless Quadrupole moment (field-independent basis, Debye-Ang):
   XX=             -2.6133   YY=             11.5846   ZZ=             -8.9713
   XY=             -1.6384   XZ=              0.0000   YZ=              0.0000
 Octapole moment (field-independent basis, Debye-Ang**2):
  XXX=             -1.6916  YYY=             -0.3420  ZZZ=              0.0000  XYY=             -0.3260
  XXY=             -1.7619  XXZ=              0.0000  XZZ=             -0.2398  YZZ=             -0.0735
  YYZ=              0.0000  XYZ=              0.0000
 Hexadecapole moment (field-independent basis, Debye-Ang**3):
 XXXX=            -11.9295 YYYY=           -120.7725 ZZZZ=            -12.2148 XXXY=             -2.1835
 XXXZ=              0.0000 YYYX=              3.8766 YYYZ=              0.0000 ZZZX=              0.0000
 ZZZY=              0.0000 XXYY=            -26.9835 XXZZ=             -4.6134 YYZZ=            -53.4145
 XXYZ=              0.0000 YYXZ=              0.0000 ZZXY=              0.2527
 N-N= 2.253663059767D+01 E-N=-1.269244338615D+02  KE= 2.676357407863D+01
 Symmetry A'   KE= 1.787620016042D+01
 Symmetry A"   KE= 8.887373918218D+00
 Leave Link  601 at Sun Dec 10 06:58:29 2023, MaxMem=   536870912 cpu:               0.1 elap:               0.0
 (Enter /usr/site/hpc/x86_64/glibc-2.17/broadwell/gaussian/g16_a.03/pgi-16.5/g16/l9999.exe)
 1\1\GINC-N033\SP\RCCSD(T)-FC\CEP-31G\H4O2\ROOT\10-Dec-2023\0\\#p CCSD(
 T)/CEP-31G\\H2O_H2O_1808\\0,1\O,0,0.,-0.009833,0.\H,0,-0.799571,-0.580
 965,0.\H,0,0.799571,-0.580965,0.\O,0,-0.004917,3.510659,0.\H,0,0.40196
 7,4.405059,0.\H,0,-0.982932,3.605488,0.\\Version=ES64L-G16RevA.03\Stat
 e=1-A'\HF=-33.6461417\MP2=-33.8750186\MP3=-33.8805517\MP4D=-33.8857759
 \MP4DQ=-33.886481\MP4SDQ=-33.888547\CCSD=-33.8896041\CCSD(T)=-33.89220
 49\RMSD=4.885e-10\PG=CS [SG(H4O2)]\\@


 LIVE PURE, SPEAK TRUE, RIGHT WRONG, FOLLOW THE KING...
 ELSE, WHEREFORE BORN......
           IDYLLS OF THE KING, TENNYSON
 Job cpu time:       0 days  0 hours  0 minutes  3.2 seconds.
 Elapsed time:       0 days  0 hours  0 minutes  1.0 seconds.
 File lengths (MBytes):  RWF=     72 Int=      0 D2E=      0 Chk=      8 Scr=      8
 Normal termination of Gaussian 16 at Sun Dec 10 06:58:29 2023.
