 Entering Gaussian System, Link 0=g16
 Input=H2O_H2O_4914.com
 Output=H2O_H2O_4914.log
 Initial command:
 /usr/site/hpc/x86_64/glibc-2.17/broadwell/gaussian/g16_a.03/pgi-16.5/g16/l1.exe "/gpfs/gpfs1/scratch/c7441090/OO Coord/Gau-1838535.inp" -scrdir="/gpfs/gpfs1/scratch/c7441090/OO Coord/"
 Entering Link 1 = /usr/site/hpc/x86_64/glibc-2.17/broadwell/gaussian/g16_a.03/pgi-16.5/g16/l1.exe PID=   1838536.
  
 Copyright (c) 1988,1990,1992,1993,1995,1998,2003,2009,2016,
            Gaussian, Inc.  All Rights Reserved.
  
 This is part of the Gaussian(R) 16 program.  It is based on
 the Gaussian(R) 09 system (copyright 2009, Gaussian, Inc.),
 the Gaussian(R) 03 system (copyright 2003, Gaussian, Inc.),
 the Gaussian(R) 98 system (copyright 1998, Gaussian, Inc.),
 the Gaussian(R) 94 system (copyright 1995, Gaussian, Inc.),
 the Gaussian 92(TM) system (copyright 1992, Gaussian, Inc.),
 the Gaussian 90(TM) system (copyright 1990, Gaussian, Inc.),
 the Gaussian 88(TM) system (copyright 1988, Gaussian, Inc.),
 the Gaussian 86(TM) system (copyright 1986, Carnegie Mellon
 University), and the Gaussian 82(TM) system (copyright 1983,
 Carnegie Mellon University). Gaussian is a federally registered
 trademark of Gaussian, Inc.
  
 This software contains proprietary and confidential information,
 including trade secrets, belonging to Gaussian, Inc.
  
 This software is provided under written license and may be
 used, copied, transmitted, or stored only in accord with that
 written license.
  
 The following legend is applicable only to US Government
 contracts under FAR:
  
                    RESTRICTED RIGHTS LEGEND
  
 Use, reproduction and disclosure by the US Government is
 subject to restrictions as set forth in subparagraphs (a)
 and (c) of the Commercial Computer Software - Restricted
 Rights clause in FAR 52.227-19.
  
 Gaussian, Inc.
 340 Quinnipiac St., Bldg. 40, Wallingford CT 06492
  
  
 ---------------------------------------------------------------
 Warning -- This program may not be used in any manner that
 competes with the business of Gaussian, Inc. or will provide
 assistance to any competitor of Gaussian, Inc.  The licensee
 of this program is prohibited from giving any competitor of
 Gaussian, Inc. access to this program.  By using this program,
 the user acknowledges that Gaussian, Inc. is engaged in the
 business of creating and licensing software in the field of
 computational chemistry and represents and warrants to the
 licensee that it is not a competitor of Gaussian, Inc. and that
 it will not use this program in any manner prohibited above.
 ---------------------------------------------------------------
  

 Cite this work as:
 Gaussian 16, Revision A.03,
 M. J. Frisch, G. W. Trucks, H. B. Schlegel, G. E. Scuseria, 
 M. A. Robb, J. R. Cheeseman, G. Scalmani, V. Barone, 
 G. A. Petersson, H. Nakatsuji, X. Li, M. Caricato, A. V. Marenich, 
 J. Bloino, B. G. Janesko, R. Gomperts, B. Mennucci, H. P. Hratchian, 
 J. V. Ortiz, A. F. Izmaylov, J. L. Sonnenberg, D. Williams-Young, 
 F. Ding, F. Lipparini, F. Egidi, J. Goings, B. Peng, A. Petrone, 
 T. Henderson, D. Ranasinghe, V. G. Zakrzewski, J. Gao, N. Rega, 
 G. Zheng, W. Liang, M. Hada, M. Ehara, K. Toyota, R. Fukuda, 
 J. Hasegawa, M. Ishida, T. Nakajima, Y. Honda, O. Kitao, H. Nakai, 
 T. Vreven, K. Throssell, J. A. Montgomery, Jr., J. E. Peralta, 
 F. Ogliaro, M. J. Bearpark, J. J. Heyd, E. N. Brothers, K. N. Kudin, 
 V. N. Staroverov, T. A. Keith, R. Kobayashi, J. Normand, 
 K. Raghavachari, A. P. Rendell, J. C. Burant, S. S. Iyengar, 
 J. Tomasi, M. Cossi, J. M. Millam, M. Klene, C. Adamo, R. Cammi, 
 J. W. Ochterski, R. L. Martin, K. Morokuma, O. Farkas, 
 J. B. Foresman, and D. J. Fox, Gaussian, Inc., Wallingford CT, 2016.
 
 ******************************************
 Gaussian 16:  ES64L-G16RevA.03 25-Dec-2016
                10-Dec-2023 
 ******************************************
 %NProcShared=4
 Will use up to    4 processors via shared memory.
 %Mem=4GB
 %Chk=H2O_H2O_4914.chk
 ------------------
 #p CCSD(T)/CEP-31G
 ------------------
 1/38=1,172=1/1;
 2/12=2,17=6,18=5,40=1/2;
 3/5=9,6=1,11=9,25=1,30=1/1,2,3;
 4//1;
 5/5=2,38=5/2;
 8/6=4,9=120000,10=1/1,4;
 9/5=7,14=2/13;
 6/7=2,8=2,9=2,10=2/1;
 99/5=1,9=1/99;
 Leave Link    1 at Sun Dec 10 07:10:14 2023, MaxMem=   536870912 cpu:               0.2 elap:               0.1
 (Enter /usr/site/hpc/x86_64/glibc-2.17/broadwell/gaussian/g16_a.03/pgi-16.5/g16/l101.exe)
 ------------
 H2O_H2O_4914
 ------------
 Symbolic Z-matrix:
 Charge =  0 Multiplicity = 1
 O                     0.       -0.00983   0. 
 H                    -0.79957  -0.58097   0. 
 H                     0.79957  -0.58097   0. 
 O                    -0.0078    6.80551   0. 
 H                     0.02584   7.78754   0. 
 H                    -0.94766   6.51886   0. 
 
 ITRead=  0  0  0  0  0  0
 MicOpt= -1 -1 -1 -1 -1 -1
 NAtoms=      6 NQM=        6 NQMF=       0 NMMI=      0 NMMIF=      0
                NMic=       0 NMicF=      0.
                    Isotopes and Nuclear Properties:
 (Nuclear quadrupole moments (NQMom) in fm**2, nuclear magnetic moments (NMagM)
  in nuclear magnetons)

  Atom         1           2           3           4           5           6
 IAtWgt=          16           1           1          16           1           1
 AtmWgt=  15.9949146   1.0078250   1.0078250  15.9949146   1.0078250   1.0078250
 NucSpn=           0           1           1           0           1           1
 AtZEff=  -0.0000000  -0.0000000  -0.0000000  -0.0000000  -0.0000000  -0.0000000
 NQMom=    0.0000000   0.0000000   0.0000000   0.0000000   0.0000000   0.0000000
 NMagM=    0.0000000   2.7928460   2.7928460   0.0000000   2.7928460   2.7928460
 AtZNuc=   8.0000000   1.0000000   1.0000000   8.0000000   1.0000000   1.0000000
 Leave Link  101 at Sun Dec 10 07:10:14 2023, MaxMem=   536870912 cpu:               0.3 elap:               0.1
 (Enter /usr/site/hpc/x86_64/glibc-2.17/broadwell/gaussian/g16_a.03/pgi-16.5/g16/l202.exe)
                          Input orientation:                          
 ---------------------------------------------------------------------
 Center     Atomic      Atomic             Coordinates (Angstroms)
 Number     Number       Type             X           Y           Z
 ---------------------------------------------------------------------
      1          8           0        0.000000   -0.009833    0.000000
      2          1           0       -0.799571   -0.580965    0.000000
      3          1           0        0.799571   -0.580965    0.000000
      4          8           0       -0.007801    6.805514    0.000000
      5          1           0        0.025838    7.787540    0.000000
      6          1           0       -0.947659    6.518855    0.000000
 ---------------------------------------------------------------------
                    Distance matrix (angstroms):
                    1          2          3          4          5
     1  O    0.000000
     2  H    0.982601   0.000000
     3  H    0.982601   1.599142   0.000000
     4  O    6.815351   7.428793   7.430472   0.000000
     5  H    7.797416   8.409113   8.404198   0.982602   0.000000
     6  H    6.597107   7.101364   7.311652   0.982602   1.599143
                    6
     6  H    0.000000
 Stoichiometry    H4O2
 Framework group  CS[SG(H4O2)]
 Deg. of freedom     9
 Full point group                 CS      NOp   2
 Largest Abelian subgroup         CS      NOp   2
 Largest concise Abelian subgroup C1      NOp   1
                         Standard orientation:                         
 ---------------------------------------------------------------------
 Center     Atomic      Atomic             Coordinates (Angstroms)
 Number     Number       Type             X           Y           Z
 ---------------------------------------------------------------------
      1          8           0        0.045336   -3.385383    0.000000
      2          1           0       -0.754888   -3.955599    0.000000
      3          1           0        0.844253   -3.957430    0.000000
      4          8           0        0.045336    3.429969    0.000000
      5          1           0        0.080100    4.411956    0.000000
      6          1           0       -0.894849    3.144386    0.000000
 ---------------------------------------------------------------------
 Rotational constants (GHZ):         236.2509141           1.1681282           1.1623809
 Leave Link  202 at Sun Dec 10 07:10:14 2023, MaxMem=   536870912 cpu:               0.1 elap:               0.0
 (Enter /usr/site/hpc/x86_64/glibc-2.17/broadwell/gaussian/g16_a.03/pgi-16.5/g16/l301.exe)
 Standard basis: CEP-31G (6D, 10F)
 Ernie: Thresh=  0.10000D-02 Tol=  0.10000D-05 Strict=F.
 There are    20 symmetry adapted cartesian basis functions of A'  symmetry.
 There are     4 symmetry adapted cartesian basis functions of A"  symmetry.
 There are    20 symmetry adapted basis functions of A'  symmetry.
 There are     4 symmetry adapted basis functions of A"  symmetry.
    24 basis functions,    48 primitive gaussians,    24 cartesian basis functions
     8 alpha electrons        8 beta electrons
       nuclear repulsion energy        18.3981360067 Hartrees.
 IExCor=    0 DFT=F Ex=HF Corr=None ExCW=0 ScaHFX=  1.000000
 ScaDFX=  1.000000  1.000000  1.000000  1.000000 ScalE2=  1.000000  1.000000
 IRadAn=      5 IRanWt=     -1 IRanGd=            0 ICorTp=0 IEmpDi=  4
 NAtoms=    6 NActive=    6 NUniq=    6 SFac= 1.00D+00 NAtFMM=   60 NAOKFM=F Big=F
 Integral buffers will be    131072 words long.
 Raffenetti 1 integral format.
 Two-electron integral symmetry is turned on.
 Leave Link  301 at Sun Dec 10 07:10:14 2023, MaxMem=   536870912 cpu:               0.2 elap:               0.1
 (Enter /usr/site/hpc/x86_64/glibc-2.17/broadwell/gaussian/g16_a.03/pgi-16.5/g16/l302.exe)
 NPDir=0 NMtPBC=     1 NCelOv=     1 NCel=       1 NClECP=     1 NCelD=      1
         NCelK=      1 NCelE2=     1 NClLst=     1 CellRange=     0.0.
 One-electron integrals computed using PRISM.
 One-electron integral symmetry used in STVInt
   2 Symmetry operations used in ECPInt.
 ECPInt:  NShTT=      78 NPrTT=     318 LenC2=      72 LenP2D=     237.
 LDataN:  DoStor=T MaxTD1= 2 Len=   12
 NBasis=    24 RedAO= T EigKep=  3.86D-02  NBF=    20     4
 NBsUse=    24 1.00D-06 EigRej= -1.00D+00 NBFU=    20     4
 Leave Link  302 at Sun Dec 10 07:10:14 2023, MaxMem=   536870912 cpu:               0.3 elap:               0.1
 (Enter /usr/site/hpc/x86_64/glibc-2.17/broadwell/gaussian/g16_a.03/pgi-16.5/g16/l303.exe)
 DipDrv:  MaxL=1.
 Leave Link  303 at Sun Dec 10 07:10:14 2023, MaxMem=   536870912 cpu:               0.1 elap:               0.0
 (Enter /usr/site/hpc/x86_64/glibc-2.17/broadwell/gaussian/g16_a.03/pgi-16.5/g16/l401.exe)
 ExpMin= 1.78D-01 ExpMax= 1.92D+01 ExpMxC= 1.92D+01 IAcc=3 IRadAn=         5 AccDes= 0.00D+00
 Harris functional with IExCor=  205 and IRadAn=       5 diagonalized for initial guess.
 HarFok:  IExCor=  205 AccDes= 0.00D+00 IRadAn=         5 IDoV= 1 UseB2=F ITyADJ=14
 ICtDFT=  3500011 ScaDFX=  1.000000  1.000000  1.000000  1.000000
 FoFCou: FMM=F IPFlag=           0 FMFlag=      100000 FMFlg1=           0
         NFxFlg=           0 DoJE=T BraDBF=F KetDBF=T FulRan=T
         wScrn=  0.000000 ICntrl=       500 IOpCl=  0 I1Cent=   200000004 NGrid=           0
         NMat0=    1 NMatS0=      1 NMatT0=    0 NMatD0=    1 NMtDS0=    0 NMtDT0=    0
 Petite list used in FoFCou.
 Harris En= -34.4763724146191    
 JPrj=0 DoOrth=F DoCkMO=F.
 Initial guess orbital symmetries:
       Occupied  (A') (A') (A') (A') (A') (A') (A") (A")
       Virtual   (A') (A') (A') (A') (A") (A") (A') (A') (A') (A')
                 (A') (A') (A') (A') (A') (A')
 The electronic state of the initial guess is 1-A'.
 Leave Link  401 at Sun Dec 10 07:10:14 2023, MaxMem=   536870912 cpu:               0.4 elap:               0.1
 (Enter /usr/site/hpc/x86_64/glibc-2.17/broadwell/gaussian/g16_a.03/pgi-16.5/g16/l502.exe)
 Keep R1 ints in memory in symmetry-blocked form, NReq=851578.
 FoFCou: FMM=F IPFlag=           0 FMFlag=           0 FMFlg1=           0
         NFxFlg=           0 DoJE=F BraDBF=F KetDBF=F FulRan=T
         wScrn=  0.000000 ICntrl=       600 IOpCl=  0 I1Cent=           0 NGrid=           0
         NMat0=    1 NMatS0=    300 NMatT0=    0 NMatD0=    1 NMtDS0=    0 NMtDT0=    0
 Petite list used in FoFCou.
 Closed shell SCF:
 Using DIIS extrapolation, IDIIS=  1040.
 NGot=   536870912 LenX=   536840576 LenY=   536839559
 Requested convergence on RMS density matrix=1.00D-08 within 128 cycles.
 Requested convergence on MAX density matrix=1.00D-06.
 Requested convergence on             energy=1.00D-06.
 No special actions if energy rises.

 Cycle   1  Pass 1  IDiag  1:
 E= -33.5567211650091    
 DIIS: error= 6.48D-02 at cycle   1 NSaved=   1.
 NSaved= 1 IEnMin= 1 EnMin= -33.5567211650091     IErMin= 1 ErrMin= 6.48D-02
 ErrMax= 6.48D-02  0.00D+00 EMaxC= 1.00D-01 BMatC= 1.02D-01 BMatP= 1.02D-01
 IDIUse=3 WtCom= 3.52D-01 WtEn= 6.48D-01
 Coeff-Com:  0.100D+01
 Coeff-En:   0.100D+01
 Coeff:      0.100D+01
 Gap=     0.605 Goal=   None    Shift=    0.000
 GapD=    0.605 DampG=2.000 DampE=0.500 DampFc=1.0000 IDamp=-1.
 RMSDP=1.49D-02 MaxDP=1.17D-01              OVMax= 9.95D-02

 Cycle   2  Pass 1  IDiag  1:
 E= -33.6197497153462     Delta-E=       -0.063028550337 Rises=F Damp=F
 DIIS: error= 3.74D-02 at cycle   2 NSaved=   2.
 NSaved= 2 IEnMin= 2 EnMin= -33.6197497153462     IErMin= 2 ErrMin= 3.74D-02
 ErrMax= 3.74D-02  0.00D+00 EMaxC= 1.00D-01 BMatC= 3.84D-02 BMatP= 1.02D-01
 IDIUse=3 WtCom= 6.26D-01 WtEn= 3.74D-01
 Coeff-Com:  0.377D+00 0.623D+00
 Coeff-En:   0.109D+00 0.891D+00
 Coeff:      0.277D+00 0.723D+00
 Gap=     0.706 Goal=   None    Shift=    0.000
 RMSDP=6.42D-03 MaxDP=5.44D-02 DE=-6.30D-02 OVMax= 3.58D-02

 Cycle   3  Pass 1  IDiag  1:
 E= -33.6504098125387     Delta-E=       -0.030660097193 Rises=F Damp=F
 DIIS: error= 6.78D-03 at cycle   3 NSaved=   3.
 NSaved= 3 IEnMin= 3 EnMin= -33.6504098125387     IErMin= 3 ErrMin= 6.78D-03
 ErrMax= 6.78D-03  0.00D+00 EMaxC= 1.00D-01 BMatC= 9.10D-04 BMatP= 3.84D-02
 IDIUse=3 WtCom= 9.32D-01 WtEn= 6.78D-02
 Coeff-Com: -0.114D+00-0.159D-01 0.113D+01
 Coeff-En:   0.000D+00 0.000D+00 0.100D+01
 Coeff:     -0.106D+00-0.148D-01 0.112D+01
 Gap=     0.698 Goal=   None    Shift=    0.000
 RMSDP=1.09D-03 MaxDP=9.30D-03 DE=-3.07D-02 OVMax= 8.12D-03

 Cycle   4  Pass 1  IDiag  1:
 E= -33.6513192466084     Delta-E=       -0.000909434070 Rises=F Damp=F
 DIIS: error= 7.46D-04 at cycle   4 NSaved=   4.
 NSaved= 4 IEnMin= 4 EnMin= -33.6513192466084     IErMin= 4 ErrMin= 7.46D-04
 ErrMax= 7.46D-04  0.00D+00 EMaxC= 1.00D-01 BMatC= 5.77D-06 BMatP= 9.10D-04
 IDIUse=3 WtCom= 9.93D-01 WtEn= 7.46D-03
 Coeff-Com:  0.437D-01-0.172D-01-0.524D+00 0.150D+01
 Coeff-En:   0.000D+00 0.000D+00 0.000D+00 0.100D+01
 Coeff:      0.434D-01-0.171D-01-0.520D+00 0.149D+01
 Gap=     0.700 Goal=   None    Shift=    0.000
 RMSDP=2.36D-04 MaxDP=2.01D-03 DE=-9.09D-04 OVMax= 9.64D-04

 Cycle   5  Pass 1  IDiag  1:
 E= -33.6513322827153     Delta-E=       -0.000013036107 Rises=F Damp=F
 DIIS: error= 5.07D-05 at cycle   5 NSaved=   5.
 NSaved= 5 IEnMin= 5 EnMin= -33.6513322827153     IErMin= 5 ErrMin= 5.07D-05
 ErrMax= 5.07D-05  0.00D+00 EMaxC= 1.00D-01 BMatC= 3.97D-08 BMatP= 5.77D-06
 IDIUse=1 WtCom= 1.00D+00 WtEn= 0.00D+00
 Coeff-Com: -0.710D-02 0.312D-02 0.860D-01-0.295D+00 0.121D+01
 Coeff:     -0.710D-02 0.312D-02 0.860D-01-0.295D+00 0.121D+01
 Gap=     0.700 Goal=   None    Shift=    0.000
 RMSDP=1.60D-05 MaxDP=1.52D-04 DE=-1.30D-05 OVMax= 1.04D-04

 Cycle   6  Pass 1  IDiag  1:
 E= -33.6513323811825     Delta-E=       -0.000000098467 Rises=F Damp=F
 DIIS: error= 8.66D-06 at cycle   6 NSaved=   6.
 NSaved= 6 IEnMin= 6 EnMin= -33.6513323811825     IErMin= 6 ErrMin= 8.66D-06
 ErrMax= 8.66D-06  0.00D+00 EMaxC= 1.00D-01 BMatC= 2.21D-09 BMatP= 3.97D-08
 IDIUse=1 WtCom= 1.00D+00 WtEn= 0.00D+00
 Coeff-Com:  0.127D-02-0.437D-03-0.149D-01 0.576D-01-0.410D+00 0.137D+01
 Coeff:      0.127D-02-0.437D-03-0.149D-01 0.576D-01-0.410D+00 0.137D+01
 Gap=     0.700 Goal=   None    Shift=    0.000
 RMSDP=3.97D-06 MaxDP=4.06D-05 DE=-9.85D-08 OVMax= 3.50D-05

 Cycle   7  Pass 1  IDiag  1:
 E= -33.6513323872969     Delta-E=       -0.000000006114 Rises=F Damp=F
 DIIS: error= 2.55D-06 at cycle   7 NSaved=   7.
 NSaved= 7 IEnMin= 7 EnMin= -33.6513323872969     IErMin= 7 ErrMin= 2.55D-06
 ErrMax= 2.55D-06  0.00D+00 EMaxC= 1.00D-01 BMatC= 1.11D-10 BMatP= 2.21D-09
 IDIUse=1 WtCom= 1.00D+00 WtEn= 0.00D+00
 Coeff-Com:  0.202D-03-0.129D-03-0.256D-02 0.707D-02 0.150D-01-0.258D+00
 Coeff-Com:  0.124D+01
 Coeff:      0.202D-03-0.129D-03-0.256D-02 0.707D-02 0.150D-01-0.258D+00
 Coeff:      0.124D+01
 Gap=     0.700 Goal=   None    Shift=    0.000
 RMSDP=1.01D-06 MaxDP=6.04D-06 DE=-6.11D-09 OVMax= 8.61D-06

 Cycle   8  Pass 1  IDiag  1:
 E= -33.6513323875766     Delta-E=       -0.000000000280 Rises=F Damp=F
 DIIS: error= 9.27D-07 at cycle   8 NSaved=   8.
 NSaved= 8 IEnMin= 8 EnMin= -33.6513323875766     IErMin= 8 ErrMin= 9.27D-07
 ErrMax= 9.27D-07  0.00D+00 EMaxC= 1.00D-01 BMatC= 1.47D-11 BMatP= 1.11D-10
 IDIUse=1 WtCom= 1.00D+00 WtEn= 0.00D+00
 Coeff-Com: -0.362D-07-0.233D-04-0.683D-04-0.779D-03 0.290D-01-0.165D+00
 Coeff-Com:  0.356D+00 0.780D+00
 Coeff:     -0.362D-07-0.233D-04-0.683D-04-0.779D-03 0.290D-01-0.165D+00
 Coeff:      0.356D+00 0.780D+00
 Gap=     0.700 Goal=   None    Shift=    0.000
 RMSDP=2.36D-07 MaxDP=1.75D-06 DE=-2.80D-10 OVMax= 1.92D-06

 Cycle   9  Pass 1  IDiag  1:
 E= -33.6513323875968     Delta-E=       -0.000000000020 Rises=F Damp=F
 DIIS: error= 1.82D-07 at cycle   9 NSaved=   9.
 NSaved= 9 IEnMin= 9 EnMin= -33.6513323875968     IErMin= 9 ErrMin= 1.82D-07
 ErrMax= 1.82D-07  0.00D+00 EMaxC= 1.00D-01 BMatC= 7.35D-13 BMatP= 1.47D-11
 IDIUse=1 WtCom= 1.00D+00 WtEn= 0.00D+00
 Coeff-Com:  0.356D-05 0.754D-05-0.592D-05 0.416D-03-0.126D-01 0.742D-01
 Coeff-Com: -0.211D+00-0.211D+00 0.136D+01
 Coeff:      0.356D-05 0.754D-05-0.592D-05 0.416D-03-0.126D-01 0.742D-01
 Coeff:     -0.211D+00-0.211D+00 0.136D+01
 Gap=     0.700 Goal=   None    Shift=    0.000
 RMSDP=1.24D-07 MaxDP=5.73D-07 DE=-2.02D-11 OVMax= 8.41D-07

 Cycle  10  Pass 1  IDiag  1:
 E= -33.6513323875987     Delta-E=       -0.000000000002 Rises=F Damp=F
 DIIS: error= 6.74D-09 at cycle  10 NSaved=  10.
 NSaved=10 IEnMin=10 EnMin= -33.6513323875987     IErMin=10 ErrMin= 6.74D-09
 ErrMax= 6.74D-09  0.00D+00 EMaxC= 1.00D-01 BMatC= 2.76D-15 BMatP= 7.35D-13
 IDIUse=1 WtCom= 1.00D+00 WtEn= 0.00D+00
 Coeff-Com:  0.651D-07-0.199D-05-0.953D-05-0.600D-04 0.279D-02-0.172D-01
 Coeff-Com:  0.497D-01 0.443D-01-0.357D+00 0.128D+01
 Coeff:      0.651D-07-0.199D-05-0.953D-05-0.600D-04 0.279D-02-0.172D-01
 Coeff:      0.497D-01 0.443D-01-0.357D+00 0.128D+01
 Gap=     0.700 Goal=   None    Shift=    0.000
 RMSDP=1.18D-08 MaxDP=5.42D-08 DE=-1.90D-12 OVMax= 6.71D-08

 Cycle  11  Pass 1  IDiag  1:
 E= -33.6513323875987     Delta-E=        0.000000000000 Rises=F Damp=F
 DIIS: error= 2.80D-10 at cycle  11 NSaved=  11.
 NSaved=11 IEnMin=10 EnMin= -33.6513323875987     IErMin=11 ErrMin= 2.80D-10
 ErrMax= 2.80D-10  0.00D+00 EMaxC= 1.00D-01 BMatC= 3.35D-18 BMatP= 2.76D-15
 IDIUse=1 WtCom= 1.00D+00 WtEn= 0.00D+00
 Coeff-Com: -0.766D-07 0.359D-06 0.239D-05 0.812D-05-0.483D-03 0.301D-02
 Coeff-Com: -0.880D-02-0.769D-02 0.641D-01-0.247D+00 0.120D+01
 Coeff:     -0.766D-07 0.359D-06 0.239D-05 0.812D-05-0.483D-03 0.301D-02
 Coeff:     -0.880D-02-0.769D-02 0.641D-01-0.247D+00 0.120D+01
 Gap=     0.700 Goal=   None    Shift=    0.000
 RMSDP=2.00D-10 MaxDP=1.03D-09 DE= 2.84D-14 OVMax= 6.79D-10

 SCF Done:  E(RHF) =  -33.6513323876     A.U. after   11 cycles
            NFock= 11  Conv=0.20D-09     -V/T= 2.2569
 KE= 2.677221470591D+01 PE=-1.184434420669D+02 EE= 3.962175896666D+01
 Leave Link  502 at Sun Dec 10 07:10:14 2023, MaxMem=   536870912 cpu:               0.3 elap:               0.1
 (Enter /usr/site/hpc/x86_64/glibc-2.17/broadwell/gaussian/g16_a.03/pgi-16.5/g16/l801.exe)
 Windowed orbitals will be sorted by symmetry type.
 Range of M.O.s used for correlation:     1    24
 NBasis=    24 NAE=     8 NBE=     8 NFC=     0 NFV=     0
 NROrb=     24 NOA=     8 NOB=     8 NVA=    16 NVB=    16
 Leave Link  801 at Sun Dec 10 07:10:15 2023, MaxMem=   536870912 cpu:               0.1 elap:               0.0
 (Enter /usr/site/hpc/x86_64/glibc-2.17/broadwell/gaussian/g16_a.03/pgi-16.5/g16/l804.exe)
 Closed-shell transformation, MDV=   536870912 ITran=4 ISComp=2.
 Unit  1 TFree=       1025975 TCopy=        210600.
 Semi-Direct transformation.
 ModeAB=           4 MOrb=             8 LenV=     536743174
 LASXX=        22470 LTotXX=       22470 LenRXX=       48678
 LTotAB=       26208 MaxLAS=       51456 LenRXY=           0
 NonZer=       71148 LenScr=      524288 LnRSAI=       51456
 LnScr1=      524288 LExtra=           0 Total=      1148710
 MaxDsk=          -1 SrtSym=           T ITran=            4
 DoSDTr:  NPSUse=  4
 JobTyp=0 Pass  1:  I=   1 to   8.
 (rs|ai) integrals will be sorted in core.
 Complete sort for first half transformation.
 First half transformation complete.
 Complete sort for second half transformation.
 Second half transformation complete.
 Spin components of T(2) and E(2):
     alpha-alpha T2 =       0.9068354169D-02 E2=     -0.2589023412D-01
     alpha-beta  T2 =       0.5995958142D-01 E2=     -0.1766252773D+00
     beta-beta   T2 =       0.9068354169D-02 E2=     -0.2589023412D-01
 ANorm=    0.1038314158D+01
 E2 =    -0.2284057455D+00 EUMP2 =    -0.33879738133136D+02
 Leave Link  804 at Sun Dec 10 07:10:15 2023, MaxMem=   536870912 cpu:               0.2 elap:               0.1
 (Enter /usr/site/hpc/x86_64/glibc-2.17/broadwell/gaussian/g16_a.03/pgi-16.5/g16/l913.exe)
 CIDS:  MDV=   536870912.
 IFCWin=0 IBDFC=1 NFBD=     0     0 NFCmp=     0     0 NFFFC=     0     0
 Using DD3R+UMP44R for 1st iteration.
 Using DD4RQ for 2nd and later iterations.
 Keep R2 and R3 ints in memory in symmetry-blocked form, NReq=864186.
 FoFCou: FMM=F IPFlag=           0 FMFlag=           0 FMFlg1=           0
         NFxFlg=           0 DoJE=F BraDBF=F KetDBF=F FulRan=T
         wScrn=  0.000000 ICntrl=       600 IOpCl=  0 I1Cent=           0 NGrid=           0
         NMat0=    1 NMatS0=    300 NMatT0=    0 NMatD0=    1 NMtDS0=    0 NMtDT0=    0
 Petite list used in FoFCou.
 CIDS: In Core Option IDoMem=           1.
 CCSD(T)
 =======
 Iterations=  50 Convergence= 0.100D-06
 Produce multiple copies of IABC intergrals
 Iteration Nr.   1
 **********************
 DD1Dir will call FoFMem   1 times, MxPair=        72
 NAB=    36 NAA=     0 NBB=     0.
 MP4(R+Q)= -0.73840262D-03
 Maximum subspace dimension=  5
 A-vector RMS=  5.7617274D-03 Max=  1.3218723D-02 conv= 1.00D-05.
 RLE energy=       -0.2344785271
 E3=       -0.54518867D-02        EUMP3=      -0.33885190020D+02
 E4(DQ)=   -0.59139342D-02        UMP4(DQ)=   -0.33891103954D+02
 E4(SDQ)=  -0.79428216D-02        UMP4(SDQ)=  -0.33893132841D+02
 VARIATIONAL ENERGIES WITH THE FIRST-ORDER WAVEFUNCTION:
 DE(Corr)= -0.23432159     E(Corr)=     -33.885653975    
 NORM(A)=   0.10417577D+01
 Iteration Nr.   2
 **********************
 DD1Dir will call FoFMem   1 times, MxPair=        72
 NAB=    36 NAA=     0 NBB=     0.
 A-vector RMS=  9.8408430D-04 Max=  2.7377529D-03 conv= 1.00D-05.
 RLE energy=       -0.2422608373
 DE(Corr)= -0.24031457     E(CORR)=     -33.891646961     Delta=-5.99D-03
 NORM(A)=   0.10455593D+01
 Iteration Nr.   3
 **********************
 DD1Dir will call FoFMem   1 times, MxPair=        72
 NAB=    36 NAA=     0 NBB=     0.
 A-vector RMS=  3.8526563D-04 Max=  1.1637655D-03 conv= 1.00D-05.
 RLE energy=       -0.2428118833
 DE(Corr)= -0.24236342     E(CORR)=     -33.893695812     Delta=-2.05D-03
 NORM(A)=   0.10461227D+01
 Iteration Nr.   4
 **********************
 DD1Dir will call FoFMem   1 times, MxPair=        72
 NAB=    36 NAA=     0 NBB=     0.
 A-vector RMS=  9.2995488D-05 Max=  2.5099050D-04 conv= 1.00D-05.
 RLE energy=       -0.2428589317
 DE(Corr)= -0.24282284     E(CORR)=     -33.894155231     Delta=-4.59D-04
 NORM(A)=   0.10461977D+01
 Iteration Nr.   5
 **********************
 DD1Dir will call FoFMem   1 times, MxPair=        72
 NAB=    36 NAA=     0 NBB=     0.
 A-vector RMS=  4.1894937D-05 Max=  1.5333261D-04 conv= 1.00D-05.
 RLE energy=       -0.2428571397
 DE(Corr)= -0.24285511     E(CORR)=     -33.894187497     Delta=-3.23D-05
 NORM(A)=   0.10462085D+01
 Iteration Nr.   6
 **********************
 DD1Dir will call FoFMem   1 times, MxPair=        72
 NAB=    36 NAA=     0 NBB=     0.
 A-vector RMS=  1.1405670D-05 Max=  4.0644995D-05 conv= 1.00D-05.
 RLE energy=       -0.2428562852
 DE(Corr)= -0.24285729     E(CORR)=     -33.894189678     Delta=-2.18D-06
 NORM(A)=   0.10462121D+01
 Iteration Nr.   7
 **********************
 DD1Dir will call FoFMem   1 times, MxPair=        72
 NAB=    36 NAA=     0 NBB=     0.
 A-vector RMS=  3.3421183D-06 Max=  1.1987781D-05 conv= 1.00D-05.
 RLE energy=       -0.2428572059
 DE(Corr)= -0.24285666     E(CORR)=     -33.894189050     Delta= 6.28D-07
 NORM(A)=   0.10462135D+01
 Iteration Nr.   8
 **********************
 DD1Dir will call FoFMem   1 times, MxPair=        72
 NAB=    36 NAA=     0 NBB=     0.
 A-vector RMS=  5.5410345D-07 Max=  1.7510473D-06 conv= 1.00D-05.
 RLE energy=       -0.2428567146
 DE(Corr)= -0.24285672     E(CORR)=     -33.894189106     Delta=-5.58D-08
 NORM(A)=   0.10462136D+01
 CI/CC converged in    8 iterations to DelEn=-5.58D-08 Conv= 1.00D-07 ErrA1= 5.54D-07 Conv= 1.00D-05
 Wavefunction amplitudes converged. E(Corr)=     -33.894189106    
 Largest amplitude= 5.86D-02
 IPart=  3 IA=    2   12.50% done.
 IPart=  2 IA=    3   24.17% done.
 IPart=  4 IA=    4   35.00% done.
 IPart=  4 IA=    5   45.00% done.
 IPart=  2 IA=    6   54.17% done.
 IPart=  3 IA=    7   62.50% done.
 IPart=  1 IA=    8   70.00% done.
 IPart=  2 IA=   10   82.50% done.
 IPart=  1 IA=   12   91.67% done.
 Time for triples=        0.25 seconds.
 T4(CCSD)= -0.30891263D-02
 T5(CCSD)=  0.52661105D-03
 CCSD(T)= -0.33896751621D+02
 Discarding MO integrals.
 Leave Link  913 at Sun Dec 10 07:10:15 2023, MaxMem=   536870912 cpu:               0.8 elap:               0.2
 (Enter /usr/site/hpc/x86_64/glibc-2.17/broadwell/gaussian/g16_a.03/pgi-16.5/g16/l601.exe)
 Copying SCF densities to generalized density rwf, IOpCl= 0 IROHF=0.

 **********************************************************************

            Population analysis using the SCF density.

 **********************************************************************

 Orbital symmetries:
       Occupied  (A') (A') (A') (A') (A') (A') (A") (A")
       Virtual   (A') (A') (A') (A') (A") (A") (A') (A') (A') (A')
                 (A') (A') (A') (A') (A') (A')
 The electronic state is 1-A'.
 Alpha  occ. eigenvalues --   -1.35341  -1.35055  -0.70971  -0.70680  -0.55050
 Alpha  occ. eigenvalues --   -0.54763  -0.49905  -0.49620
 Alpha virt. eigenvalues --    0.20405   0.20697   0.30642   0.30926   0.80647
 Alpha virt. eigenvalues --    0.80930   0.83716   0.83999   0.86811   0.87129
 Alpha virt. eigenvalues --    1.17542   1.17825   1.22003   1.22289   2.57570
 Alpha virt. eigenvalues --    2.57852
          Condensed to atoms (all electrons):
               1          2          3          4          5          6
     1  O    6.213350   0.262645   0.263500   0.000000   0.000000   0.000000
     2  H    0.262645   0.392135  -0.023589   0.000000  -0.000000  -0.000000
     3  H    0.263500  -0.023589   0.389403   0.000000  -0.000000  -0.000000
     4  O    0.000000   0.000000   0.000000   6.213296   0.262273   0.263703
     5  H    0.000000  -0.000000  -0.000000   0.262273   0.393334  -0.023618
     6  H    0.000000  -0.000000  -0.000000   0.263703  -0.023618   0.388655
 Mulliken charges:
               1
     1  O   -0.739496
     2  H    0.368809
     3  H    0.370686
     4  O   -0.739272
     5  H    0.368011
     6  H    0.371261
 Sum of Mulliken charges =   0.00000
 Mulliken charges with hydrogens summed into heavy atoms:
               1
     1  O    0.000000
     4  O   -0.000000
 Electronic spatial extent (au):  <R**2>=            726.3466
 Charge=              0.0000 electrons
 Dipole moment (field-independent basis, Debye):
    X=             -2.0939    Y=             -1.0408    Z=              0.0000  Tot=              2.3383
 Quadrupole moment (field-independent basis, Debye-Ang):
   XX=             -9.3717   YY=             18.2606   ZZ=            -14.9878
   XY=             -6.3719   XZ=              0.0000   YZ=              0.0000
 Traceless Quadrupole moment (field-independent basis, Debye-Ang):
   XX=             -7.3387   YY=             20.2936   ZZ=            -12.9549
   XY=             -6.3719   XZ=              0.0000   YZ=              0.0000
 Octapole moment (field-independent basis, Debye-Ang**2):
  XXX=             -1.8915  YYY=            -21.8205  ZZZ=              0.0000  XYY=            -17.4215
  XXY=             -6.3571  XXZ=              0.0000  XZZ=             -0.3931  YZZ=             -0.1969
  YYZ=              0.0000  XYZ=              0.0000
 Hexadecapole moment (field-independent basis, Debye-Ang**3):
 XXXX=            -11.9828 YYYY=            -72.5489 ZZZZ=            -12.2197 XXXY=             -2.6641
 XXXZ=              0.0000 YYYX=            -52.3630 YYYZ=              0.0000 ZZZX=              0.0000
 ZZZY=              0.0000 XXYY=           -110.6341 XXZZ=             -4.5654 YYZZ=           -182.5189
 XXYZ=              0.0000 YYXZ=              0.0000 ZZXY=              0.9150
 N-N= 1.839813600669D+01 E-N=-1.184434420722D+02  KE= 2.677221470591D+01
 Symmetry A'   KE= 1.788809667108D+01
 Symmetry A"   KE= 8.884118034823D+00
 Leave Link  601 at Sun Dec 10 07:10:15 2023, MaxMem=   536870912 cpu:               0.1 elap:               0.0
 (Enter /usr/site/hpc/x86_64/glibc-2.17/broadwell/gaussian/g16_a.03/pgi-16.5/g16/l9999.exe)
 1\1\GINC-N045\SP\RCCSD(T)-FC\CEP-31G\H4O2\ROOT\10-Dec-2023\0\\#p CCSD(
 T)/CEP-31G\\H2O_H2O_4914\\0,1\O,0,0.,-0.009833,0.\H,0,-0.799571,-0.580
 965,0.\H,0,0.799571,-0.580965,0.\O,0,-0.007801,6.805514,0.\H,0,0.02583
 8,7.78754,0.\H,0,-0.947659,6.518855,0.\\Version=ES64L-G16RevA.03\State
 =1-A'\HF=-33.6513324\MP2=-33.8797381\MP3=-33.88519\MP4D=-33.8903656\MP
 4DQ=-33.891104\MP4SDQ=-33.8931328\CCSD=-33.8941891\CCSD(T)=-33.8967516
 \RMSD=1.999e-10\PG=CS [SG(H4O2)]\\@


 Children are likely to live up to what you believe of them.
 -- Lady Bird Johnson
 Job cpu time:       0 days  0 hours  0 minutes  3.3 seconds.
 Elapsed time:       0 days  0 hours  0 minutes  1.0 seconds.
 File lengths (MBytes):  RWF=     72 Int=      0 D2E=      0 Chk=      8 Scr=      8
 Normal termination of Gaussian 16 at Sun Dec 10 07:10:15 2023.
