 Entering Gaussian System, Link 0=g16
 Input=H2O_H2O_545.com
 Output=H2O_H2O_545.log
 Initial command:
 /usr/site/hpc/x86_64/glibc-2.17/broadwell/gaussian/g16_a.03/pgi-16.5/g16/l1.exe "/gpfs/gpfs1/scratch/c7441090/OO Coord/Gau-1207666.inp" -scrdir="/gpfs/gpfs1/scratch/c7441090/OO Coord/"
 Entering Link 1 = /usr/site/hpc/x86_64/glibc-2.17/broadwell/gaussian/g16_a.03/pgi-16.5/g16/l1.exe PID=   1207667.
  
 Copyright (c) 1988,1990,1992,1993,1995,1998,2003,2009,2016,
            Gaussian, Inc.  All Rights Reserved.
  
 This is part of the Gaussian(R) 16 program.  It is based on
 the Gaussian(R) 09 system (copyright 2009, Gaussian, Inc.),
 the Gaussian(R) 03 system (copyright 2003, Gaussian, Inc.),
 the Gaussian(R) 98 system (copyright 1998, Gaussian, Inc.),
 the Gaussian(R) 94 system (copyright 1995, Gaussian, Inc.),
 the Gaussian 92(TM) system (copyright 1992, Gaussian, Inc.),
 the Gaussian 90(TM) system (copyright 1990, Gaussian, Inc.),
 the Gaussian 88(TM) system (copyright 1988, Gaussian, Inc.),
 the Gaussian 86(TM) system (copyright 1986, Carnegie Mellon
 University), and the Gaussian 82(TM) system (copyright 1983,
 Carnegie Mellon University). Gaussian is a federally registered
 trademark of Gaussian, Inc.
  
 This software contains proprietary and confidential information,
 including trade secrets, belonging to Gaussian, Inc.
  
 This software is provided under written license and may be
 used, copied, transmitted, or stored only in accord with that
 written license.
  
 The following legend is applicable only to US Government
 contracts under FAR:
  
                    RESTRICTED RIGHTS LEGEND
  
 Use, reproduction and disclosure by the US Government is
 subject to restrictions as set forth in subparagraphs (a)
 and (c) of the Commercial Computer Software - Restricted
 Rights clause in FAR 52.227-19.
  
 Gaussian, Inc.
 340 Quinnipiac St., Bldg. 40, Wallingford CT 06492
  
  
 ---------------------------------------------------------------
 Warning -- This program may not be used in any manner that
 competes with the business of Gaussian, Inc. or will provide
 assistance to any competitor of Gaussian, Inc.  The licensee
 of this program is prohibited from giving any competitor of
 Gaussian, Inc. access to this program.  By using this program,
 the user acknowledges that Gaussian, Inc. is engaged in the
 business of creating and licensing software in the field of
 computational chemistry and represents and warrants to the
 licensee that it is not a competitor of Gaussian, Inc. and that
 it will not use this program in any manner prohibited above.
 ---------------------------------------------------------------
  

 Cite this work as:
 Gaussian 16, Revision A.03,
 M. J. Frisch, G. W. Trucks, H. B. Schlegel, G. E. Scuseria, 
 M. A. Robb, J. R. Cheeseman, G. Scalmani, V. Barone, 
 G. A. Petersson, H. Nakatsuji, X. Li, M. Caricato, A. V. Marenich, 
 J. Bloino, B. G. Janesko, R. Gomperts, B. Mennucci, H. P. Hratchian, 
 J. V. Ortiz, A. F. Izmaylov, J. L. Sonnenberg, D. Williams-Young, 
 F. Ding, F. Lipparini, F. Egidi, J. Goings, B. Peng, A. Petrone, 
 T. Henderson, D. Ranasinghe, V. G. Zakrzewski, J. Gao, N. Rega, 
 G. Zheng, W. Liang, M. Hada, M. Ehara, K. Toyota, R. Fukuda, 
 J. Hasegawa, M. Ishida, T. Nakajima, Y. Honda, O. Kitao, H. Nakai, 
 T. Vreven, K. Throssell, J. A. Montgomery, Jr., J. E. Peralta, 
 F. Ogliaro, M. J. Bearpark, J. J. Heyd, E. N. Brothers, K. N. Kudin, 
 V. N. Staroverov, T. A. Keith, R. Kobayashi, J. Normand, 
 K. Raghavachari, A. P. Rendell, J. C. Burant, S. S. Iyengar, 
 J. Tomasi, M. Cossi, J. M. Millam, M. Klene, C. Adamo, R. Cammi, 
 J. W. Ochterski, R. L. Martin, K. Morokuma, O. Farkas, 
 J. B. Foresman, and D. J. Fox, Gaussian, Inc., Wallingford CT, 2016.
 
 ******************************************
 Gaussian 16:  ES64L-G16RevA.03 25-Dec-2016
                10-Dec-2023 
 ******************************************
 %NProcShared=4
 Will use up to    4 processors via shared memory.
 %Mem=4GB
 %Chk=H2O_H2O_545.chk
 ------------------
 #p CCSD(T)/CEP-31G
 ------------------
 1/38=1,172=1/1;
 2/12=2,17=6,18=5,40=1/2;
 3/5=9,6=1,11=9,25=1,30=1/1,2,3;
 4//1;
 5/5=2,38=5/2;
 8/6=4,9=120000,10=1/1,4;
 9/5=7,14=2/13;
 6/7=2,8=2,9=2,10=2/1;
 99/5=1,9=1/99;
 Leave Link    1 at Sun Dec 10 06:34:55 2023, MaxMem=   536870912 cpu:               0.2 elap:               0.1
 (Enter /usr/site/hpc/x86_64/glibc-2.17/broadwell/gaussian/g16_a.03/pgi-16.5/g16/l101.exe)
 -----------
 H2O_H2O_545
 -----------
 Symbolic Z-matrix:
 Charge =  0 Multiplicity = 1
 O                     0.       -0.00983   0. 
 H                    -0.79957  -0.58097   0. 
 H                     0.79957  -0.58097   0. 
 O                    -0.0095    2.14851   0. 
 H                    -0.35423   3.06865   0. 
 H                    -0.76811   1.524     0. 
 
 ITRead=  0  0  0  0  0  0
 MicOpt= -1 -1 -1 -1 -1 -1
 NAtoms=      6 NQM=        6 NQMF=       0 NMMI=      0 NMMIF=      0
                NMic=       0 NMicF=      0.
                    Isotopes and Nuclear Properties:
 (Nuclear quadrupole moments (NQMom) in fm**2, nuclear magnetic moments (NMagM)
  in nuclear magnetons)

  Atom         1           2           3           4           5           6
 IAtWgt=          16           1           1          16           1           1
 AtmWgt=  15.9949146   1.0078250   1.0078250  15.9949146   1.0078250   1.0078250
 NucSpn=           0           1           1           0           1           1
 AtZEff=  -0.0000000  -0.0000000  -0.0000000  -0.0000000  -0.0000000  -0.0000000
 NQMom=    0.0000000   0.0000000   0.0000000   0.0000000   0.0000000   0.0000000
 NMagM=    0.0000000   2.7928460   2.7928460   0.0000000   2.7928460   2.7928460
 AtZNuc=   8.0000000   1.0000000   1.0000000   8.0000000   1.0000000   1.0000000
 Leave Link  101 at Sun Dec 10 06:34:55 2023, MaxMem=   536870912 cpu:               0.3 elap:               0.1
 (Enter /usr/site/hpc/x86_64/glibc-2.17/broadwell/gaussian/g16_a.03/pgi-16.5/g16/l202.exe)
                          Input orientation:                          
 ---------------------------------------------------------------------
 Center     Atomic      Atomic             Coordinates (Angstroms)
 Number     Number       Type             X           Y           Z
 ---------------------------------------------------------------------
      1          8           0        0.000000   -0.009833    0.000000
      2          1           0       -0.799571   -0.580965    0.000000
      3          1           0        0.799571   -0.580965    0.000000
      4          8           0       -0.009498    2.148505    0.000000
      5          1           0       -0.354225    3.068651    0.000000
      6          1           0       -0.768113    1.523998    0.000000
 ---------------------------------------------------------------------
                    Distance matrix (angstroms):
                    1          2          3          4          5
     1  O    0.000000
     2  H    0.982601   0.000000
     3  H    0.982601   1.599142   0.000000
     4  O    2.158359   2.841518   2.846858   0.000000
     5  H    3.098796   3.676687   3.827655   0.982601   0.000000
     6  H    1.715411   2.105198   2.624596   0.982602   1.599142
                    6
     6  H    0.000000
 Stoichiometry    H4O2
 Framework group  CS[SG(H4O2)]
 Deg. of freedom     9
 Full point group                 CS      NOp   2
 Largest Abelian subgroup         CS      NOp   2
 Largest concise Abelian subgroup C1      NOp   1
                         Standard orientation:                         
 ---------------------------------------------------------------------
 Center     Atomic      Atomic             Coordinates (Angstroms)
 Number     Number       Type             X           Y           Z
 ---------------------------------------------------------------------
      1          8           0        0.055353   -1.037091    0.000000
      2          1           0       -0.746724   -1.604699    0.000000
      3          1           0        0.852403   -1.611736    0.000000
      4          8           0        0.055353    1.121268    0.000000
      5          1           0       -0.285322    2.042922    0.000000
      6          1           0       -0.706003    0.500105    0.000000
 ---------------------------------------------------------------------
 Rotational constants (GHZ):         261.8288439          10.7534154          10.3291914
 Leave Link  202 at Sun Dec 10 06:34:55 2023, MaxMem=   536870912 cpu:               0.1 elap:               0.0
 (Enter /usr/site/hpc/x86_64/glibc-2.17/broadwell/gaussian/g16_a.03/pgi-16.5/g16/l301.exe)
 Standard basis: CEP-31G (6D, 10F)
 Ernie: Thresh=  0.10000D-02 Tol=  0.10000D-05 Strict=F.
 There are    20 symmetry adapted cartesian basis functions of A'  symmetry.
 There are     4 symmetry adapted cartesian basis functions of A"  symmetry.
 There are    20 symmetry adapted basis functions of A'  symmetry.
 There are     4 symmetry adapted basis functions of A"  symmetry.
    24 basis functions,    48 primitive gaussians,    24 cartesian basis functions
     8 alpha electrons        8 beta electrons
       nuclear repulsion energy        28.2566395030 Hartrees.
 IExCor=    0 DFT=F Ex=HF Corr=None ExCW=0 ScaHFX=  1.000000
 ScaDFX=  1.000000  1.000000  1.000000  1.000000 ScalE2=  1.000000  1.000000
 IRadAn=      5 IRanWt=     -1 IRanGd=            0 ICorTp=0 IEmpDi=  4
 NAtoms=    6 NActive=    6 NUniq=    6 SFac= 1.00D+00 NAtFMM=   60 NAOKFM=F Big=F
 Integral buffers will be    131072 words long.
 Raffenetti 1 integral format.
 Two-electron integral symmetry is turned on.
 Leave Link  301 at Sun Dec 10 06:34:55 2023, MaxMem=   536870912 cpu:               0.2 elap:               0.1
 (Enter /usr/site/hpc/x86_64/glibc-2.17/broadwell/gaussian/g16_a.03/pgi-16.5/g16/l302.exe)
 NPDir=0 NMtPBC=     1 NCelOv=     1 NCel=       1 NClECP=     1 NCelD=      1
         NCelK=      1 NCelE2=     1 NClLst=     1 CellRange=     0.0.
 One-electron integrals computed using PRISM.
 One-electron integral symmetry used in STVInt
   2 Symmetry operations used in ECPInt.
 ECPInt:  NShTT=      78 NPrTT=     318 LenC2=      79 LenP2D=     293.
 LDataN:  DoStor=T MaxTD1= 2 Len=   12
 NBasis=    24 RedAO= T EigKep=  2.82D-02  NBF=    20     4
 NBsUse=    24 1.00D-06 EigRej= -1.00D+00 NBFU=    20     4
 Leave Link  302 at Sun Dec 10 06:34:55 2023, MaxMem=   536870912 cpu:               0.3 elap:               0.1
 (Enter /usr/site/hpc/x86_64/glibc-2.17/broadwell/gaussian/g16_a.03/pgi-16.5/g16/l303.exe)
 DipDrv:  MaxL=1.
 Leave Link  303 at Sun Dec 10 06:34:55 2023, MaxMem=   536870912 cpu:               0.1 elap:               0.0
 (Enter /usr/site/hpc/x86_64/glibc-2.17/broadwell/gaussian/g16_a.03/pgi-16.5/g16/l401.exe)
 ExpMin= 1.78D-01 ExpMax= 1.92D+01 ExpMxC= 1.92D+01 IAcc=3 IRadAn=         5 AccDes= 0.00D+00
 Harris functional with IExCor=  205 and IRadAn=       5 diagonalized for initial guess.
 HarFok:  IExCor=  205 AccDes= 0.00D+00 IRadAn=         5 IDoV= 1 UseB2=F ITyADJ=14
 ICtDFT=  3500011 ScaDFX=  1.000000  1.000000  1.000000  1.000000
 FoFCou: FMM=F IPFlag=           0 FMFlag=      100000 FMFlg1=           0
         NFxFlg=           0 DoJE=T BraDBF=F KetDBF=T FulRan=T
         wScrn=  0.000000 ICntrl=       500 IOpCl=  0 I1Cent=   200000004 NGrid=           0
         NMat0=    1 NMatS0=      1 NMatT0=    0 NMatD0=    1 NMtDS0=    0 NMtDT0=    0
 Petite list used in FoFCou.
 Harris En= -34.4653346283739    
 JPrj=0 DoOrth=F DoCkMO=F.
 Initial guess orbital symmetries:
       Occupied  (A') (A') (A') (A') (A') (A') (A") (A")
       Virtual   (A') (A') (A') (A') (A") (A') (A") (A') (A') (A')
                 (A') (A') (A') (A') (A') (A')
 The electronic state of the initial guess is 1-A'.
 Leave Link  401 at Sun Dec 10 06:34:56 2023, MaxMem=   536870912 cpu:               0.4 elap:               0.1
 (Enter /usr/site/hpc/x86_64/glibc-2.17/broadwell/gaussian/g16_a.03/pgi-16.5/g16/l502.exe)
 Keep R1 ints in memory in symmetry-blocked form, NReq=852759.
 FoFCou: FMM=F IPFlag=           0 FMFlag=           0 FMFlg1=           0
         NFxFlg=           0 DoJE=F BraDBF=F KetDBF=F FulRan=T
         wScrn=  0.000000 ICntrl=       600 IOpCl=  0 I1Cent=           0 NGrid=           0
         NMat0=    1 NMatS0=    300 NMatT0=    0 NMatD0=    1 NMtDS0=    0 NMtDT0=    0
 Petite list used in FoFCou.
 Closed shell SCF:
 Using DIIS extrapolation, IDIIS=  1040.
 NGot=   536870912 LenX=   536840576 LenY=   536839559
 Requested convergence on RMS density matrix=1.00D-08 within 128 cycles.
 Requested convergence on MAX density matrix=1.00D-06.
 Requested convergence on             energy=1.00D-06.
 No special actions if energy rises.

 Cycle   1  Pass 1  IDiag  1:
 E= -33.5212374288080    
 DIIS: error= 5.50D-02 at cycle   1 NSaved=   1.
 NSaved= 1 IEnMin= 1 EnMin= -33.5212374288080     IErMin= 1 ErrMin= 5.50D-02
 ErrMax= 5.50D-02  0.00D+00 EMaxC= 1.00D-01 BMatC= 1.08D-01 BMatP= 1.08D-01
 IDIUse=3 WtCom= 4.50D-01 WtEn= 5.50D-01
 Coeff-Com:  0.100D+01
 Coeff-En:   0.100D+01
 Coeff:      0.100D+01
 Gap=     0.546 Goal=   None    Shift=    0.000
 GapD=    0.546 DampG=2.000 DampE=0.500 DampFc=1.0000 IDamp=-1.
 RMSDP=1.73D-02 MaxDP=1.27D-01              OVMax= 1.10D-01

 Cycle   2  Pass 1  IDiag  1:
 E= -33.5887363785630     Delta-E=       -0.067498949755 Rises=F Damp=F
 DIIS: error= 3.88D-02 at cycle   2 NSaved=   2.
 NSaved= 2 IEnMin= 2 EnMin= -33.5887363785630     IErMin= 2 ErrMin= 3.88D-02
 ErrMax= 3.88D-02  0.00D+00 EMaxC= 1.00D-01 BMatC= 4.15D-02 BMatP= 1.08D-01
 IDIUse=3 WtCom= 6.12D-01 WtEn= 3.88D-01
 Coeff-Com:  0.380D+00 0.620D+00
 Coeff-En:   0.102D+00 0.898D+00
 Coeff:      0.272D+00 0.728D+00
 Gap=     0.650 Goal=   None    Shift=    0.000
 RMSDP=7.38D-03 MaxDP=6.08D-02 DE=-6.75D-02 OVMax= 4.08D-02

 Cycle   3  Pass 1  IDiag  1:
 E= -33.6214539858539     Delta-E=       -0.032717607291 Rises=F Damp=F
 DIIS: error= 5.56D-03 at cycle   3 NSaved=   3.
 NSaved= 3 IEnMin= 3 EnMin= -33.6214539858539     IErMin= 3 ErrMin= 5.56D-03
 ErrMax= 5.56D-03  0.00D+00 EMaxC= 1.00D-01 BMatC= 1.17D-03 BMatP= 4.15D-02
 IDIUse=3 WtCom= 9.44D-01 WtEn= 5.56D-02
 Coeff-Com: -0.107D+00 0.884D-02 0.110D+01
 Coeff-En:   0.000D+00 0.000D+00 0.100D+01
 Coeff:     -0.101D+00 0.835D-02 0.109D+01
 Gap=     0.640 Goal=   None    Shift=    0.000
 RMSDP=1.32D-03 MaxDP=1.08D-02 DE=-3.27D-02 OVMax= 8.91D-03

 Cycle   4  Pass 1  IDiag  1:
 E= -33.6225943528075     Delta-E=       -0.001140366954 Rises=F Damp=F
 DIIS: error= 7.42D-04 at cycle   4 NSaved=   4.
 NSaved= 4 IEnMin= 4 EnMin= -33.6225943528075     IErMin= 4 ErrMin= 7.42D-04
 ErrMax= 7.42D-04  0.00D+00 EMaxC= 1.00D-01 BMatC= 7.00D-06 BMatP= 1.17D-03
 IDIUse=3 WtCom= 9.93D-01 WtEn= 7.42D-03
 Coeff-Com:  0.224D-01-0.229D-01-0.312D+00 0.131D+01
 Coeff-En:   0.000D+00 0.000D+00 0.000D+00 0.100D+01
 Coeff:      0.222D-01-0.227D-01-0.310D+00 0.131D+01
 Gap=     0.643 Goal=   None    Shift=    0.000
 RMSDP=2.57D-04 MaxDP=2.30D-03 DE=-1.14D-03 OVMax= 1.47D-03

 Cycle   5  Pass 1  IDiag  1:
 E= -33.6226095789218     Delta-E=       -0.000015226114 Rises=F Damp=F
 DIIS: error= 1.26D-04 at cycle   5 NSaved=   5.
 NSaved= 5 IEnMin= 5 EnMin= -33.6226095789218     IErMin= 5 ErrMin= 1.26D-04
 ErrMax= 1.26D-04  0.00D+00 EMaxC= 1.00D-01 BMatC= 7.67D-07 BMatP= 7.00D-06
 IDIUse=3 WtCom= 9.99D-01 WtEn= 1.26D-03
 Coeff-Com:  0.147D-01-0.764D-02-0.175D+00 0.392D+00 0.776D+00
 Coeff-En:   0.000D+00 0.000D+00 0.000D+00 0.000D+00 0.100D+01
 Coeff:      0.146D-01-0.763D-02-0.175D+00 0.391D+00 0.776D+00
 Gap=     0.642 Goal=   None    Shift=    0.000
 RMSDP=4.84D-05 MaxDP=4.50D-04 DE=-1.52D-05 OVMax= 3.36D-04

 Cycle   6  Pass 1  IDiag  1:
 E= -33.6226105021050     Delta-E=       -0.000000923183 Rises=F Damp=F
 DIIS: error= 3.13D-05 at cycle   6 NSaved=   6.
 NSaved= 6 IEnMin= 6 EnMin= -33.6226105021050     IErMin= 6 ErrMin= 3.13D-05
 ErrMax= 3.13D-05  0.00D+00 EMaxC= 1.00D-01 BMatC= 1.90D-08 BMatP= 7.67D-07
 IDIUse=1 WtCom= 1.00D+00 WtEn= 0.00D+00
 Coeff-Com: -0.349D-02 0.207D-02 0.428D-01-0.135D+00-0.971D-01 0.119D+01
 Coeff:     -0.349D-02 0.207D-02 0.428D-01-0.135D+00-0.971D-01 0.119D+01
 Gap=     0.642 Goal=   None    Shift=    0.000
 RMSDP=1.26D-05 MaxDP=1.11D-04 DE=-9.23D-07 OVMax= 8.11D-05

 Cycle   7  Pass 1  IDiag  1:
 E= -33.6226105440778     Delta-E=       -0.000000041973 Rises=F Damp=F
 DIIS: error= 5.57D-06 at cycle   7 NSaved=   7.
 NSaved= 7 IEnMin= 7 EnMin= -33.6226105440778     IErMin= 7 ErrMin= 5.57D-06
 ErrMax= 5.57D-06  0.00D+00 EMaxC= 1.00D-01 BMatC= 6.73D-10 BMatP= 1.90D-08
 IDIUse=1 WtCom= 1.00D+00 WtEn= 0.00D+00
 Coeff-Com:  0.836D-03-0.422D-03-0.983D-02 0.342D-01 0.124D-01-0.378D+00
 Coeff-Com:  0.134D+01
 Coeff:      0.836D-03-0.422D-03-0.983D-02 0.342D-01 0.124D-01-0.378D+00
 Coeff:      0.134D+01
 Gap=     0.642 Goal=   None    Shift=    0.000
 RMSDP=2.49D-06 MaxDP=2.41D-05 DE=-4.20D-08 OVMax= 1.84D-05

 Cycle   8  Pass 1  IDiag  1:
 E= -33.6226105459782     Delta-E=       -0.000000001900 Rises=F Damp=F
 DIIS: error= 1.27D-06 at cycle   8 NSaved=   8.
 NSaved= 8 IEnMin= 8 EnMin= -33.6226105459782     IErMin= 8 ErrMin= 1.27D-06
 ErrMax= 1.27D-06  0.00D+00 EMaxC= 1.00D-01 BMatC= 3.54D-11 BMatP= 6.73D-10
 IDIUse=1 WtCom= 1.00D+00 WtEn= 0.00D+00
 Coeff-Com:  0.249D-04-0.526D-04-0.480D-03 0.868D-03 0.362D-02 0.133D-01
 Coeff-Com: -0.310D+00 0.129D+01
 Coeff:      0.249D-04-0.526D-04-0.480D-03 0.868D-03 0.362D-02 0.133D-01
 Coeff:     -0.310D+00 0.129D+01
 Gap=     0.642 Goal=   None    Shift=    0.000
 RMSDP=6.78D-07 MaxDP=6.34D-06 DE=-1.90D-09 OVMax= 5.41D-06

 Cycle   9  Pass 1  IDiag  1:
 E= -33.6226105460872     Delta-E=       -0.000000000109 Rises=F Damp=F
 DIIS: error= 1.68D-07 at cycle   9 NSaved=   9.
 NSaved= 9 IEnMin= 9 EnMin= -33.6226105460872     IErMin= 9 ErrMin= 1.68D-07
 ErrMax= 1.68D-07  0.00D+00 EMaxC= 1.00D-01 BMatC= 1.07D-12 BMatP= 3.54D-11
 IDIUse=1 WtCom= 1.00D+00 WtEn= 0.00D+00
 Coeff-Com:  0.416D-05 0.906D-05 0.100D-04 0.441D-04-0.861D-03-0.446D-02
 Coeff-Com:  0.910D-01-0.468D+00 0.138D+01
 Coeff:      0.416D-05 0.906D-05 0.100D-04 0.441D-04-0.861D-03-0.446D-02
 Coeff:      0.910D-01-0.468D+00 0.138D+01
 Gap=     0.642 Goal=   None    Shift=    0.000
 RMSDP=1.66D-07 MaxDP=9.62D-07 DE=-1.09D-10 OVMax= 1.21D-06

 Cycle  10  Pass 1  IDiag  1:
 E= -33.6226105460906     Delta-E=       -0.000000000003 Rises=F Damp=F
 DIIS: error= 2.55D-08 at cycle  10 NSaved=  10.
 NSaved=10 IEnMin=10 EnMin= -33.6226105460906     IErMin=10 ErrMin= 2.55D-08
 ErrMax= 2.55D-08  0.00D+00 EMaxC= 1.00D-01 BMatC= 1.79D-14 BMatP= 1.07D-12
 IDIUse=1 WtCom= 1.00D+00 WtEn= 0.00D+00
 Coeff-Com:  0.303D-06-0.315D-05-0.186D-04 0.549D-04 0.230D-03 0.398D-03
 Coeff-Com: -0.208D-01 0.119D+00-0.446D+00 0.135D+01
 Coeff:      0.303D-06-0.315D-05-0.186D-04 0.549D-04 0.230D-03 0.398D-03
 Coeff:     -0.208D-01 0.119D+00-0.446D+00 0.135D+01
 Gap=     0.642 Goal=   None    Shift=    0.000
 RMSDP=2.33D-08 MaxDP=1.37D-07 DE=-3.39D-12 OVMax= 1.60D-07

 Cycle  11  Pass 1  IDiag  1:
 E= -33.6226105460907     Delta-E=       -0.000000000000 Rises=F Damp=F
 DIIS: error= 2.46D-09 at cycle  11 NSaved=  11.
 NSaved=11 IEnMin=11 EnMin= -33.6226105460907     IErMin=11 ErrMin= 2.46D-09
 ErrMax= 2.46D-09  0.00D+00 EMaxC= 1.00D-01 BMatC= 1.98D-16 BMatP= 1.79D-14
 IDIUse=1 WtCom= 1.00D+00 WtEn= 0.00D+00
 Coeff-Com: -0.191D-06 0.917D-06 0.642D-05-0.200D-04-0.697D-04-0.559D-04
 Coeff-Com:  0.572D-02-0.340D-01 0.132D+00-0.449D+00 0.134D+01
 Coeff:     -0.191D-06 0.917D-06 0.642D-05-0.200D-04-0.697D-04-0.559D-04
 Coeff:      0.572D-02-0.340D-01 0.132D+00-0.449D+00 0.134D+01
 Gap=     0.642 Goal=   None    Shift=    0.000
 RMSDP=1.74D-09 MaxDP=1.00D-08 DE=-9.95D-14 OVMax= 1.18D-08

 SCF Done:  E(RHF) =  -33.6226105461     A.U. after   11 cycles
            NFock= 11  Conv=0.17D-08     -V/T= 2.2505
 KE= 2.688636883476D+01 PE=-1.384913185797D+02 EE= 4.972569969591D+01
 Leave Link  502 at Sun Dec 10 06:34:56 2023, MaxMem=   536870912 cpu:               0.3 elap:               0.1
 (Enter /usr/site/hpc/x86_64/glibc-2.17/broadwell/gaussian/g16_a.03/pgi-16.5/g16/l801.exe)
 Windowed orbitals will be sorted by symmetry type.
 Range of M.O.s used for correlation:     1    24
 NBasis=    24 NAE=     8 NBE=     8 NFC=     0 NFV=     0
 NROrb=     24 NOA=     8 NOB=     8 NVA=    16 NVB=    16
 Leave Link  801 at Sun Dec 10 06:34:56 2023, MaxMem=   536870912 cpu:               0.1 elap:               0.0
 (Enter /usr/site/hpc/x86_64/glibc-2.17/broadwell/gaussian/g16_a.03/pgi-16.5/g16/l804.exe)
 Closed-shell transformation, MDV=   536870912 ITran=4 ISComp=2.
 Unit  1 TFree=       1025975 TCopy=        210600.
 Semi-Direct transformation.
 ModeAB=           2 MOrb=             8 LenV=     536741504
 LASXX=        22470 LTotXX=       22470 LenRXX=       22470
 LTotAB=       26208 MaxLAS=       57600 LenRXY=       57600
 NonZer=       62208 LenScr=      524288 LnRSAI=           0
 LnScr1=           0 LExtra=           0 Total=       604358
 MaxDsk=          -1 SrtSym=           F ITran=            4
 DoSDTr:  NPSUse=  4
 JobTyp=0 Pass  1:  I=   1 to   8.
 (rs|ai) integrals will be sorted in core.
 Complete sort for first half transformation.
 First half transformation complete.
 Complete sort for second half transformation.
 Second half transformation complete.
 Spin components of T(2) and E(2):
     alpha-alpha T2 =       0.9312178676D-02 E2=     -0.2669127274D-01
     alpha-beta  T2 =       0.6024398180D-01 E2=     -0.1780925560D+00
     beta-beta   T2 =       0.9312178676D-02 E2=     -0.2669127274D-01
 ANorm=    0.1038685871D+01
 E2 =    -0.2314751015D+00 EUMP2 =    -0.33854085647589D+02
 Leave Link  804 at Sun Dec 10 06:34:56 2023, MaxMem=   536870912 cpu:               0.2 elap:               0.1
 (Enter /usr/site/hpc/x86_64/glibc-2.17/broadwell/gaussian/g16_a.03/pgi-16.5/g16/l913.exe)
 CIDS:  MDV=   536870912.
 IFCWin=0 IBDFC=1 NFBD=     0     0 NFCmp=     0     0 NFFFC=     0     0
 Using DD3R+UMP44R for 1st iteration.
 Using DD4RQ for 2nd and later iterations.
 Keep R2 and R3 ints in memory in symmetry-blocked form, NReq=865367.
 FoFCou: FMM=F IPFlag=           0 FMFlag=           0 FMFlg1=           0
         NFxFlg=           0 DoJE=F BraDBF=F KetDBF=F FulRan=T
         wScrn=  0.000000 ICntrl=       600 IOpCl=  0 I1Cent=           0 NGrid=           0
         NMat0=    1 NMatS0=    300 NMatT0=    0 NMatD0=    1 NMtDS0=    0 NMtDT0=    0
 Petite list used in FoFCou.
 CIDS: In Core Option IDoMem=           1.
 CCSD(T)
 =======
 Iterations=  50 Convergence= 0.100D-06
 Produce multiple copies of IABC intergrals
 Iteration Nr.   1
 **********************
 DD1Dir will call FoFMem   1 times, MxPair=        72
 NAB=    36 NAA=     0 NBB=     0.
 MP4(R+Q)= -0.50113206D-03
 Maximum subspace dimension=  5
 A-vector RMS=  6.2476047D-03 Max=  1.4228295D-02 conv= 1.00D-05.
 RLE energy=       -0.2368143047
 E3=       -0.50040615D-02        EUMP3=      -0.33859089709D+02
 E4(DQ)=   -0.57155561D-02        UMP4(DQ)=   -0.33864805265D+02
 E4(SDQ)=  -0.79978047D-02        UMP4(SDQ)=  -0.33867087514D+02
 VARIATIONAL ENERGIES WITH THE FIRST-ORDER WAVEFUNCTION:
 DE(Corr)= -0.23669429     E(Corr)=     -33.859304836    
 NORM(A)=   0.10420237D+01
 Iteration Nr.   2
 **********************
 DD1Dir will call FoFMem   1 times, MxPair=        72
 NAB=    36 NAA=     0 NBB=     0.
 A-vector RMS=  1.0201166D-03 Max=  2.4090880D-03 conv= 1.00D-05.
 RLE energy=       -0.2447756461
 DE(Corr)= -0.24289433     E(CORR)=     -33.865504879     Delta=-6.20D-03
 NORM(A)=   0.10459646D+01
 Iteration Nr.   3
 **********************
 DD1Dir will call FoFMem   1 times, MxPair=        72
 NAB=    36 NAA=     0 NBB=     0.
 A-vector RMS=  5.0990868D-04 Max=  1.8151588D-03 conv= 1.00D-05.
 RLE energy=       -0.2453518793
 DE(Corr)= -0.24485595     E(CORR)=     -33.867466491     Delta=-1.96D-03
 NORM(A)=   0.10466146D+01
 Iteration Nr.   4
 **********************
 DD1Dir will call FoFMem   1 times, MxPair=        72
 NAB=    36 NAA=     0 NBB=     0.
 A-vector RMS=  1.1712262D-04 Max=  3.6501063D-04 conv= 1.00D-05.
 RLE energy=       -0.2454109128
 DE(Corr)= -0.24536976     E(CORR)=     -33.867980309     Delta=-5.14D-04
 NORM(A)=   0.10467136D+01
 Iteration Nr.   5
 **********************
 DD1Dir will call FoFMem   1 times, MxPair=        72
 NAB=    36 NAA=     0 NBB=     0.
 A-vector RMS=  5.1579631D-05 Max=  1.7871360D-04 conv= 1.00D-05.
 RLE energy=       -0.2454111651
 DE(Corr)= -0.24540666     E(CORR)=     -33.868017201     Delta=-3.69D-05
 NORM(A)=   0.10467301D+01
 Iteration Nr.   6
 **********************
 DD1Dir will call FoFMem   1 times, MxPair=        72
 NAB=    36 NAA=     0 NBB=     0.
 A-vector RMS=  1.9440027D-05 Max=  8.0991005D-05 conv= 1.00D-05.
 RLE energy=       -0.2454061303
 DE(Corr)= -0.24541021     E(CORR)=     -33.868020757     Delta=-3.56D-06
 NORM(A)=   0.10467338D+01
 Iteration Nr.   7
 **********************
 DD1Dir will call FoFMem   1 times, MxPair=        72
 NAB=    36 NAA=     0 NBB=     0.
 A-vector RMS=  6.2820871D-06 Max=  2.3652043D-05 conv= 1.00D-05.
 RLE energy=       -0.2454086137
 DE(Corr)= -0.24540976     E(CORR)=     -33.868020308     Delta= 4.48D-07
 NORM(A)=   0.10467364D+01
 Iteration Nr.   8
 **********************
 DD1Dir will call FoFMem   1 times, MxPair=        72
 NAB=    36 NAA=     0 NBB=     0.
 A-vector RMS=  2.0644039D-06 Max=  8.1193144D-06 conv= 1.00D-05.
 RLE energy=       -0.2454089334
 DE(Corr)= -0.24540912     E(CORR)=     -33.868019662     Delta= 6.47D-07
 NORM(A)=   0.10467373D+01
 Iteration Nr.   9
 **********************
 DD1Dir will call FoFMem   1 times, MxPair=        72
 NAB=    36 NAA=     0 NBB=     0.
 A-vector RMS=  5.6028225D-07 Max=  2.1690393D-06 conv= 1.00D-05.
 RLE energy=       -0.2454093479
 DE(Corr)= -0.24540935     E(CORR)=     -33.868019898     Delta=-2.37D-07
 NORM(A)=   0.10467377D+01
 Iteration Nr.  10
 **********************
 DD1Dir will call FoFMem   1 times, MxPair=        72
 NAB=    36 NAA=     0 NBB=     0.
 A-vector RMS=  1.8504710D-07 Max=  5.2265238D-07 conv= 1.00D-05.
 RLE energy=       -0.2454094987
 DE(Corr)= -0.24540946     E(CORR)=     -33.868020002     Delta=-1.04D-07
 NORM(A)=   0.10467378D+01
 Iteration Nr.  11
 **********************
 DD1Dir will call FoFMem   1 times, MxPair=        72
 NAB=    36 NAA=     0 NBB=     0.
 A-vector RMS=  7.0602018D-08 Max=  2.5177666D-07 conv= 1.00D-05.
 RLE energy=       -0.2454095474
 DE(Corr)= -0.24540953     E(CORR)=     -33.868020075     Delta=-7.23D-08
 NORM(A)=   0.10467379D+01
 CI/CC converged in   11 iterations to DelEn=-7.23D-08 Conv= 1.00D-07 ErrA1= 7.06D-08 Conv= 1.00D-05
 Wavefunction amplitudes converged. E(Corr)=     -33.868020075    
 Largest amplitude= 4.01D-02
 IPart=  4 IA=    2   12.50% done.
 IPart=  3 IA=    3   24.17% done.
 IPart=  2 IA=    4   35.00% done.
 IPart=  2 IA=    5   45.00% done.
 IPart=  3 IA=    6   54.17% done.
 IPart=  4 IA=    7   62.50% done.
 IPart=  1 IA=    8   70.00% done.
 IPart=  2 IA=   10   82.50% done.
 IPart=  1 IA=   12   91.67% done.
 Time for triples=        0.25 seconds.
 T4(CCSD)= -0.35295740D-02
 T5(CCSD)=  0.59009735D-03
 CCSD(T)= -0.33870959551D+02
 Discarding MO integrals.
 Leave Link  913 at Sun Dec 10 06:34:56 2023, MaxMem=   536870912 cpu:               1.0 elap:               0.3
 (Enter /usr/site/hpc/x86_64/glibc-2.17/broadwell/gaussian/g16_a.03/pgi-16.5/g16/l601.exe)
 Copying SCF densities to generalized density rwf, IOpCl= 0 IROHF=0.

 **********************************************************************

            Population analysis using the SCF density.

 **********************************************************************

 Orbital symmetries:
       Occupied  (A') (A') (A') (A') (A') (A") (A') (A")
       Virtual   (A') (A') (A') (A') (A") (A') (A") (A') (A') (A')
                 (A') (A') (A') (A') (A') (A')
 The electronic state is 1-A'.
 Alpha  occ. eigenvalues --   -1.36636  -1.30541  -0.72495  -0.68890  -0.53443
 Alpha  occ. eigenvalues --   -0.51108  -0.49615  -0.44949
 Alpha virt. eigenvalues --    0.19298   0.27585   0.29869   0.35386   0.77693
 Alpha virt. eigenvalues --    0.84593   0.89722   0.94803   0.98605   1.14072
 Alpha virt. eigenvalues --    1.18926   1.21714   1.26797   1.31584   2.69345
 Alpha virt. eigenvalues --    2.87678
          Condensed to atoms (all electrons):
               1          2          3          4          5          6
     1  O    6.434855   0.242843   0.279280  -0.150701   0.004346  -0.029957
     2  H    0.242843   0.411323  -0.020777   0.005878  -0.000134  -0.000250
     3  H    0.279280  -0.020777   0.324812   0.005641  -0.000137   0.000687
     4  O   -0.150701   0.005878   0.005641   6.326602   0.231945   0.269078
     5  H    0.004346  -0.000134  -0.000137   0.231945   0.460841  -0.018485
     6  H   -0.029957  -0.000250   0.000687   0.269078  -0.018485   0.403054
 Mulliken charges:
               1
     1  O   -0.780666
     2  H    0.361117
     3  H    0.410494
     4  O   -0.688443
     5  H    0.321624
     6  H    0.375874
 Sum of Mulliken charges =  -0.00000
 Mulliken charges with hydrogens summed into heavy atoms:
               1
     1  O   -0.009055
     4  O    0.009055
 Electronic spatial extent (au):  <R**2>=            113.0773
 Charge=             -0.0000 electrons
 Dipole moment (field-independent basis, Debye):
    X=             -2.2452    Y=             -2.2091    Z=              0.0000  Tot=              3.1497
 Quadrupole moment (field-independent basis, Debye-Ang):
   XX=            -10.0009   YY=             -4.6412   ZZ=            -14.9980
   XY=             -2.6100   XZ=              0.0000   YZ=              0.0000
 Traceless Quadrupole moment (field-independent basis, Debye-Ang):
   XX=             -0.1209   YY=              5.2388   ZZ=             -5.1180
   XY=             -2.6100   XZ=              0.0000   YZ=              0.0000
 Octapole moment (field-independent basis, Debye-Ang**2):
  XXX=             -0.9828  YYY=             -2.5499  ZZZ=              0.0000  XYY=             -2.1070
  XXY=             -4.3399  XXZ=              0.0000  XZZ=             -0.3898  YZZ=             -0.4582
  YYZ=              0.0000  XYZ=              0.0000
 Hexadecapole moment (field-independent basis, Debye-Ang**3):
 XXXX=            -12.6306 YYYY=            -73.7921 ZZZZ=            -12.2470 XXXY=             -0.2648
 XXXZ=              0.0000 YYYX=             -4.7824 YYYZ=              0.0000 ZZZX=              0.0000
 ZZZY=              0.0000 XXYY=            -15.0359 XXZZ=             -4.5566 YYZZ=            -23.5167
 XXYZ=              0.0000 YYXZ=              0.0000 ZZXY=              0.3221
 N-N= 2.825663950297D+01 E-N=-1.384913185872D+02  KE= 2.688636883476D+01
 Symmetry A'   KE= 1.802372984655D+01
 Symmetry A"   KE= 8.862638988215D+00
 Leave Link  601 at Sun Dec 10 06:34:56 2023, MaxMem=   536870912 cpu:               0.1 elap:               0.0
 (Enter /usr/site/hpc/x86_64/glibc-2.17/broadwell/gaussian/g16_a.03/pgi-16.5/g16/l9999.exe)
 1\1\GINC-N033\SP\RCCSD(T)-FC\CEP-31G\H4O2\ROOT\10-Dec-2023\0\\#p CCSD(
 T)/CEP-31G\\H2O_H2O_545\\0,1\O,0,0.,-0.009833,0.\H,0,-0.799571,-0.5809
 65,0.\H,0,0.799571,-0.580965,0.\O,0,-0.009498,2.148505,0.\H,0,-0.35422
 5,3.068651,0.\H,0,-0.768113,1.523998,0.\\Version=ES64L-G16RevA.03\Stat
 e=1-A'\HF=-33.6226105\MP2=-33.8540856\MP3=-33.8590897\MP4D=-33.8643041
 \MP4DQ=-33.8648053\MP4SDQ=-33.8670875\CCSD=-33.8680201\CCSD(T)=-33.870
 9596\RMSD=1.742e-09\PG=CS [SG(H4O2)]\\@


 A FOOL CAN ASK MORE QUESTIONS THAN
 A WISE MAN CAN ANSWER.
 Job cpu time:       0 days  0 hours  0 minutes  3.3 seconds.
 Elapsed time:       0 days  0 hours  0 minutes  1.0 seconds.
 File lengths (MBytes):  RWF=     72 Int=      0 D2E=      0 Chk=      8 Scr=      8
 Normal termination of Gaussian 16 at Sun Dec 10 06:34:56 2023.
