 Entering Gaussian System, Link 0=g16
 Input=H2O_H2O_714.com
 Output=H2O_H2O_714.log
 Initial command:
 /usr/site/hpc/x86_64/glibc-2.17/broadwell/gaussian/g16_a.03/pgi-16.5/g16/l1.exe "/gpfs/gpfs1/scratch/c7441090/OO Coord/Gau-1222829.inp" -scrdir="/gpfs/gpfs1/scratch/c7441090/OO Coord/"
 Entering Link 1 = /usr/site/hpc/x86_64/glibc-2.17/broadwell/gaussian/g16_a.03/pgi-16.5/g16/l1.exe PID=   1222830.
  
 Copyright (c) 1988,1990,1992,1993,1995,1998,2003,2009,2016,
            Gaussian, Inc.  All Rights Reserved.
  
 This is part of the Gaussian(R) 16 program.  It is based on
 the Gaussian(R) 09 system (copyright 2009, Gaussian, Inc.),
 the Gaussian(R) 03 system (copyright 2003, Gaussian, Inc.),
 the Gaussian(R) 98 system (copyright 1998, Gaussian, Inc.),
 the Gaussian(R) 94 system (copyright 1995, Gaussian, Inc.),
 the Gaussian 92(TM) system (copyright 1992, Gaussian, Inc.),
 the Gaussian 90(TM) system (copyright 1990, Gaussian, Inc.),
 the Gaussian 88(TM) system (copyright 1988, Gaussian, Inc.),
 the Gaussian 86(TM) system (copyright 1986, Carnegie Mellon
 University), and the Gaussian 82(TM) system (copyright 1983,
 Carnegie Mellon University). Gaussian is a federally registered
 trademark of Gaussian, Inc.
  
 This software contains proprietary and confidential information,
 including trade secrets, belonging to Gaussian, Inc.
  
 This software is provided under written license and may be
 used, copied, transmitted, or stored only in accord with that
 written license.
  
 The following legend is applicable only to US Government
 contracts under FAR:
  
                    RESTRICTED RIGHTS LEGEND
  
 Use, reproduction and disclosure by the US Government is
 subject to restrictions as set forth in subparagraphs (a)
 and (c) of the Commercial Computer Software - Restricted
 Rights clause in FAR 52.227-19.
  
 Gaussian, Inc.
 340 Quinnipiac St., Bldg. 40, Wallingford CT 06492
  
  
 ---------------------------------------------------------------
 Warning -- This program may not be used in any manner that
 competes with the business of Gaussian, Inc. or will provide
 assistance to any competitor of Gaussian, Inc.  The licensee
 of this program is prohibited from giving any competitor of
 Gaussian, Inc. access to this program.  By using this program,
 the user acknowledges that Gaussian, Inc. is engaged in the
 business of creating and licensing software in the field of
 computational chemistry and represents and warrants to the
 licensee that it is not a competitor of Gaussian, Inc. and that
 it will not use this program in any manner prohibited above.
 ---------------------------------------------------------------
  

 Cite this work as:
 Gaussian 16, Revision A.03,
 M. J. Frisch, G. W. Trucks, H. B. Schlegel, G. E. Scuseria, 
 M. A. Robb, J. R. Cheeseman, G. Scalmani, V. Barone, 
 G. A. Petersson, H. Nakatsuji, X. Li, M. Caricato, A. V. Marenich, 
 J. Bloino, B. G. Janesko, R. Gomperts, B. Mennucci, H. P. Hratchian, 
 J. V. Ortiz, A. F. Izmaylov, J. L. Sonnenberg, D. Williams-Young, 
 F. Ding, F. Lipparini, F. Egidi, J. Goings, B. Peng, A. Petrone, 
 T. Henderson, D. Ranasinghe, V. G. Zakrzewski, J. Gao, N. Rega, 
 G. Zheng, W. Liang, M. Hada, M. Ehara, K. Toyota, R. Fukuda, 
 J. Hasegawa, M. Ishida, T. Nakajima, Y. Honda, O. Kitao, H. Nakai, 
 T. Vreven, K. Throssell, J. A. Montgomery, Jr., J. E. Peralta, 
 F. Ogliaro, M. J. Bearpark, J. J. Heyd, E. N. Brothers, K. N. Kudin, 
 V. N. Staroverov, T. A. Keith, R. Kobayashi, J. Normand, 
 K. Raghavachari, A. P. Rendell, J. C. Burant, S. S. Iyengar, 
 J. Tomasi, M. Cossi, J. M. Millam, M. Klene, C. Adamo, R. Cammi, 
 J. W. Ochterski, R. L. Martin, K. Morokuma, O. Farkas, 
 J. B. Foresman, and D. J. Fox, Gaussian, Inc., Wallingford CT, 2016.
 
 ******************************************
 Gaussian 16:  ES64L-G16RevA.03 25-Dec-2016
                10-Dec-2023 
 ******************************************
 %NProcShared=4
 Will use up to    4 processors via shared memory.
 %Mem=4GB
 %Chk=H2O_H2O_714.chk
 ------------------
 #p CCSD(T)/CEP-31G
 ------------------
 1/38=1,172=1/1;
 2/12=2,17=6,18=5,40=1/2;
 3/5=9,6=1,11=9,25=1,30=1/1,2,3;
 4//1;
 5/5=2,38=5/2;
 8/6=4,9=120000,10=1/1,4;
 9/5=7,14=2/13;
 6/7=2,8=2,9=2,10=2/1;
 99/5=1,9=1/99;
 Leave Link    1 at Sun Dec 10 06:38:04 2023, MaxMem=   536870912 cpu:               0.3 elap:               0.1
 (Enter /usr/site/hpc/x86_64/glibc-2.17/broadwell/gaussian/g16_a.03/pgi-16.5/g16/l101.exe)
 -----------
 H2O_H2O_714
 -----------
 Symbolic Z-matrix:
 Charge =  0 Multiplicity = 1
 O                     0.       -0.00983   0. 
 H                    -0.79957  -0.58097   0. 
 H                     0.79957  -0.58097   0. 
 O                    -0.0078    2.33809   0. 
 H                     0.02584   3.32011   0. 
 H                    -0.94766   2.05143   0. 
 
 ITRead=  0  0  0  0  0  0
 MicOpt= -1 -1 -1 -1 -1 -1
 NAtoms=      6 NQM=        6 NQMF=       0 NMMI=      0 NMMIF=      0
                NMic=       0 NMicF=      0.
                    Isotopes and Nuclear Properties:
 (Nuclear quadrupole moments (NQMom) in fm**2, nuclear magnetic moments (NMagM)
  in nuclear magnetons)

  Atom         1           2           3           4           5           6
 IAtWgt=          16           1           1          16           1           1
 AtmWgt=  15.9949146   1.0078250   1.0078250  15.9949146   1.0078250   1.0078250
 NucSpn=           0           1           1           0           1           1
 AtZEff=  -0.0000000  -0.0000000  -0.0000000  -0.0000000  -0.0000000  -0.0000000
 NQMom=    0.0000000   0.0000000   0.0000000   0.0000000   0.0000000   0.0000000
 NMagM=    0.0000000   2.7928460   2.7928460   0.0000000   2.7928460   2.7928460
 AtZNuc=   8.0000000   1.0000000   1.0000000   8.0000000   1.0000000   1.0000000
 Leave Link  101 at Sun Dec 10 06:38:04 2023, MaxMem=   536870912 cpu:               0.3 elap:               0.1
 (Enter /usr/site/hpc/x86_64/glibc-2.17/broadwell/gaussian/g16_a.03/pgi-16.5/g16/l202.exe)
                          Input orientation:                          
 ---------------------------------------------------------------------
 Center     Atomic      Atomic             Coordinates (Angstroms)
 Number     Number       Type             X           Y           Z
 ---------------------------------------------------------------------
      1          8           0        0.000000   -0.009833    0.000000
      2          1           0       -0.799571   -0.580965    0.000000
      3          1           0        0.799571   -0.580965    0.000000
      4          8           0       -0.007801    2.338089    0.000000
      5          1           0        0.025838    3.320114    0.000000
      6          1           0       -0.947659    2.051429    0.000000
 ---------------------------------------------------------------------
                    Distance matrix (angstroms):
                    1          2          3          4          5
     1  O    0.000000
     2  H    0.982601   0.000000
     3  H    0.982601   1.599142   0.000000
     4  O    2.347935   3.024529   3.028651   0.000000
     5  H    3.330047   3.987445   3.977069   0.982601   0.000000
     6  H    2.268669   2.636556   3.159480   0.982602   1.599143
                    6
     6  H    0.000000
 Stoichiometry    H4O2
 Framework group  CS[SG(H4O2)]
 Deg. of freedom     9
 Full point group                 CS      NOp   2
 Largest Abelian subgroup         CS      NOp   2
 Largest concise Abelian subgroup C1      NOp   1
                         Standard orientation:                         
 ---------------------------------------------------------------------
 Center     Atomic      Atomic             Coordinates (Angstroms)
 Number     Number       Type             X           Y           Z
 ---------------------------------------------------------------------
      1          8           0        0.045385   -1.151773    0.000000
      2          1           0       -0.756079   -1.720245    0.000000
      3          1           0        0.843054   -1.725559    0.000000
      4          8           0        0.045385    1.196162    0.000000
      5          1           0        0.082287    2.178070    0.000000
      6          1           0       -0.895420    0.912626    0.000000
 ---------------------------------------------------------------------
 Rotational constants (GHZ):         235.3174939           9.0706895           8.7340226
 Leave Link  202 at Sun Dec 10 06:38:04 2023, MaxMem=   536870912 cpu:               0.1 elap:               0.0
 (Enter /usr/site/hpc/x86_64/glibc-2.17/broadwell/gaussian/g16_a.03/pgi-16.5/g16/l301.exe)
 Standard basis: CEP-31G (6D, 10F)
 Ernie: Thresh=  0.10000D-02 Tol=  0.10000D-05 Strict=F.
 There are    20 symmetry adapted cartesian basis functions of A'  symmetry.
 There are     4 symmetry adapted cartesian basis functions of A"  symmetry.
 There are    20 symmetry adapted basis functions of A'  symmetry.
 There are     4 symmetry adapted basis functions of A"  symmetry.
    24 basis functions,    48 primitive gaussians,    24 cartesian basis functions
     8 alpha electrons        8 beta electrons
       nuclear repulsion energy        26.7856954273 Hartrees.
 IExCor=    0 DFT=F Ex=HF Corr=None ExCW=0 ScaHFX=  1.000000
 ScaDFX=  1.000000  1.000000  1.000000  1.000000 ScalE2=  1.000000  1.000000
 IRadAn=      5 IRanWt=     -1 IRanGd=            0 ICorTp=0 IEmpDi=  4
 NAtoms=    6 NActive=    6 NUniq=    6 SFac= 1.00D+00 NAtFMM=   60 NAOKFM=F Big=F
 Integral buffers will be    131072 words long.
 Raffenetti 1 integral format.
 Two-electron integral symmetry is turned on.
 Leave Link  301 at Sun Dec 10 06:38:04 2023, MaxMem=   536870912 cpu:               0.2 elap:               0.1
 (Enter /usr/site/hpc/x86_64/glibc-2.17/broadwell/gaussian/g16_a.03/pgi-16.5/g16/l302.exe)
 NPDir=0 NMtPBC=     1 NCelOv=     1 NCel=       1 NClECP=     1 NCelD=      1
         NCelK=      1 NCelE2=     1 NClLst=     1 CellRange=     0.0.
 One-electron integrals computed using PRISM.
 One-electron integral symmetry used in STVInt
   2 Symmetry operations used in ECPInt.
 ECPInt:  NShTT=      78 NPrTT=     318 LenC2=      79 LenP2D=     291.
 LDataN:  DoStor=T MaxTD1= 2 Len=   12
 NBasis=    24 RedAO= T EigKep=  3.56D-02  NBF=    20     4
 NBsUse=    24 1.00D-06 EigRej= -1.00D+00 NBFU=    20     4
 Leave Link  302 at Sun Dec 10 06:38:04 2023, MaxMem=   536870912 cpu:               0.3 elap:               0.1
 (Enter /usr/site/hpc/x86_64/glibc-2.17/broadwell/gaussian/g16_a.03/pgi-16.5/g16/l303.exe)
 DipDrv:  MaxL=1.
 Leave Link  303 at Sun Dec 10 06:38:04 2023, MaxMem=   536870912 cpu:               0.1 elap:               0.0
 (Enter /usr/site/hpc/x86_64/glibc-2.17/broadwell/gaussian/g16_a.03/pgi-16.5/g16/l401.exe)
 ExpMin= 1.78D-01 ExpMax= 1.92D+01 ExpMxC= 1.92D+01 IAcc=3 IRadAn=         5 AccDes= 0.00D+00
 Harris functional with IExCor=  205 and IRadAn=       5 diagonalized for initial guess.
 HarFok:  IExCor=  205 AccDes= 0.00D+00 IRadAn=         5 IDoV= 1 UseB2=F ITyADJ=14
 ICtDFT=  3500011 ScaDFX=  1.000000  1.000000  1.000000  1.000000
 FoFCou: FMM=F IPFlag=           0 FMFlag=      100000 FMFlg1=           0
         NFxFlg=           0 DoJE=T BraDBF=F KetDBF=T FulRan=T
         wScrn=  0.000000 ICntrl=       500 IOpCl=  0 I1Cent=   200000004 NGrid=           0
         NMat0=    1 NMatS0=      1 NMatT0=    0 NMatD0=    1 NMtDS0=    0 NMtDT0=    0
 Petite list used in FoFCou.
 Harris En= -34.4745250257674    
 JPrj=0 DoOrth=F DoCkMO=F.
 Initial guess orbital symmetries:
       Occupied  (A') (A') (A') (A') (A') (A') (A") (A")
       Virtual   (A') (A') (A') (A') (A") (A') (A") (A') (A') (A')
                 (A') (A') (A') (A') (A') (A')
 The electronic state of the initial guess is 1-A'.
 Leave Link  401 at Sun Dec 10 06:38:04 2023, MaxMem=   536870912 cpu:               0.4 elap:               0.1
 (Enter /usr/site/hpc/x86_64/glibc-2.17/broadwell/gaussian/g16_a.03/pgi-16.5/g16/l502.exe)
 Keep R1 ints in memory in symmetry-blocked form, NReq=852630.
 FoFCou: FMM=F IPFlag=           0 FMFlag=           0 FMFlg1=           0
         NFxFlg=           0 DoJE=F BraDBF=F KetDBF=F FulRan=T
         wScrn=  0.000000 ICntrl=       600 IOpCl=  0 I1Cent=           0 NGrid=           0
         NMat0=    1 NMatS0=    300 NMatT0=    0 NMatD0=    1 NMtDS0=    0 NMtDT0=    0
 Petite list used in FoFCou.
 Closed shell SCF:
 Using DIIS extrapolation, IDIIS=  1040.
 NGot=   536870912 LenX=   536840576 LenY=   536839559
 Requested convergence on RMS density matrix=1.00D-08 within 128 cycles.
 Requested convergence on MAX density matrix=1.00D-06.
 Requested convergence on             energy=1.00D-06.
 No special actions if energy rises.

 Cycle   1  Pass 1  IDiag  1:
 E= -33.5295679005903    
 DIIS: error= 6.10D-02 at cycle   1 NSaved=   1.
 NSaved= 1 IEnMin= 1 EnMin= -33.5295679005903     IErMin= 1 ErrMin= 6.10D-02
 ErrMax= 6.10D-02  0.00D+00 EMaxC= 1.00D-01 BMatC= 1.10D-01 BMatP= 1.10D-01
 IDIUse=3 WtCom= 3.90D-01 WtEn= 6.10D-01
 Coeff-Com:  0.100D+01
 Coeff-En:   0.100D+01
 Coeff:      0.100D+01
 Gap=     0.559 Goal=   None    Shift=    0.000
 GapD=    0.559 DampG=2.000 DampE=0.500 DampFc=1.0000 IDamp=-1.
 RMSDP=1.68D-02 MaxDP=1.24D-01              OVMax= 1.12D-01

 Cycle   2  Pass 1  IDiag  1:
 E= -33.5984314178062     Delta-E=       -0.068863517216 Rises=F Damp=F
 DIIS: error= 3.94D-02 at cycle   2 NSaved=   2.
 NSaved= 2 IEnMin= 2 EnMin= -33.5984314178062     IErMin= 2 ErrMin= 3.94D-02
 ErrMax= 3.94D-02  0.00D+00 EMaxC= 1.00D-01 BMatC= 4.23D-02 BMatP= 1.10D-01
 IDIUse=3 WtCom= 6.06D-01 WtEn= 3.94D-01
 Coeff-Com:  0.380D+00 0.620D+00
 Coeff-En:   0.101D+00 0.899D+00
 Coeff:      0.270D+00 0.730D+00
 Gap=     0.669 Goal=   None    Shift=    0.000
 RMSDP=7.18D-03 MaxDP=5.88D-02 DE=-6.89D-02 OVMax= 3.76D-02

 Cycle   3  Pass 1  IDiag  1:
 E= -33.6316645330148     Delta-E=       -0.033233115209 Rises=F Damp=F
 DIIS: error= 6.89D-03 at cycle   3 NSaved=   3.
 NSaved= 3 IEnMin= 3 EnMin= -33.6316645330148     IErMin= 3 ErrMin= 6.89D-03
 ErrMax= 6.89D-03  0.00D+00 EMaxC= 1.00D-01 BMatC= 1.23D-03 BMatP= 4.23D-02
 IDIUse=3 WtCom= 9.31D-01 WtEn= 6.89D-02
 Coeff-Com: -0.107D+00 0.123D-01 0.109D+01
 Coeff-En:   0.000D+00 0.000D+00 0.100D+01
 Coeff:     -0.995D-01 0.114D-01 0.109D+01
 Gap=     0.660 Goal=   None    Shift=    0.000
 RMSDP=1.31D-03 MaxDP=1.03D-02 DE=-3.32D-02 OVMax= 9.54D-03

 Cycle   4  Pass 1  IDiag  1:
 E= -33.6328657952383     Delta-E=       -0.001201262223 Rises=F Damp=F
 DIIS: error= 8.63D-04 at cycle   4 NSaved=   4.
 NSaved= 4 IEnMin= 4 EnMin= -33.6328657952383     IErMin= 4 ErrMin= 8.63D-04
 ErrMax= 8.63D-04  0.00D+00 EMaxC= 1.00D-01 BMatC= 7.75D-06 BMatP= 1.23D-03
 IDIUse=3 WtCom= 9.91D-01 WtEn= 8.63D-03
 Coeff-Com:  0.367D-01-0.274D-01-0.449D+00 0.144D+01
 Coeff-En:   0.000D+00 0.000D+00 0.000D+00 0.100D+01
 Coeff:      0.364D-01-0.272D-01-0.445D+00 0.144D+01
 Gap=     0.662 Goal=   None    Shift=    0.000
 RMSDP=2.56D-04 MaxDP=2.38D-03 DE=-1.20D-03 OVMax= 1.30D-03

 Cycle   5  Pass 1  IDiag  1:
 E= -33.6328819776712     Delta-E=       -0.000016182433 Rises=F Damp=F
 DIIS: error= 8.32D-05 at cycle   5 NSaved=   5.
 NSaved= 5 IEnMin= 5 EnMin= -33.6328819776712     IErMin= 5 ErrMin= 8.32D-05
 ErrMax= 8.32D-05  0.00D+00 EMaxC= 1.00D-01 BMatC= 1.91D-07 BMatP= 7.75D-06
 IDIUse=1 WtCom= 1.00D+00 WtEn= 0.00D+00
 Coeff-Com:  0.707D-02-0.426D-02-0.843D-01 0.177D+00 0.905D+00
 Coeff:      0.707D-02-0.426D-02-0.843D-01 0.177D+00 0.905D+00
 Gap=     0.662 Goal=   None    Shift=    0.000
 RMSDP=2.59D-05 MaxDP=2.90D-04 DE=-1.62D-05 OVMax= 1.68D-04

 Cycle   6  Pass 1  IDiag  1:
 E= -33.6328822549455     Delta-E=       -0.000000277274 Rises=F Damp=F
 DIIS: error= 2.73D-05 at cycle   6 NSaved=   6.
 NSaved= 6 IEnMin= 6 EnMin= -33.6328822549455     IErMin= 6 ErrMin= 2.73D-05
 ErrMax= 2.73D-05  0.00D+00 EMaxC= 1.00D-01 BMatC= 2.54D-08 BMatP= 1.91D-07
 IDIUse=1 WtCom= 1.00D+00 WtEn= 0.00D+00
 Coeff-Com: -0.360D-02 0.262D-02 0.434D-01-0.153D+00 0.156D+00 0.954D+00
 Coeff:     -0.360D-02 0.262D-02 0.434D-01-0.153D+00 0.156D+00 0.954D+00
 Gap=     0.662 Goal=   None    Shift=    0.000
 RMSDP=9.32D-06 MaxDP=9.65D-05 DE=-2.77D-07 OVMax= 6.75D-05

 Cycle   7  Pass 1  IDiag  1:
 E= -33.6328822932398     Delta-E=       -0.000000038294 Rises=F Damp=F
 DIIS: error= 6.55D-06 at cycle   7 NSaved=   7.
 NSaved= 7 IEnMin= 7 EnMin= -33.6328822932398     IErMin= 7 ErrMin= 6.55D-06
 ErrMax= 6.55D-06  0.00D+00 EMaxC= 1.00D-01 BMatC= 8.99D-10 BMatP= 2.54D-08
 IDIUse=1 WtCom= 1.00D+00 WtEn= 0.00D+00
 Coeff-Com:  0.903D-03-0.560D-03-0.103D-01 0.405D-01-0.882D-01-0.299D+00
 Coeff-Com:  0.136D+01
 Coeff:      0.903D-03-0.560D-03-0.103D-01 0.405D-01-0.882D-01-0.299D+00
 Coeff:      0.136D+01
 Gap=     0.662 Goal=   None    Shift=    0.000
 RMSDP=2.84D-06 MaxDP=2.46D-05 DE=-3.83D-08 OVMax= 2.60D-05

 Cycle   8  Pass 1  IDiag  1:
 E= -33.6328822957903     Delta-E=       -0.000000002551 Rises=F Damp=F
 DIIS: error= 1.27D-06 at cycle   8 NSaved=   8.
 NSaved= 8 IEnMin= 8 EnMin= -33.6328822957903     IErMin= 8 ErrMin= 1.27D-06
 ErrMax= 1.27D-06  0.00D+00 EMaxC= 1.00D-01 BMatC= 4.13D-11 BMatP= 8.99D-10
 IDIUse=1 WtCom= 1.00D+00 WtEn= 0.00D+00
 Coeff-Com:  0.218D-04-0.641D-04-0.481D-03 0.625D-03 0.119D-01 0.125D-01
 Coeff-Com: -0.314D+00 0.129D+01
 Coeff:      0.218D-04-0.641D-04-0.481D-03 0.625D-03 0.119D-01 0.125D-01
 Coeff:     -0.314D+00 0.129D+01
 Gap=     0.662 Goal=   None    Shift=    0.000
 RMSDP=7.67D-07 MaxDP=5.21D-06 DE=-2.55D-09 OVMax= 5.79D-06

 Cycle   9  Pass 1  IDiag  1:
 E= -33.6328822959177     Delta-E=       -0.000000000127 Rises=F Damp=F
 DIIS: error= 2.58D-07 at cycle   9 NSaved=   9.
 NSaved= 9 IEnMin= 9 EnMin= -33.6328822959177     IErMin= 9 ErrMin= 2.58D-07
 ErrMax= 2.58D-07  0.00D+00 EMaxC= 1.00D-01 BMatC= 1.37D-12 BMatP= 4.13D-11
 IDIUse=1 WtCom= 1.00D+00 WtEn= 0.00D+00
 Coeff-Com:  0.303D-05 0.131D-04 0.412D-04 0.573D-04-0.356D-02-0.400D-02
 Coeff-Com:  0.951D-01-0.490D+00 0.140D+01
 Coeff:      0.303D-05 0.131D-04 0.412D-04 0.573D-04-0.356D-02-0.400D-02
 Coeff:      0.951D-01-0.490D+00 0.140D+01
 Gap=     0.662 Goal=   None    Shift=    0.000
 RMSDP=1.96D-07 MaxDP=9.22D-07 DE=-1.27D-10 OVMax= 1.42D-06

 Cycle  10  Pass 1  IDiag  1:
 E= -33.6328822959221     Delta-E=       -0.000000000004 Rises=F Damp=F
 DIIS: error= 1.81D-08 at cycle  10 NSaved=  10.
 NSaved=10 IEnMin=10 EnMin= -33.6328822959221     IErMin=10 ErrMin= 1.81D-08
 ErrMax= 1.81D-08  0.00D+00 EMaxC= 1.00D-01 BMatC= 1.32D-14 BMatP= 1.37D-12
 IDIUse=1 WtCom= 1.00D+00 WtEn= 0.00D+00
 Coeff-Com:  0.411D-06-0.337D-05-0.203D-04 0.441D-04 0.597D-03 0.420D-03
 Coeff-Com: -0.179D-01 0.102D+00-0.370D+00 0.129D+01
 Coeff:      0.411D-06-0.337D-05-0.203D-04 0.441D-04 0.597D-03 0.420D-03
 Coeff:     -0.179D-01 0.102D+00-0.370D+00 0.129D+01
 Gap=     0.662 Goal=   None    Shift=    0.000
 RMSDP=2.04D-08 MaxDP=1.17D-07 DE=-4.41D-12 OVMax= 1.28D-07

 Cycle  11  Pass 1  IDiag  1:
 E= -33.6328822959221     Delta-E=       -0.000000000000 Rises=F Damp=F
 DIIS: error= 1.40D-09 at cycle  11 NSaved=  11.
 NSaved=11 IEnMin=11 EnMin= -33.6328822959221     IErMin=11 ErrMin= 1.40D-09
 ErrMax= 1.40D-09  0.00D+00 EMaxC= 1.00D-01 BMatC= 9.66D-17 BMatP= 1.32D-14
 IDIUse=1 WtCom= 1.00D+00 WtEn= 0.00D+00
 Coeff-Com: -0.173D-06 0.864D-06 0.583D-05-0.143D-04-0.148D-03-0.773D-04
 Coeff-Com:  0.446D-02-0.260D-01 0.974D-01-0.374D+00 0.130D+01
 Coeff:     -0.173D-06 0.864D-06 0.583D-05-0.143D-04-0.148D-03-0.773D-04
 Coeff:      0.446D-02-0.260D-01 0.974D-01-0.374D+00 0.130D+01
 Gap=     0.662 Goal=   None    Shift=    0.000
 RMSDP=1.19D-09 MaxDP=7.54D-09 DE=-2.84D-14 OVMax= 7.30D-09

 SCF Done:  E(RHF) =  -33.6328822959     A.U. after   11 cycles
            NFock= 11  Conv=0.12D-08     -V/T= 2.2557
 KE= 2.678349774103D+01 PE=-1.355803469053D+02 EE= 4.837827144097D+01
 Leave Link  502 at Sun Dec 10 06:38:04 2023, MaxMem=   536870912 cpu:               0.3 elap:               0.1
 (Enter /usr/site/hpc/x86_64/glibc-2.17/broadwell/gaussian/g16_a.03/pgi-16.5/g16/l801.exe)
 Windowed orbitals will be sorted by symmetry type.
 Range of M.O.s used for correlation:     1    24
 NBasis=    24 NAE=     8 NBE=     8 NFC=     0 NFV=     0
 NROrb=     24 NOA=     8 NOB=     8 NVA=    16 NVB=    16
 Leave Link  801 at Sun Dec 10 06:38:04 2023, MaxMem=   536870912 cpu:               0.1 elap:               0.0
 (Enter /usr/site/hpc/x86_64/glibc-2.17/broadwell/gaussian/g16_a.03/pgi-16.5/g16/l804.exe)
 Closed-shell transformation, MDV=   536870912 ITran=4 ISComp=2.
 Unit  1 TFree=       1025975 TCopy=        210600.
 Semi-Direct transformation.
 ModeAB=           2 MOrb=             8 LenV=     536741638
 LASXX=        22470 LTotXX=       22470 LenRXX=       22470
 LTotAB=       26208 MaxLAS=       57600 LenRXY=       57600
 NonZer=       62208 LenScr=      524288 LnRSAI=           0
 LnScr1=           0 LExtra=           0 Total=       604358
 MaxDsk=          -1 SrtSym=           F ITran=            4
 DoSDTr:  NPSUse=  4
 JobTyp=0 Pass  1:  I=   1 to   8.
 (rs|ai) integrals will be sorted in core.
 Complete sort for first half transformation.
 First half transformation complete.
 Complete sort for second half transformation.
 Second half transformation complete.
 Spin components of T(2) and E(2):
     alpha-alpha T2 =       0.9176778310D-02 E2=     -0.2632144332D-01
     alpha-beta  T2 =       0.6030750941D-01 E2=     -0.1779612712D+00
     beta-beta   T2 =       0.9176778310D-02 E2=     -0.2632144332D-01
 ANorm=    0.1038586090D+01
 E2 =    -0.2306041578D+00 EUMP2 =    -0.33863486453771D+02
 Leave Link  804 at Sun Dec 10 06:38:04 2023, MaxMem=   536870912 cpu:               0.2 elap:               0.1
 (Enter /usr/site/hpc/x86_64/glibc-2.17/broadwell/gaussian/g16_a.03/pgi-16.5/g16/l913.exe)
 CIDS:  MDV=   536870912.
 IFCWin=0 IBDFC=1 NFBD=     0     0 NFCmp=     0     0 NFFFC=     0     0
 Using DD3R+UMP44R for 1st iteration.
 Using DD4RQ for 2nd and later iterations.
 Keep R2 and R3 ints in memory in symmetry-blocked form, NReq=865238.
 FoFCou: FMM=F IPFlag=           0 FMFlag=           0 FMFlg1=           0
         NFxFlg=           0 DoJE=F BraDBF=F KetDBF=F FulRan=T
         wScrn=  0.000000 ICntrl=       600 IOpCl=  0 I1Cent=           0 NGrid=           0
         NMat0=    1 NMatS0=    300 NMatT0=    0 NMatD0=    1 NMtDS0=    0 NMtDT0=    0
 Petite list used in FoFCou.
 CIDS: In Core Option IDoMem=           1.
 CCSD(T)
 =======
 Iterations=  50 Convergence= 0.100D-06
 Produce multiple copies of IABC intergrals
 Iteration Nr.   1
 **********************
 DD1Dir will call FoFMem   1 times, MxPair=        72
 NAB=    36 NAA=     0 NBB=     0.
 MP4(R+Q)= -0.55778522D-03
 Maximum subspace dimension=  5
 A-vector RMS=  6.1151240D-03 Max=  1.4789317D-02 conv= 1.00D-05.
 RLE energy=       -0.2365715409
 E3=       -0.55308866D-02        EUMP3=      -0.33869017340D+02
 E4(DQ)=   -0.58212119D-02        UMP4(DQ)=   -0.33874838552D+02
 E4(SDQ)=  -0.80054239D-02        UMP4(SDQ)=  -0.33877022764D+02
 VARIATIONAL ENERGIES WITH THE FIRST-ORDER WAVEFUNCTION:
 DE(Corr)= -0.23642135     E(Corr)=     -33.869303642    
 NORM(A)=   0.10421394D+01
 Iteration Nr.   2
 **********************
 DD1Dir will call FoFMem   1 times, MxPair=        72
 NAB=    36 NAA=     0 NBB=     0.
 A-vector RMS=  1.0263065D-03 Max=  2.3909148D-03 conv= 1.00D-05.
 RLE energy=       -0.2445664528
 DE(Corr)= -0.24260748     E(CORR)=     -33.875489776     Delta=-6.19D-03
 NORM(A)=   0.10461419D+01
 Iteration Nr.   3
 **********************
 DD1Dir will call FoFMem   1 times, MxPair=        72
 NAB=    36 NAA=     0 NBB=     0.
 A-vector RMS=  5.0943846D-04 Max=  2.1228296D-03 conv= 1.00D-05.
 RLE energy=       -0.2451362589
 DE(Corr)= -0.24465060     E(CORR)=     -33.877532896     Delta=-2.04D-03
 NORM(A)=   0.10467903D+01
 Iteration Nr.   4
 **********************
 DD1Dir will call FoFMem   1 times, MxPair=        72
 NAB=    36 NAA=     0 NBB=     0.
 A-vector RMS=  1.2234879D-04 Max=  4.1264043D-04 conv= 1.00D-05.
 RLE energy=       -0.2451931818
 DE(Corr)= -0.24515158     E(CORR)=     -33.878033871     Delta=-5.01D-04
 NORM(A)=   0.10468928D+01
 Iteration Nr.   5
 **********************
 DD1Dir will call FoFMem   1 times, MxPair=        72
 NAB=    36 NAA=     0 NBB=     0.
 A-vector RMS=  5.7453031D-05 Max=  2.5344670D-04 conv= 1.00D-05.
 RLE energy=       -0.2451929471
 DE(Corr)= -0.24518851     E(CORR)=     -33.878070803     Delta=-3.69D-05
 NORM(A)=   0.10469122D+01
 Iteration Nr.   6
 **********************
 DD1Dir will call FoFMem   1 times, MxPair=        72
 NAB=    36 NAA=     0 NBB=     0.
 A-vector RMS=  2.0224449D-05 Max=  8.2662000D-05 conv= 1.00D-05.
 RLE energy=       -0.2451876584
 DE(Corr)= -0.24519199     E(CORR)=     -33.878074287     Delta=-3.48D-06
 NORM(A)=   0.10469166D+01
 Iteration Nr.   7
 **********************
 DD1Dir will call FoFMem   1 times, MxPair=        72
 NAB=    36 NAA=     0 NBB=     0.
 A-vector RMS=  6.3868282D-06 Max=  2.2645106D-05 conv= 1.00D-05.
 RLE energy=       -0.2451902137
 DE(Corr)= -0.24519139     E(CORR)=     -33.878073682     Delta= 6.04D-07
 NORM(A)=   0.10469196D+01
 Iteration Nr.   8
 **********************
 DD1Dir will call FoFMem   1 times, MxPair=        72
 NAB=    36 NAA=     0 NBB=     0.
 A-vector RMS=  2.0968742D-06 Max=  8.5915084D-06 conv= 1.00D-05.
 RLE energy=       -0.2451905516
 DE(Corr)= -0.24519073     E(CORR)=     -33.878073028     Delta= 6.55D-07
 NORM(A)=   0.10469205D+01
 Iteration Nr.   9
 **********************
 DD1Dir will call FoFMem   1 times, MxPair=        72
 NAB=    36 NAA=     0 NBB=     0.
 A-vector RMS=  5.0968554D-07 Max=  2.0568954D-06 conv= 1.00D-05.
 RLE energy=       -0.2451909605
 DE(Corr)= -0.24519097     E(CORR)=     -33.878073265     Delta=-2.37D-07
 NORM(A)=   0.10469209D+01
 Iteration Nr.  10
 **********************
 DD1Dir will call FoFMem   1 times, MxPair=        72
 NAB=    36 NAA=     0 NBB=     0.
 A-vector RMS=  1.6419741D-07 Max=  5.5360584D-07 conv= 1.00D-05.
 RLE energy=       -0.2451911250
 DE(Corr)= -0.24519108     E(CORR)=     -33.878073378     Delta=-1.13D-07
 NORM(A)=   0.10469211D+01
 Iteration Nr.  11
 **********************
 DD1Dir will call FoFMem   1 times, MxPair=        72
 NAB=    36 NAA=     0 NBB=     0.
 A-vector RMS=  5.6793889D-08 Max=  2.0174021D-07 conv= 1.00D-05.
 RLE energy=       -0.2451911757
 DE(Corr)= -0.24519116     E(CORR)=     -33.878073453     Delta=-7.46D-08
 NORM(A)=   0.10469211D+01
 CI/CC converged in   11 iterations to DelEn=-7.46D-08 Conv= 1.00D-07 ErrA1= 5.68D-08 Conv= 1.00D-05
 Wavefunction amplitudes converged. E(Corr)=     -33.878073453    
 Largest amplitude= 3.97D-02
 IPart=  3 IA=    2   12.50% done.
 IPart=  2 IA=    3   24.17% done.
 IPart=  4 IA=    4   35.00% done.
 IPart=  2 IA=    5   45.00% done.
 IPart=  4 IA=    6   54.17% done.
 IPart=  3 IA=    7   62.50% done.
 IPart=  1 IA=    8   70.00% done.
 IPart=  3 IA=   10   82.50% done.
 IPart=  2 IA=   12   91.67% done.
 Time for triples=        0.27 seconds.
 T4(CCSD)= -0.33338450D-02
 T5(CCSD)=  0.56742143D-03
 CCSD(T)= -0.33880839876D+02
 Discarding MO integrals.
 Leave Link  913 at Sun Dec 10 06:38:05 2023, MaxMem=   536870912 cpu:               1.0 elap:               0.3
 (Enter /usr/site/hpc/x86_64/glibc-2.17/broadwell/gaussian/g16_a.03/pgi-16.5/g16/l601.exe)
 Copying SCF densities to generalized density rwf, IOpCl= 0 IROHF=0.

 **********************************************************************

            Population analysis using the SCF density.

 **********************************************************************

 Orbital symmetries:
       Occupied  (A') (A') (A') (A') (A') (A") (A') (A")
       Virtual   (A') (A') (A') (A') (A") (A') (A") (A') (A') (A')
                 (A') (A') (A') (A') (A') (A')
 The electronic state is 1-A'.
 Alpha  occ. eigenvalues --   -1.34187  -1.31696  -0.69813  -0.67722  -0.55085
 Alpha  occ. eigenvalues --   -0.48861  -0.48722  -0.45930
 Alpha virt. eigenvalues --    0.20278   0.25615   0.31564   0.33252   0.78587
 Alpha virt. eigenvalues --    0.83698   0.89126   0.92498   0.96899   1.15005
 Alpha virt. eigenvalues --    1.18940   1.22196   1.23756   1.30834   2.57377
 Alpha virt. eigenvalues --    2.86294
          Condensed to atoms (all electrons):
               1          2          3          4          5          6
     1  O    6.300186   0.247987   0.270616  -0.083720   0.001483   0.003205
     2  H    0.247987   0.424168  -0.023972   0.002917  -0.000016  -0.000510
     3  H    0.270616  -0.023972   0.369973   0.003781  -0.000054  -0.000138
     4  O   -0.083720   0.002917   0.003781   6.262957   0.240779   0.261811
     5  H    0.001483  -0.000016  -0.000054   0.240779   0.441364  -0.023180
     6  H    0.003205  -0.000510  -0.000138   0.261811  -0.023180   0.399374
 Mulliken charges:
               1
     1  O   -0.739758
     2  H    0.349426
     3  H    0.379795
     4  O   -0.688525
     5  H    0.339624
     6  H    0.359438
 Sum of Mulliken charges =   0.00000
 Mulliken charges with hydrogens summed into heavy atoms:
               1
     1  O   -0.010537
     4  O    0.010537
 Electronic spatial extent (au):  <R**2>=            127.4428
 Charge=              0.0000 electrons
 Dipole moment (field-independent basis, Debye):
    X=             -1.9047    Y=             -1.0970    Z=              0.0000  Tot=              2.1980
 Quadrupole moment (field-independent basis, Debye-Ang):
   XX=             -9.4447   YY=             -2.0448   ZZ=            -14.9952
   XY=             -1.8512   XZ=              0.0000   YZ=              0.0000
 Traceless Quadrupole moment (field-independent basis, Debye-Ang):
   XX=             -0.6165   YY=              6.7834   ZZ=             -6.1669
   XY=             -1.8512   XZ=              0.0000   YZ=              0.0000
 Octapole moment (field-independent basis, Debye-Ang**2):
  XXX=             -1.6062  YYY=              0.1358  ZZZ=              0.0000  XYY=             -0.2485
  XXY=             -3.3390  XXZ=              0.0000  XZZ=             -0.3350  YZZ=             -0.2091
  YYZ=              0.0000  XYZ=              0.0000
 Hexadecapole moment (field-independent basis, Debye-Ang**3):
 XXXX=            -12.1824 YYYY=            -78.2770 ZZZZ=            -12.2330 XXXY=             -1.0766
 XXXZ=              0.0000 YYYX=              0.2523 YYYZ=              0.0000 ZZZX=              0.0000
 ZZZY=              0.0000 XXYY=            -16.8009 XXZZ=             -4.5944 YYZZ=            -26.9819
 XXYZ=              0.0000 YYXZ=              0.0000 ZZXY=              0.2445
 N-N= 2.678569542733D+01 E-N=-1.355803469167D+02  KE= 2.678349774103D+01
 Symmetry A'   KE= 1.790815362710D+01
 Symmetry A"   KE= 8.875344113928D+00
 Leave Link  601 at Sun Dec 10 06:38:05 2023, MaxMem=   536870912 cpu:               0.1 elap:               0.0
 (Enter /usr/site/hpc/x86_64/glibc-2.17/broadwell/gaussian/g16_a.03/pgi-16.5/g16/l9999.exe)
 1\1\GINC-N033\SP\RCCSD(T)-FC\CEP-31G\H4O2\ROOT\10-Dec-2023\0\\#p CCSD(
 T)/CEP-31G\\H2O_H2O_714\\0,1\O,0,0.,-0.009833,0.\H,0,-0.799571,-0.5809
 65,0.\H,0,0.799571,-0.580965,0.\O,0,-0.007801,2.338089,0.\H,0,0.025838
 ,3.320114,0.\H,0,-0.947659,2.051429,0.\\Version=ES64L-G16RevA.03\State
 =1-A'\HF=-33.6328823\MP2=-33.8634865\MP3=-33.8690173\MP4D=-33.8742808\
 MP4DQ=-33.8748386\MP4SDQ=-33.8770228\CCSD=-33.8780735\CCSD(T)=-33.8808
 399\RMSD=1.194e-09\PG=CS [SG(H4O2)]\\@


 I LOVE THOSE WHO LONG FOR THE IMPOSSIBLE.

                                 -- GOETHE
 Job cpu time:       0 days  0 hours  0 minutes  3.6 seconds.
 Elapsed time:       0 days  0 hours  0 minutes  1.1 seconds.
 File lengths (MBytes):  RWF=     72 Int=      0 D2E=      0 Chk=      8 Scr=      8
 Normal termination of Gaussian 16 at Sun Dec 10 06:38:05 2023.
