 Entering Gaussian System, Link 0=g16
 Input=H2O_H2O_3561.com
 Output=H2O_H2O_3561.log
 Initial command:
 /usr/site/hpc/x86_64/glibc-2.17/broadwell/gaussian/g16_a.03/pgi-16.5/g16/l1.exe "/gpfs/gpfs1/scratch/c7441090/OO Coord/Gau-1774445.inp" -scrdir="/gpfs/gpfs1/scratch/c7441090/OO Coord/"
 Entering Link 1 = /usr/site/hpc/x86_64/glibc-2.17/broadwell/gaussian/g16_a.03/pgi-16.5/g16/l1.exe PID=   1774446.
  
 Copyright (c) 1988,1990,1992,1993,1995,1998,2003,2009,2016,
            Gaussian, Inc.  All Rights Reserved.
  
 This is part of the Gaussian(R) 16 program.  It is based on
 the Gaussian(R) 09 system (copyright 2009, Gaussian, Inc.),
 the Gaussian(R) 03 system (copyright 2003, Gaussian, Inc.),
 the Gaussian(R) 98 system (copyright 1998, Gaussian, Inc.),
 the Gaussian(R) 94 system (copyright 1995, Gaussian, Inc.),
 the Gaussian 92(TM) system (copyright 1992, Gaussian, Inc.),
 the Gaussian 90(TM) system (copyright 1990, Gaussian, Inc.),
 the Gaussian 88(TM) system (copyright 1988, Gaussian, Inc.),
 the Gaussian 86(TM) system (copyright 1986, Carnegie Mellon
 University), and the Gaussian 82(TM) system (copyright 1983,
 Carnegie Mellon University). Gaussian is a federally registered
 trademark of Gaussian, Inc.
  
 This software contains proprietary and confidential information,
 including trade secrets, belonging to Gaussian, Inc.
  
 This software is provided under written license and may be
 used, copied, transmitted, or stored only in accord with that
 written license.
  
 The following legend is applicable only to US Government
 contracts under FAR:
  
                    RESTRICTED RIGHTS LEGEND
  
 Use, reproduction and disclosure by the US Government is
 subject to restrictions as set forth in subparagraphs (a)
 and (c) of the Commercial Computer Software - Restricted
 Rights clause in FAR 52.227-19.
  
 Gaussian, Inc.
 340 Quinnipiac St., Bldg. 40, Wallingford CT 06492
  
  
 ---------------------------------------------------------------
 Warning -- This program may not be used in any manner that
 competes with the business of Gaussian, Inc. or will provide
 assistance to any competitor of Gaussian, Inc.  The licensee
 of this program is prohibited from giving any competitor of
 Gaussian, Inc. access to this program.  By using this program,
 the user acknowledges that Gaussian, Inc. is engaged in the
 business of creating and licensing software in the field of
 computational chemistry and represents and warrants to the
 licensee that it is not a competitor of Gaussian, Inc. and that
 it will not use this program in any manner prohibited above.
 ---------------------------------------------------------------
  

 Cite this work as:
 Gaussian 16, Revision A.03,
 M. J. Frisch, G. W. Trucks, H. B. Schlegel, G. E. Scuseria, 
 M. A. Robb, J. R. Cheeseman, G. Scalmani, V. Barone, 
 G. A. Petersson, H. Nakatsuji, X. Li, M. Caricato, A. V. Marenich, 
 J. Bloino, B. G. Janesko, R. Gomperts, B. Mennucci, H. P. Hratchian, 
 J. V. Ortiz, A. F. Izmaylov, J. L. Sonnenberg, D. Williams-Young, 
 F. Ding, F. Lipparini, F. Egidi, J. Goings, B. Peng, A. Petrone, 
 T. Henderson, D. Ranasinghe, V. G. Zakrzewski, J. Gao, N. Rega, 
 G. Zheng, W. Liang, M. Hada, M. Ehara, K. Toyota, R. Fukuda, 
 J. Hasegawa, M. Ishida, T. Nakajima, Y. Honda, O. Kitao, H. Nakai, 
 T. Vreven, K. Throssell, J. A. Montgomery, Jr., J. E. Peralta, 
 F. Ogliaro, M. J. Bearpark, J. J. Heyd, E. N. Brothers, K. N. Kudin, 
 V. N. Staroverov, T. A. Keith, R. Kobayashi, J. Normand, 
 K. Raghavachari, A. P. Rendell, J. C. Burant, S. S. Iyengar, 
 J. Tomasi, M. Cossi, J. M. Millam, M. Klene, C. Adamo, R. Cammi, 
 J. W. Ochterski, R. L. Martin, K. Morokuma, O. Farkas, 
 J. B. Foresman, and D. J. Fox, Gaussian, Inc., Wallingford CT, 2016.
 
 ******************************************
 Gaussian 16:  ES64L-G16RevA.03 25-Dec-2016
                10-Dec-2023 
 ******************************************
 %NProcShared=4
 Will use up to    4 processors via shared memory.
 %Mem=4GB
 %Chk=H2O_H2O_3561.chk
 ------------------
 #p CCSD(T)/CEP-31G
 ------------------
 1/38=1,172=1/1;
 2/12=2,17=6,18=5,40=1/2;
 3/5=9,6=1,11=9,25=1,30=1/1,2,3;
 4//1;
 5/5=2,38=5/2;
 8/6=4,9=120000,10=1/1,4;
 9/5=7,14=2/13;
 6/7=2,8=2,9=2,10=2/1;
 99/5=1,9=1/99;
 Leave Link    1 at Sun Dec 10 06:43:59 2023, MaxMem=   536870912 cpu:               0.2 elap:               0.1
 (Enter /usr/site/hpc/x86_64/glibc-2.17/broadwell/gaussian/g16_a.03/pgi-16.5/g16/l101.exe)
 ------------
 H2O_H2O_3561
 ------------
 Symbolic Z-matrix:
 Charge =  0 Multiplicity = 1
 O                     0.       -0.00983   0. 
 H                    -0.79957  -0.58097   0. 
 H                     0.79957  -0.58097   0. 
 O                    -0.00648   5.37096   0. 
 H                     0.21809   6.32756   0. 
 H                    -0.98421   5.27317   0. 
 
 ITRead=  0  0  0  0  0  0
 MicOpt= -1 -1 -1 -1 -1 -1
 NAtoms=      6 NQM=        6 NQMF=       0 NMMI=      0 NMMIF=      0
                NMic=       0 NMicF=      0.
                    Isotopes and Nuclear Properties:
 (Nuclear quadrupole moments (NQMom) in fm**2, nuclear magnetic moments (NMagM)
  in nuclear magnetons)

  Atom         1           2           3           4           5           6
 IAtWgt=          16           1           1          16           1           1
 AtmWgt=  15.9949146   1.0078250   1.0078250  15.9949146   1.0078250   1.0078250
 NucSpn=           0           1           1           0           1           1
 AtZEff=  -0.0000000  -0.0000000  -0.0000000  -0.0000000  -0.0000000  -0.0000000
 NQMom=    0.0000000   0.0000000   0.0000000   0.0000000   0.0000000   0.0000000
 NMagM=    0.0000000   2.7928460   2.7928460   0.0000000   2.7928460   2.7928460
 AtZNuc=   8.0000000   1.0000000   1.0000000   8.0000000   1.0000000   1.0000000
 Leave Link  101 at Sun Dec 10 06:43:59 2023, MaxMem=   536870912 cpu:               0.3 elap:               0.1
 (Enter /usr/site/hpc/x86_64/glibc-2.17/broadwell/gaussian/g16_a.03/pgi-16.5/g16/l202.exe)
                          Input orientation:                          
 ---------------------------------------------------------------------
 Center     Atomic      Atomic             Coordinates (Angstroms)
 Number     Number       Type             X           Y           Z
 ---------------------------------------------------------------------
      1          8           0        0.000000   -0.009833    0.000000
      2          1           0       -0.799571   -0.580965    0.000000
      3          1           0        0.799571   -0.580965    0.000000
      4          8           0       -0.006483    5.370963    0.000000
      5          1           0        0.218093    6.327557    0.000000
      6          1           0       -0.984207    5.273169    0.000000
 ---------------------------------------------------------------------
                    Distance matrix (angstroms):
                    1          2          3          4          5
     1  O    0.000000
     2  H    0.982601   0.000000
     3  H    0.982601   1.599142   0.000000
     4  O    5.380800   6.004535   6.006261   0.000000
     5  H    6.341142   6.983074   6.932950   0.982602   0.000000
     6  H    5.373897   5.857045   6.119865   0.982603   1.599143
                    6
     6  H    0.000000
 Stoichiometry    H4O2
 Framework group  CS[SG(H4O2)]
 Deg. of freedom     9
 Full point group                 CS      NOp   2
 Largest Abelian subgroup         CS      NOp   2
 Largest concise Abelian subgroup C1      NOp   1
                         Standard orientation:                         
 ---------------------------------------------------------------------
 Center     Atomic      Atomic             Coordinates (Angstroms)
 Number     Number       Type             X           Y           Z
 ---------------------------------------------------------------------
      1          8           0        0.037674   -2.676272    0.000000
      2          1           0       -0.762584   -3.246440    0.000000
      3          1           0        0.836557   -3.248367    0.000000
      4          8           0        0.037674    2.704528    0.000000
      5          1           0        0.263403    3.660850    0.000000
      6          1           0       -0.940167    2.607912    0.000000
 ---------------------------------------------------------------------
 Rotational constants (GHZ):         221.9897170           1.8499590           1.8346697
 Leave Link  202 at Sun Dec 10 06:43:59 2023, MaxMem=   536870912 cpu:               0.1 elap:               0.0
 (Enter /usr/site/hpc/x86_64/glibc-2.17/broadwell/gaussian/g16_a.03/pgi-16.5/g16/l301.exe)
 Standard basis: CEP-31G (6D, 10F)
 Ernie: Thresh=  0.10000D-02 Tol=  0.10000D-05 Strict=F.
 There are    20 symmetry adapted cartesian basis functions of A'  symmetry.
 There are     4 symmetry adapted cartesian basis functions of A"  symmetry.
 There are    20 symmetry adapted basis functions of A'  symmetry.
 There are     4 symmetry adapted basis functions of A"  symmetry.
    24 basis functions,    48 primitive gaussians,    24 cartesian basis functions
     8 alpha electrons        8 beta electrons
       nuclear repulsion energy        19.6052568287 Hartrees.
 IExCor=    0 DFT=F Ex=HF Corr=None ExCW=0 ScaHFX=  1.000000
 ScaDFX=  1.000000  1.000000  1.000000  1.000000 ScalE2=  1.000000  1.000000
 IRadAn=      5 IRanWt=     -1 IRanGd=            0 ICorTp=0 IEmpDi=  4
 NAtoms=    6 NActive=    6 NUniq=    6 SFac= 1.00D+00 NAtFMM=   60 NAOKFM=F Big=F
 Integral buffers will be    131072 words long.
 Raffenetti 1 integral format.
 Two-electron integral symmetry is turned on.
 Leave Link  301 at Sun Dec 10 06:43:59 2023, MaxMem=   536870912 cpu:               0.2 elap:               0.1
 (Enter /usr/site/hpc/x86_64/glibc-2.17/broadwell/gaussian/g16_a.03/pgi-16.5/g16/l302.exe)
 NPDir=0 NMtPBC=     1 NCelOv=     1 NCel=       1 NClECP=     1 NCelD=      1
         NCelK=      1 NCelE2=     1 NClLst=     1 CellRange=     0.0.
 One-electron integrals computed using PRISM.
 One-electron integral symmetry used in STVInt
   2 Symmetry operations used in ECPInt.
 ECPInt:  NShTT=      78 NPrTT=     318 LenC2=      77 LenP2D=     245.
 LDataN:  DoStor=T MaxTD1= 2 Len=   12
 NBasis=    24 RedAO= T EigKep=  3.86D-02  NBF=    20     4
 NBsUse=    24 1.00D-06 EigRej= -1.00D+00 NBFU=    20     4
 Leave Link  302 at Sun Dec 10 06:43:59 2023, MaxMem=   536870912 cpu:               0.3 elap:               0.1
 (Enter /usr/site/hpc/x86_64/glibc-2.17/broadwell/gaussian/g16_a.03/pgi-16.5/g16/l303.exe)
 DipDrv:  MaxL=1.
 Leave Link  303 at Sun Dec 10 06:43:59 2023, MaxMem=   536870912 cpu:               0.1 elap:               0.0
 (Enter /usr/site/hpc/x86_64/glibc-2.17/broadwell/gaussian/g16_a.03/pgi-16.5/g16/l401.exe)
 ExpMin= 1.78D-01 ExpMax= 1.92D+01 ExpMxC= 1.92D+01 IAcc=3 IRadAn=         5 AccDes= 0.00D+00
 Harris functional with IExCor=  205 and IRadAn=       5 diagonalized for initial guess.
 HarFok:  IExCor=  205 AccDes= 0.00D+00 IRadAn=         5 IDoV= 1 UseB2=F ITyADJ=14
 ICtDFT=  3500011 ScaDFX=  1.000000  1.000000  1.000000  1.000000
 FoFCou: FMM=F IPFlag=           0 FMFlag=      100000 FMFlg1=           0
         NFxFlg=           0 DoJE=T BraDBF=F KetDBF=T FulRan=T
         wScrn=  0.000000 ICntrl=       500 IOpCl=  0 I1Cent=   200000004 NGrid=           0
         NMat0=    1 NMatS0=      1 NMatT0=    0 NMatD0=    1 NMtDS0=    0 NMtDT0=    0
 Petite list used in FoFCou.
 Harris En= -34.4763674296840    
 JPrj=0 DoOrth=F DoCkMO=F.
 Initial guess orbital symmetries:
       Occupied  (A') (A') (A') (A') (A') (A') (A") (A")
       Virtual   (A') (A') (A') (A') (A") (A") (A') (A') (A') (A')
                 (A') (A') (A') (A') (A') (A')
 The electronic state of the initial guess is 1-A'.
 Leave Link  401 at Sun Dec 10 06:43:59 2023, MaxMem=   536870912 cpu:               0.4 elap:               0.1
 (Enter /usr/site/hpc/x86_64/glibc-2.17/broadwell/gaussian/g16_a.03/pgi-16.5/g16/l502.exe)
 Keep R1 ints in memory in symmetry-blocked form, NReq=851881.
 FoFCou: FMM=F IPFlag=           0 FMFlag=           0 FMFlg1=           0
         NFxFlg=           0 DoJE=F BraDBF=F KetDBF=F FulRan=T
         wScrn=  0.000000 ICntrl=       600 IOpCl=  0 I1Cent=           0 NGrid=           0
         NMat0=    1 NMatS0=    300 NMatT0=    0 NMatD0=    1 NMtDS0=    0 NMtDT0=    0
 Petite list used in FoFCou.
 Closed shell SCF:
 Using DIIS extrapolation, IDIIS=  1040.
 NGot=   536870912 LenX=   536840576 LenY=   536839559
 Requested convergence on RMS density matrix=1.00D-08 within 128 cycles.
 Requested convergence on MAX density matrix=1.00D-06.
 Requested convergence on             energy=1.00D-06.
 No special actions if energy rises.

 Cycle   1  Pass 1  IDiag  1:
 E= -33.5553685766846    
 DIIS: error= 6.91D-02 at cycle   1 NSaved=   1.
 NSaved= 1 IEnMin= 1 EnMin= -33.5553685766846     IErMin= 1 ErrMin= 6.91D-02
 ErrMax= 6.91D-02  0.00D+00 EMaxC= 1.00D-01 BMatC= 1.03D-01 BMatP= 1.03D-01
 IDIUse=3 WtCom= 3.09D-01 WtEn= 6.91D-01
 Coeff-Com:  0.100D+01
 Coeff-En:   0.100D+01
 Coeff:      0.100D+01
 Gap=     0.605 Goal=   None    Shift=    0.000
 GapD=    0.605 DampG=2.000 DampE=0.500 DampFc=1.0000 IDamp=-1.
 RMSDP=1.49D-02 MaxDP=1.18D-01              OVMax= 1.00D-01

 Cycle   2  Pass 1  IDiag  1:
 E= -33.6187193573106     Delta-E=       -0.063350780626 Rises=F Damp=F
 DIIS: error= 3.75D-02 at cycle   2 NSaved=   2.
 NSaved= 2 IEnMin= 2 EnMin= -33.6187193573106     IErMin= 2 ErrMin= 3.75D-02
 ErrMax= 3.75D-02  0.00D+00 EMaxC= 1.00D-01 BMatC= 3.86D-02 BMatP= 1.03D-01
 IDIUse=3 WtCom= 6.25D-01 WtEn= 3.75D-01
 Coeff-Com:  0.377D+00 0.623D+00
 Coeff-En:   0.109D+00 0.891D+00
 Coeff:      0.277D+00 0.723D+00
 Gap=     0.705 Goal=   None    Shift=    0.000
 RMSDP=6.44D-03 MaxDP=5.45D-02 DE=-6.34D-02 OVMax= 3.59D-02

 Cycle   3  Pass 1  IDiag  1:
 E= -33.6495367112962     Delta-E=       -0.030817353986 Rises=F Damp=F
 DIIS: error= 7.26D-03 at cycle   3 NSaved=   3.
 NSaved= 3 IEnMin= 3 EnMin= -33.6495367112962     IErMin= 3 ErrMin= 7.26D-03
 ErrMax= 7.26D-03  0.00D+00 EMaxC= 1.00D-01 BMatC= 9.24D-04 BMatP= 3.86D-02
 IDIUse=3 WtCom= 9.27D-01 WtEn= 7.26D-02
 Coeff-Com: -0.114D+00-0.150D-01 0.113D+01
 Coeff-En:   0.000D+00 0.000D+00 0.100D+01
 Coeff:     -0.106D+00-0.139D-01 0.112D+01
 Gap=     0.698 Goal=   None    Shift=    0.000
 RMSDP=1.10D-03 MaxDP=9.38D-03 DE=-3.08D-02 OVMax= 8.20D-03

 Cycle   4  Pass 1  IDiag  1:
 E= -33.6504613650087     Delta-E=       -0.000924653713 Rises=F Damp=F
 DIIS: error= 7.69D-04 at cycle   4 NSaved=   4.
 NSaved= 4 IEnMin= 4 EnMin= -33.6504613650087     IErMin= 4 ErrMin= 7.69D-04
 ErrMax= 7.69D-04  0.00D+00 EMaxC= 1.00D-01 BMatC= 6.13D-06 BMatP= 9.24D-04
 IDIUse=3 WtCom= 9.92D-01 WtEn= 7.69D-03
 Coeff-Com:  0.437D-01-0.181D-01-0.521D+00 0.150D+01
 Coeff-En:   0.000D+00 0.000D+00 0.000D+00 0.100D+01
 Coeff:      0.433D-01-0.180D-01-0.517D+00 0.149D+01
 Gap=     0.699 Goal=   None    Shift=    0.000
 RMSDP=2.38D-04 MaxDP=2.05D-03 DE=-9.25D-04 OVMax= 9.71D-04

 Cycle   5  Pass 1  IDiag  1:
 E= -33.6504748372540     Delta-E=       -0.000013472245 Rises=F Damp=F
 DIIS: error= 5.20D-05 at cycle   5 NSaved=   5.
 NSaved= 5 IEnMin= 5 EnMin= -33.6504748372540     IErMin= 5 ErrMin= 5.20D-05
 ErrMax= 5.20D-05  0.00D+00 EMaxC= 1.00D-01 BMatC= 4.19D-08 BMatP= 6.13D-06
 IDIUse=1 WtCom= 1.00D+00 WtEn= 0.00D+00
 Coeff-Com: -0.713D-02 0.330D-02 0.859D-01-0.296D+00 0.121D+01
 Coeff:     -0.713D-02 0.330D-02 0.859D-01-0.296D+00 0.121D+01
 Gap=     0.700 Goal=   None    Shift=    0.000
 RMSDP=1.65D-05 MaxDP=1.58D-04 DE=-1.35D-05 OVMax= 1.09D-04

 Cycle   6  Pass 1  IDiag  1:
 E= -33.6504749415484     Delta-E=       -0.000000104294 Rises=F Damp=F
 DIIS: error= 1.12D-05 at cycle   6 NSaved=   6.
 NSaved= 6 IEnMin= 6 EnMin= -33.6504749415484     IErMin= 6 ErrMin= 1.12D-05
 ErrMax= 1.12D-05  0.00D+00 EMaxC= 1.00D-01 BMatC= 2.35D-09 BMatP= 4.19D-08
 IDIUse=1 WtCom= 1.00D+00 WtEn= 0.00D+00
 Coeff-Com:  0.115D-02-0.406D-03-0.133D-01 0.529D-01-0.391D+00 0.135D+01
 Coeff:      0.115D-02-0.406D-03-0.133D-01 0.529D-01-0.391D+00 0.135D+01
 Gap=     0.700 Goal=   None    Shift=    0.000
 RMSDP=4.03D-06 MaxDP=4.25D-05 DE=-1.04D-07 OVMax= 3.65D-05

 Cycle   7  Pass 1  IDiag  1:
 E= -33.6504749479305     Delta-E=       -0.000000006382 Rises=F Damp=F
 DIIS: error= 2.33D-06 at cycle   7 NSaved=   7.
 NSaved= 7 IEnMin= 7 EnMin= -33.6504749479305     IErMin= 7 ErrMin= 2.33D-06
 ErrMax= 2.33D-06  0.00D+00 EMaxC= 1.00D-01 BMatC= 1.57D-10 BMatP= 2.35D-09
 IDIUse=1 WtCom= 1.00D+00 WtEn= 0.00D+00
 Coeff-Com:  0.448D-03-0.220D-03-0.540D-02 0.182D-01-0.657D-01 0.565D-02
 Coeff-Com:  0.105D+01
 Coeff:      0.448D-03-0.220D-03-0.540D-02 0.182D-01-0.657D-01 0.565D-02
 Coeff:      0.105D+01
 Gap=     0.700 Goal=   None    Shift=    0.000
 RMSDP=9.56D-07 MaxDP=6.40D-06 DE=-6.38D-09 OVMax= 8.73D-06

 Cycle   8  Pass 1  IDiag  1:
 E= -33.6504749482508     Delta-E=       -0.000000000320 Rises=F Damp=F
 DIIS: error= 7.41D-07 at cycle   8 NSaved=   8.
 NSaved= 8 IEnMin= 8 EnMin= -33.6504749482508     IErMin= 8 ErrMin= 7.41D-07
 ErrMax= 7.41D-07  0.00D+00 EMaxC= 1.00D-01 BMatC= 2.63D-11 BMatP= 1.57D-10
 IDIUse=1 WtCom= 1.00D+00 WtEn= 0.00D+00
 Coeff-Com:  0.123D-06-0.266D-04-0.898D-04-0.856D-03 0.319D-01-0.178D+00
 Coeff-Com:  0.257D+00 0.890D+00
 Coeff:      0.123D-06-0.266D-04-0.898D-04-0.856D-03 0.319D-01-0.178D+00
 Coeff:      0.257D+00 0.890D+00
 Gap=     0.700 Goal=   None    Shift=    0.000
 RMSDP=3.82D-07 MaxDP=2.89D-06 DE=-3.20D-10 OVMax= 3.10D-06

 Cycle   9  Pass 1  IDiag  1:
 E= -33.6504749482934     Delta-E=       -0.000000000043 Rises=F Damp=F
 DIIS: error= 1.92D-07 at cycle   9 NSaved=   9.
 NSaved= 9 IEnMin= 9 EnMin= -33.6504749482934     IErMin= 9 ErrMin= 1.92D-07
 ErrMax= 1.92D-07  0.00D+00 EMaxC= 1.00D-01 BMatC= 7.68D-13 BMatP= 2.63D-11
 IDIUse=1 WtCom= 1.00D+00 WtEn= 0.00D+00
 Coeff-Com:  0.329D-05 0.815D-05 0.273D-05 0.410D-03-0.126D-01 0.729D-01
 Coeff-Com: -0.144D+00-0.345D+00 0.143D+01
 Coeff:      0.329D-05 0.815D-05 0.273D-05 0.410D-03-0.126D-01 0.729D-01
 Coeff:     -0.144D+00-0.345D+00 0.143D+01
 Gap=     0.700 Goal=   None    Shift=    0.000
 RMSDP=1.33D-07 MaxDP=6.19D-07 DE=-4.26D-11 OVMax= 8.99D-07

 Cycle  10  Pass 1  IDiag  1:
 E= -33.6504749482955     Delta-E=       -0.000000000002 Rises=F Damp=F
 DIIS: error= 8.72D-09 at cycle  10 NSaved=  10.
 NSaved=10 IEnMin=10 EnMin= -33.6504749482955     IErMin=10 ErrMin= 8.72D-09
 ErrMax= 8.72D-09  0.00D+00 EMaxC= 1.00D-01 BMatC= 2.76D-15 BMatP= 7.68D-13
 IDIUse=1 WtCom= 1.00D+00 WtEn= 0.00D+00
 Coeff-Com:  0.110D-06-0.209D-05-0.110D-04-0.576D-04 0.273D-02-0.165D-01
 Coeff-Com:  0.333D-01 0.765D-01-0.367D+00 0.127D+01
 Coeff:      0.110D-06-0.209D-05-0.110D-04-0.576D-04 0.273D-02-0.165D-01
 Coeff:      0.333D-01 0.765D-01-0.367D+00 0.127D+01
 Gap=     0.700 Goal=   None    Shift=    0.000
 RMSDP=1.17D-08 MaxDP=5.46D-08 DE=-2.07D-12 OVMax= 6.70D-08

 Cycle  11  Pass 1  IDiag  1:
 E= -33.6504749482956     Delta-E=       -0.000000000000 Rises=F Damp=F
 DIIS: error= 3.59D-10 at cycle  11 NSaved=  11.
 NSaved=11 IEnMin=11 EnMin= -33.6504749482956     IErMin=11 ErrMin= 3.59D-10
 ErrMax= 3.59D-10  0.00D+00 EMaxC= 1.00D-01 BMatC= 3.76D-18 BMatP= 2.76D-15
 IDIUse=1 WtCom= 1.00D+00 WtEn= 0.00D+00
 Coeff-Com: -0.801D-07 0.359D-06 0.251D-05 0.739D-05-0.452D-03 0.276D-02
 Coeff-Com: -0.564D-02-0.128D-01 0.630D-01-0.237D+00 0.119D+01
 Coeff:     -0.801D-07 0.359D-06 0.251D-05 0.739D-05-0.452D-03 0.276D-02
 Coeff:     -0.564D-02-0.128D-01 0.630D-01-0.237D+00 0.119D+01
 Gap=     0.700 Goal=   None    Shift=    0.000
 RMSDP=2.19D-10 MaxDP=1.13D-09 DE=-8.53D-14 OVMax= 8.57D-10

 SCF Done:  E(RHF) =  -33.6504749483     A.U. after   11 cycles
            NFock= 11  Conv=0.22D-09     -V/T= 2.2570
 KE= 2.677061760227D+01 PE=-1.209074343352D+02 EE= 4.088108495587D+01
 Leave Link  502 at Sun Dec 10 06:43:59 2023, MaxMem=   536870912 cpu:               0.3 elap:               0.1
 (Enter /usr/site/hpc/x86_64/glibc-2.17/broadwell/gaussian/g16_a.03/pgi-16.5/g16/l801.exe)
 Windowed orbitals will be sorted by symmetry type.
 Range of M.O.s used for correlation:     1    24
 NBasis=    24 NAE=     8 NBE=     8 NFC=     0 NFV=     0
 NROrb=     24 NOA=     8 NOB=     8 NVA=    16 NVB=    16
 Leave Link  801 at Sun Dec 10 06:43:59 2023, MaxMem=   536870912 cpu:               0.1 elap:               0.0
 (Enter /usr/site/hpc/x86_64/glibc-2.17/broadwell/gaussian/g16_a.03/pgi-16.5/g16/l804.exe)
 Closed-shell transformation, MDV=   536870912 ITran=4 ISComp=2.
 Unit  1 TFree=       1025975 TCopy=        210600.
 Semi-Direct transformation.
 ModeAB=           4 MOrb=             8 LenV=     536742539
 LASXX=        22470 LTotXX=       22470 LenRXX=       48678
 LTotAB=       26208 MaxLAS=       55296 LenRXY=           0
 NonZer=       71148 LenScr=      524288 LnRSAI=       55296
 LnScr1=      524288 LExtra=           0 Total=      1152550
 MaxDsk=          -1 SrtSym=           T ITran=            4
 DoSDTr:  NPSUse=  4
 JobTyp=0 Pass  1:  I=   1 to   8.
 (rs|ai) integrals will be sorted in core.
 Complete sort for first half transformation.
 First half transformation complete.
 Complete sort for second half transformation.
 Second half transformation complete.
 Spin components of T(2) and E(2):
     alpha-alpha T2 =       0.9072066504D-02 E2=     -0.2589245182D-01
     alpha-beta  T2 =       0.6000345962D-01 E2=     -0.1766792281D+00
     beta-beta   T2 =       0.9072066504D-02 E2=     -0.2589245182D-01
 ANorm=    0.1038338862D+01
 E2 =    -0.2284641317D+00 EUMP2 =    -0.33878939079990D+02
 Leave Link  804 at Sun Dec 10 06:43:59 2023, MaxMem=   536870912 cpu:               0.2 elap:               0.1
 (Enter /usr/site/hpc/x86_64/glibc-2.17/broadwell/gaussian/g16_a.03/pgi-16.5/g16/l913.exe)
 CIDS:  MDV=   536870912.
 IFCWin=0 IBDFC=1 NFBD=     0     0 NFCmp=     0     0 NFFFC=     0     0
 Using DD3R+UMP44R for 1st iteration.
 Using DD4RQ for 2nd and later iterations.
 Keep R2 and R3 ints in memory in symmetry-blocked form, NReq=864489.
 FoFCou: FMM=F IPFlag=           0 FMFlag=           0 FMFlg1=           0
         NFxFlg=           0 DoJE=F BraDBF=F KetDBF=F FulRan=T
         wScrn=  0.000000 ICntrl=       600 IOpCl=  0 I1Cent=           0 NGrid=           0
         NMat0=    1 NMatS0=    300 NMatT0=    0 NMatD0=    1 NMtDS0=    0 NMtDT0=    0
 Petite list used in FoFCou.
 CIDS: In Core Option IDoMem=           1.
 CCSD(T)
 =======
 Iterations=  50 Convergence= 0.100D-06
 Produce multiple copies of IABC intergrals
 Iteration Nr.   1
 **********************
 DD1Dir will call FoFMem   1 times, MxPair=        72
 NAB=    36 NAA=     0 NBB=     0.
 MP4(R+Q)= -0.73399891D-03
 Maximum subspace dimension=  5
 A-vector RMS=  5.7682962D-03 Max=  1.3218978D-02 conv= 1.00D-05.
 RLE energy=       -0.2345475099
 E3=       -0.54665047D-02        EUMP3=      -0.33884405585D+02
 E4(DQ)=   -0.59171366D-02        UMP4(DQ)=   -0.33890322721D+02
 E4(SDQ)=  -0.79485558D-02        UMP4(SDQ)=  -0.33892354140D+02
 VARIATIONAL ENERGIES WITH THE FIRST-ORDER WAVEFUNCTION:
 DE(Corr)= -0.23439007     E(Corr)=     -33.884865015    
 NORM(A)=   0.10417911D+01
 Iteration Nr.   2
 **********************
 DD1Dir will call FoFMem   1 times, MxPair=        72
 NAB=    36 NAA=     0 NBB=     0.
 A-vector RMS=  9.8507928D-04 Max=  2.7395452D-03 conv= 1.00D-05.
 RLE energy=       -0.2423396603
 DE(Corr)= -0.24039143     E(CORR)=     -33.890866379     Delta=-6.00D-03
 NORM(A)=   0.10456009D+01
 Iteration Nr.   3
 **********************
 DD1Dir will call FoFMem   1 times, MxPair=        72
 NAB=    36 NAA=     0 NBB=     0.
 A-vector RMS=  3.8769817D-04 Max=  1.1729763D-03 conv= 1.00D-05.
 RLE energy=       -0.2428913659
 DE(Corr)= -0.24244195     E(CORR)=     -33.892916903     Delta=-2.05D-03
 NORM(A)=   0.10461665D+01
 Iteration Nr.   4
 **********************
 DD1Dir will call FoFMem   1 times, MxPair=        72
 NAB=    36 NAA=     0 NBB=     0.
 A-vector RMS=  9.3716762D-05 Max=  2.5262691D-04 conv= 1.00D-05.
 RLE energy=       -0.2429386781
 DE(Corr)= -0.24290242     E(CORR)=     -33.893377364     Delta=-4.60D-04
 NORM(A)=   0.10462423D+01
 Iteration Nr.   5
 **********************
 DD1Dir will call FoFMem   1 times, MxPair=        72
 NAB=    36 NAA=     0 NBB=     0.
 A-vector RMS=  4.2316568D-05 Max=  1.5465390D-04 conv= 1.00D-05.
 RLE energy=       -0.2429368751
 DE(Corr)= -0.24293481     E(CORR)=     -33.893409761     Delta=-3.24D-05
 NORM(A)=   0.10462533D+01
 Iteration Nr.   6
 **********************
 DD1Dir will call FoFMem   1 times, MxPair=        72
 NAB=    36 NAA=     0 NBB=     0.
 A-vector RMS=  1.1508226D-05 Max=  4.0994900D-05 conv= 1.00D-05.
 RLE energy=       -0.2429359958
 DE(Corr)= -0.24293702     E(CORR)=     -33.893411967     Delta=-2.21D-06
 NORM(A)=   0.10462569D+01
 Iteration Nr.   7
 **********************
 DD1Dir will call FoFMem   1 times, MxPair=        72
 NAB=    36 NAA=     0 NBB=     0.
 A-vector RMS=  3.3644393D-06 Max=  1.2061286D-05 conv= 1.00D-05.
 RLE energy=       -0.2429369233
 DE(Corr)= -0.24293638     E(CORR)=     -33.893411327     Delta= 6.40D-07
 NORM(A)=   0.10462584D+01
 Iteration Nr.   8
 **********************
 DD1Dir will call FoFMem   1 times, MxPair=        72
 NAB=    36 NAA=     0 NBB=     0.
 A-vector RMS=  5.6283971D-07 Max=  1.7926451D-06 conv= 1.00D-05.
 RLE energy=       -0.2429364280
 DE(Corr)= -0.24293643     E(CORR)=     -33.893411381     Delta=-5.46D-08
 NORM(A)=   0.10462585D+01
 CI/CC converged in    8 iterations to DelEn=-5.46D-08 Conv= 1.00D-07 ErrA1= 5.63D-07 Conv= 1.00D-05
 Wavefunction amplitudes converged. E(Corr)=     -33.893411381    
 Largest amplitude= 5.85D-02
 IPart=  2 IA=    2   12.50% done.
 IPart=  4 IA=    3   24.17% done.
 IPart=  3 IA=    4   35.00% done.
 IPart=  3 IA=    5   45.00% done.
 IPart=  4 IA=    6   54.17% done.
 IPart=  2 IA=    7   62.50% done.
 IPart=  1 IA=    8   70.00% done.
 IPart=  2 IA=   10   82.50% done.
 IPart=  1 IA=   12   91.67% done.
 Time for triples=        0.25 seconds.
 T4(CCSD)= -0.30932910D-02
 T5(CCSD)=  0.52733757D-03
 CCSD(T)= -0.33895977335D+02
 Discarding MO integrals.
 Leave Link  913 at Sun Dec 10 06:43:59 2023, MaxMem=   536870912 cpu:               0.8 elap:               0.2
 (Enter /usr/site/hpc/x86_64/glibc-2.17/broadwell/gaussian/g16_a.03/pgi-16.5/g16/l601.exe)
 Copying SCF densities to generalized density rwf, IOpCl= 0 IROHF=0.

 **********************************************************************

            Population analysis using the SCF density.

 **********************************************************************

 Orbital symmetries:
       Occupied  (A') (A') (A') (A') (A') (A') (A") (A")
       Virtual   (A') (A') (A') (A') (A") (A") (A') (A') (A') (A')
                 (A') (A') (A') (A') (A') (A')
 The electronic state is 1-A'.
 Alpha  occ. eigenvalues --   -1.35031  -1.34735  -0.70659  -0.70353  -0.54691
 Alpha  occ. eigenvalues --   -0.54395  -0.49582  -0.49287
 Alpha virt. eigenvalues --    0.20666   0.20971   0.30901   0.31189   0.80971
 Alpha virt. eigenvalues --    0.81261   0.84036   0.84496   0.87181   0.87552
 Alpha virt. eigenvalues --    1.17816   1.18108   1.22285   1.22579   2.57864
 Alpha virt. eigenvalues --    2.58154
          Condensed to atoms (all electrons):
               1          2          3          4          5          6
     1  O    6.211526   0.261726   0.263262   0.000000   0.000000   0.000000
     2  H    0.261726   0.395209  -0.023667   0.000000  -0.000000  -0.000000
     3  H    0.263262  -0.023667   0.390622   0.000000  -0.000000  -0.000000
     4  O    0.000000   0.000000   0.000000   6.211280   0.261113   0.263584
     5  H    0.000000  -0.000000  -0.000000   0.261113   0.396951  -0.023738
     6  H    0.000000  -0.000000  -0.000000   0.263584  -0.023738   0.389849
 Mulliken charges:
               1
     1  O   -0.736514
     2  H    0.366731
     3  H    0.369783
     4  O   -0.735978
     5  H    0.365673
     6  H    0.370304
 Sum of Mulliken charges =  -0.00000
 Mulliken charges with hydrogens summed into heavy atoms:
               1
     1  O    0.000000
     4  O   -0.000000
 Electronic spatial extent (au):  <R**2>=            473.2658
 Charge=             -0.0000 electrons
 Dipole moment (field-independent basis, Debye):
    X=             -1.7352    Y=             -0.6649    Z=              0.0000  Tot=              1.8582
 Quadrupole moment (field-independent basis, Debye-Ang):
   XX=             -8.9630   YY=             13.7645   ZZ=            -14.9869
   XY=             -3.8643   XZ=              0.0000   YZ=              0.0000
 Traceless Quadrupole moment (field-independent basis, Debye-Ang):
   XX=             -5.5679   YY=             17.1597   ZZ=            -11.5918
   XY=             -3.8643   XZ=              0.0000   YZ=              0.0000
 Octapole moment (field-independent basis, Debye-Ang**2):
  XXX=             -1.9411  YYY=             -6.3215  ZZZ=              0.0000  XYY=             -6.5952
  XXY=             -3.8560  XXZ=              0.0000  XZZ=             -0.3250  YZZ=             -0.1264
  YYZ=              0.0000  XYZ=              0.0000
 Hexadecapole moment (field-independent basis, Debye-Ang**3):
 XXXX=            -11.8054 YYYY=           -127.1785 ZZZZ=            -12.2180 XXXY=             -2.9434
 XXXZ=              0.0000 YYYX=            -10.0477 YYYZ=              0.0000 ZZZX=              0.0000
 ZZZY=              0.0000 XXYY=            -65.4367 XXZZ=             -4.5830 YYZZ=           -116.4132
 XXYZ=              0.0000 YYXZ=              0.0000 ZZXY=              0.5781
 N-N= 1.960525682874D+01 E-N=-1.209074343407D+02  KE= 2.677061760227D+01
 Symmetry A'   KE= 1.788541912540D+01
 Symmetry A"   KE= 8.885198476866D+00
 Leave Link  601 at Sun Dec 10 06:44:00 2023, MaxMem=   536870912 cpu:               0.1 elap:               0.0
 (Enter /usr/site/hpc/x86_64/glibc-2.17/broadwell/gaussian/g16_a.03/pgi-16.5/g16/l9999.exe)
 1\1\GINC-N045\SP\RCCSD(T)-FC\CEP-31G\H4O2\ROOT\10-Dec-2023\0\\#p CCSD(
 T)/CEP-31G\\H2O_H2O_3561\\0,1\O,0,0.,-0.009833,0.\H,0,-0.799571,-0.580
 965,0.\H,0,0.799571,-0.580965,0.\O,0,-0.006483,5.370963,0.\H,0,0.21809
 3,6.327557,0.\H,0,-0.984207,5.273169,0.\\Version=ES64L-G16RevA.03\Stat
 e=1-A'\HF=-33.6504749\MP2=-33.8789391\MP3=-33.8844056\MP4D=-33.8895887
 \MP4DQ=-33.8903227\MP4SDQ=-33.8923541\CCSD=-33.8934114\CCSD(T)=-33.895
 9773\RMSD=2.188e-10\PG=CS [SG(H4O2)]\\@


 HE THAT IS UNAWARE OF HIS IGNORANCE WILL BE MISLED BY HIS KNOWLEDGE.

                                        -- WHATLEY
 Job cpu time:       0 days  0 hours  0 minutes  3.2 seconds.
 Elapsed time:       0 days  0 hours  0 minutes  1.0 seconds.
 File lengths (MBytes):  RWF=     72 Int=      0 D2E=      0 Chk=      8 Scr=      8
 Normal termination of Gaussian 16 at Sun Dec 10 06:44:00 2023.
