 Entering Gaussian System, Link 0=g16
 Input=H2O_H2O_4694.com
 Output=H2O_H2O_4694.log
 Initial command:
 /usr/site/hpc/x86_64/glibc-2.17/broadwell/gaussian/g16_a.03/pgi-16.5/g16/l1.exe "/gpfs/gpfs1/scratch/c7441090/OO Coord/Gau-1828417.inp" -scrdir="/gpfs/gpfs1/scratch/c7441090/OO Coord/"
 Entering Link 1 = /usr/site/hpc/x86_64/glibc-2.17/broadwell/gaussian/g16_a.03/pgi-16.5/g16/l1.exe PID=   1828418.
  
 Copyright (c) 1988,1990,1992,1993,1995,1998,2003,2009,2016,
            Gaussian, Inc.  All Rights Reserved.
  
 This is part of the Gaussian(R) 16 program.  It is based on
 the Gaussian(R) 09 system (copyright 2009, Gaussian, Inc.),
 the Gaussian(R) 03 system (copyright 2003, Gaussian, Inc.),
 the Gaussian(R) 98 system (copyright 1998, Gaussian, Inc.),
 the Gaussian(R) 94 system (copyright 1995, Gaussian, Inc.),
 the Gaussian 92(TM) system (copyright 1992, Gaussian, Inc.),
 the Gaussian 90(TM) system (copyright 1990, Gaussian, Inc.),
 the Gaussian 88(TM) system (copyright 1988, Gaussian, Inc.),
 the Gaussian 86(TM) system (copyright 1986, Carnegie Mellon
 University), and the Gaussian 82(TM) system (copyright 1983,
 Carnegie Mellon University). Gaussian is a federally registered
 trademark of Gaussian, Inc.
  
 This software contains proprietary and confidential information,
 including trade secrets, belonging to Gaussian, Inc.
  
 This software is provided under written license and may be
 used, copied, transmitted, or stored only in accord with that
 written license.
  
 The following legend is applicable only to US Government
 contracts under FAR:
  
                    RESTRICTED RIGHTS LEGEND
  
 Use, reproduction and disclosure by the US Government is
 subject to restrictions as set forth in subparagraphs (a)
 and (c) of the Commercial Computer Software - Restricted
 Rights clause in FAR 52.227-19.
  
 Gaussian, Inc.
 340 Quinnipiac St., Bldg. 40, Wallingford CT 06492
  
  
 ---------------------------------------------------------------
 Warning -- This program may not be used in any manner that
 competes with the business of Gaussian, Inc. or will provide
 assistance to any competitor of Gaussian, Inc.  The licensee
 of this program is prohibited from giving any competitor of
 Gaussian, Inc. access to this program.  By using this program,
 the user acknowledges that Gaussian, Inc. is engaged in the
 business of creating and licensing software in the field of
 computational chemistry and represents and warrants to the
 licensee that it is not a competitor of Gaussian, Inc. and that
 it will not use this program in any manner prohibited above.
 ---------------------------------------------------------------
  

 Cite this work as:
 Gaussian 16, Revision A.03,
 M. J. Frisch, G. W. Trucks, H. B. Schlegel, G. E. Scuseria, 
 M. A. Robb, J. R. Cheeseman, G. Scalmani, V. Barone, 
 G. A. Petersson, H. Nakatsuji, X. Li, M. Caricato, A. V. Marenich, 
 J. Bloino, B. G. Janesko, R. Gomperts, B. Mennucci, H. P. Hratchian, 
 J. V. Ortiz, A. F. Izmaylov, J. L. Sonnenberg, D. Williams-Young, 
 F. Ding, F. Lipparini, F. Egidi, J. Goings, B. Peng, A. Petrone, 
 T. Henderson, D. Ranasinghe, V. G. Zakrzewski, J. Gao, N. Rega, 
 G. Zheng, W. Liang, M. Hada, M. Ehara, K. Toyota, R. Fukuda, 
 J. Hasegawa, M. Ishida, T. Nakajima, Y. Honda, O. Kitao, H. Nakai, 
 T. Vreven, K. Throssell, J. A. Montgomery, Jr., J. E. Peralta, 
 F. Ogliaro, M. J. Bearpark, J. J. Heyd, E. N. Brothers, K. N. Kudin, 
 V. N. Staroverov, T. A. Keith, R. Kobayashi, J. Normand, 
 K. Raghavachari, A. P. Rendell, J. C. Burant, S. S. Iyengar, 
 J. Tomasi, M. Cossi, J. M. Millam, M. Klene, C. Adamo, R. Cammi, 
 J. W. Ochterski, R. L. Martin, K. Morokuma, O. Farkas, 
 J. B. Foresman, and D. J. Fox, Gaussian, Inc., Wallingford CT, 2016.
 
 ******************************************
 Gaussian 16:  ES64L-G16RevA.03 25-Dec-2016
                10-Dec-2023 
 ******************************************
 %NProcShared=4
 Will use up to    4 processors via shared memory.
 %Mem=4GB
 %Chk=H2O_H2O_4694.chk
 ------------------
 #p CCSD(T)/CEP-31G
 ------------------
 1/38=1,172=1/1;
 2/12=2,17=6,18=5,40=1/2;
 3/5=9,6=1,11=9,25=1,30=1/1,2,3;
 4//1;
 5/5=2,38=5/2;
 8/6=4,9=120000,10=1/1,4;
 9/5=7,14=2/13;
 6/7=2,8=2,9=2,10=2/1;
 99/5=1,9=1/99;
 Leave Link    1 at Sun Dec 10 07:06:09 2023, MaxMem=   536870912 cpu:               0.2 elap:               0.1
 (Enter /usr/site/hpc/x86_64/glibc-2.17/broadwell/gaussian/g16_a.03/pgi-16.5/g16/l101.exe)
 ------------
 H2O_H2O_4694
 ------------
 Symbolic Z-matrix:
 Charge =  0 Multiplicity = 1
 O                     0.       -0.00983   0. 
 H                    -0.79957  -0.58097   0. 
 H                     0.79957  -0.58097   0. 
 O                    -0.00931   6.56336   0. 
 H                    -0.29312   7.50408   0. 
 H                    -0.80715   5.98981   0. 
 
 ITRead=  0  0  0  0  0  0
 MicOpt= -1 -1 -1 -1 -1 -1
 NAtoms=      6 NQM=        6 NQMF=       0 NMMI=      0 NMMIF=      0
                NMic=       0 NMicF=      0.
                    Isotopes and Nuclear Properties:
 (Nuclear quadrupole moments (NQMom) in fm**2, nuclear magnetic moments (NMagM)
  in nuclear magnetons)

  Atom         1           2           3           4           5           6
 IAtWgt=          16           1           1          16           1           1
 AtmWgt=  15.9949146   1.0078250   1.0078250  15.9949146   1.0078250   1.0078250
 NucSpn=           0           1           1           0           1           1
 AtZEff=  -0.0000000  -0.0000000  -0.0000000  -0.0000000  -0.0000000  -0.0000000
 NQMom=    0.0000000   0.0000000   0.0000000   0.0000000   0.0000000   0.0000000
 NMagM=    0.0000000   2.7928460   2.7928460   0.0000000   2.7928460   2.7928460
 AtZNuc=   8.0000000   1.0000000   1.0000000   8.0000000   1.0000000   1.0000000
 Leave Link  101 at Sun Dec 10 07:06:09 2023, MaxMem=   536870912 cpu:               0.3 elap:               0.1
 (Enter /usr/site/hpc/x86_64/glibc-2.17/broadwell/gaussian/g16_a.03/pgi-16.5/g16/l202.exe)
                          Input orientation:                          
 ---------------------------------------------------------------------
 Center     Atomic      Atomic             Coordinates (Angstroms)
 Number     Number       Type             X           Y           Z
 ---------------------------------------------------------------------
      1          8           0        0.000000   -0.009833    0.000000
      2          1           0       -0.799571   -0.580965    0.000000
      3          1           0        0.799571   -0.580965    0.000000
      4          8           0       -0.009311    6.563363    0.000000
      5          1           0       -0.293120    7.504085    0.000000
      6          1           0       -0.807147    5.989809    0.000000
 ---------------------------------------------------------------------
                    Distance matrix (angstroms):
                    1          2          3          4          5
     1  O    0.000000
     2  H    0.982601   0.000000
     3  H    0.982601   1.599142   0.000000
     4  O    6.573203   7.187902   7.189973   0.000000
     5  H    7.519633   8.100897   8.158554   0.982601   0.000000
     6  H    6.053692   6.570778   6.764364   0.982602   1.599142
                    6
     6  H    0.000000
 Stoichiometry    H4O2
 Framework group  CS[SG(H4O2)]
 Deg. of freedom     9
 Full point group                 CS      NOp   2
 Largest Abelian subgroup         CS      NOp   2
 Largest concise Abelian subgroup C1      NOp   1
                         Standard orientation:                         
 ---------------------------------------------------------------------
 Center     Atomic      Atomic             Coordinates (Angstroms)
 Number     Number       Type             X           Y           Z
 ---------------------------------------------------------------------
      1          8           0        0.054137   -3.247923    0.000000
      2          1           0       -0.746242   -3.817922    0.000000
      3          1           0        0.852898   -3.820187    0.000000
      4          8           0        0.054137    3.325279    0.000000
      5          1           0       -0.228339    4.266403    0.000000
      6          1           0       -0.744511    2.752856    0.000000
 ---------------------------------------------------------------------
 Rotational constants (GHZ):         259.2054087           1.2603177           1.2542194
 Leave Link  202 at Sun Dec 10 07:06:09 2023, MaxMem=   536870912 cpu:               0.0 elap:               0.0
 (Enter /usr/site/hpc/x86_64/glibc-2.17/broadwell/gaussian/g16_a.03/pgi-16.5/g16/l301.exe)
 Standard basis: CEP-31G (6D, 10F)
 Ernie: Thresh=  0.10000D-02 Tol=  0.10000D-05 Strict=F.
 There are    20 symmetry adapted cartesian basis functions of A'  symmetry.
 There are     4 symmetry adapted cartesian basis functions of A"  symmetry.
 There are    20 symmetry adapted basis functions of A'  symmetry.
 There are     4 symmetry adapted basis functions of A"  symmetry.
    24 basis functions,    48 primitive gaussians,    24 cartesian basis functions
     8 alpha electrons        8 beta electrons
       nuclear repulsion energy        18.6041349378 Hartrees.
 IExCor=    0 DFT=F Ex=HF Corr=None ExCW=0 ScaHFX=  1.000000
 ScaDFX=  1.000000  1.000000  1.000000  1.000000 ScalE2=  1.000000  1.000000
 IRadAn=      5 IRanWt=     -1 IRanGd=            0 ICorTp=0 IEmpDi=  4
 NAtoms=    6 NActive=    6 NUniq=    6 SFac= 1.00D+00 NAtFMM=   60 NAOKFM=F Big=F
 Integral buffers will be    131072 words long.
 Raffenetti 1 integral format.
 Two-electron integral symmetry is turned on.
 Leave Link  301 at Sun Dec 10 07:06:09 2023, MaxMem=   536870912 cpu:               0.2 elap:               0.1
 (Enter /usr/site/hpc/x86_64/glibc-2.17/broadwell/gaussian/g16_a.03/pgi-16.5/g16/l302.exe)
 NPDir=0 NMtPBC=     1 NCelOv=     1 NCel=       1 NClECP=     1 NCelD=      1
         NCelK=      1 NCelE2=     1 NClLst=     1 CellRange=     0.0.
 One-electron integrals computed using PRISM.
 One-electron integral symmetry used in STVInt
   2 Symmetry operations used in ECPInt.
 ECPInt:  NShTT=      78 NPrTT=     318 LenC2=      74 LenP2D=     239.
 LDataN:  DoStor=T MaxTD1= 2 Len=   12
 NBasis=    24 RedAO= T EigKep=  3.86D-02  NBF=    20     4
 NBsUse=    24 1.00D-06 EigRej= -1.00D+00 NBFU=    20     4
 Leave Link  302 at Sun Dec 10 07:06:09 2023, MaxMem=   536870912 cpu:               0.3 elap:               0.1
 (Enter /usr/site/hpc/x86_64/glibc-2.17/broadwell/gaussian/g16_a.03/pgi-16.5/g16/l303.exe)
 DipDrv:  MaxL=1.
 Leave Link  303 at Sun Dec 10 07:06:09 2023, MaxMem=   536870912 cpu:               0.1 elap:               0.0
 (Enter /usr/site/hpc/x86_64/glibc-2.17/broadwell/gaussian/g16_a.03/pgi-16.5/g16/l401.exe)
 ExpMin= 1.78D-01 ExpMax= 1.92D+01 ExpMxC= 1.92D+01 IAcc=3 IRadAn=         5 AccDes= 0.00D+00
 Harris functional with IExCor=  205 and IRadAn=       5 diagonalized for initial guess.
 HarFok:  IExCor=  205 AccDes= 0.00D+00 IRadAn=         5 IDoV= 1 UseB2=F ITyADJ=14
 ICtDFT=  3500011 ScaDFX=  1.000000  1.000000  1.000000  1.000000
 FoFCou: FMM=F IPFlag=           0 FMFlag=      100000 FMFlg1=           0
         NFxFlg=           0 DoJE=T BraDBF=F KetDBF=T FulRan=T
         wScrn=  0.000000 ICntrl=       500 IOpCl=  0 I1Cent=   200000004 NGrid=           0
         NMat0=    1 NMatS0=      1 NMatT0=    0 NMatD0=    1 NMtDS0=    0 NMtDT0=    0
 Petite list used in FoFCou.
 Harris En= -34.4763713374491    
 JPrj=0 DoOrth=F DoCkMO=F.
 Initial guess orbital symmetries:
       Occupied  (A') (A') (A') (A') (A') (A') (A") (A")
       Virtual   (A') (A') (A') (A') (A") (A") (A') (A') (A') (A')
                 (A') (A') (A') (A') (A') (A')
 The electronic state of the initial guess is 1-A'.
 Leave Link  401 at Sun Dec 10 07:06:09 2023, MaxMem=   536870912 cpu:               0.4 elap:               0.1
 (Enter /usr/site/hpc/x86_64/glibc-2.17/broadwell/gaussian/g16_a.03/pgi-16.5/g16/l502.exe)
 Keep R1 ints in memory in symmetry-blocked form, NReq=851651.
 FoFCou: FMM=F IPFlag=           0 FMFlag=           0 FMFlg1=           0
         NFxFlg=           0 DoJE=F BraDBF=F KetDBF=F FulRan=T
         wScrn=  0.000000 ICntrl=       600 IOpCl=  0 I1Cent=           0 NGrid=           0
         NMat0=    1 NMatS0=    300 NMatT0=    0 NMatD0=    1 NMtDS0=    0 NMtDT0=    0
 Petite list used in FoFCou.
 Closed shell SCF:
 Using DIIS extrapolation, IDIIS=  1040.
 NGot=   536870912 LenX=   536840576 LenY=   536839559
 Requested convergence on RMS density matrix=1.00D-08 within 128 cycles.
 Requested convergence on MAX density matrix=1.00D-06.
 Requested convergence on             energy=1.00D-06.
 No special actions if energy rises.

 Cycle   1  Pass 1  IDiag  1:
 E= -33.5572338940625    
 DIIS: error= 6.66D-02 at cycle   1 NSaved=   1.
 NSaved= 1 IEnMin= 1 EnMin= -33.5572338940625     IErMin= 1 ErrMin= 6.66D-02
 ErrMax= 6.66D-02  0.00D+00 EMaxC= 1.00D-01 BMatC= 1.02D-01 BMatP= 1.02D-01
 IDIUse=3 WtCom= 3.34D-01 WtEn= 6.66D-01
 Coeff-Com:  0.100D+01
 Coeff-En:   0.100D+01
 Coeff:      0.100D+01
 Gap=     0.605 Goal=   None    Shift=    0.000
 GapD=    0.605 DampG=2.000 DampE=0.500 DampFc=1.0000 IDamp=-1.
 RMSDP=1.48D-02 MaxDP=1.17D-01              OVMax= 9.93D-02

 Cycle   2  Pass 1  IDiag  1:
 E= -33.6201478112649     Delta-E=       -0.062913917202 Rises=F Damp=F
 DIIS: error= 3.74D-02 at cycle   2 NSaved=   2.
 NSaved= 2 IEnMin= 2 EnMin= -33.6201478112649     IErMin= 2 ErrMin= 3.74D-02
 ErrMax= 3.74D-02  0.00D+00 EMaxC= 1.00D-01 BMatC= 3.83D-02 BMatP= 1.02D-01
 IDIUse=3 WtCom= 6.26D-01 WtEn= 3.74D-01
 Coeff-Com:  0.377D+00 0.623D+00
 Coeff-En:   0.109D+00 0.891D+00
 Coeff:      0.277D+00 0.723D+00
 Gap=     0.704 Goal=   None    Shift=    0.000
 RMSDP=6.41D-03 MaxDP=5.43D-02 DE=-6.29D-02 OVMax= 3.58D-02

 Cycle   3  Pass 1  IDiag  1:
 E= -33.6507546355915     Delta-E=       -0.030606824327 Rises=F Damp=F
 DIIS: error= 6.96D-03 at cycle   3 NSaved=   3.
 NSaved= 3 IEnMin= 3 EnMin= -33.6507546355915     IErMin= 3 ErrMin= 6.96D-03
 ErrMax= 6.96D-03  0.00D+00 EMaxC= 1.00D-01 BMatC= 9.05D-04 BMatP= 3.83D-02
 IDIUse=3 WtCom= 9.30D-01 WtEn= 6.96D-02
 Coeff-Com: -0.114D+00-0.160D-01 0.113D+01
 Coeff-En:   0.000D+00 0.000D+00 0.100D+01
 Coeff:     -0.106D+00-0.149D-01 0.112D+01
 Gap=     0.696 Goal=   None    Shift=    0.000
 RMSDP=1.08D-03 MaxDP=9.28D-03 DE=-3.06D-02 OVMax= 8.09D-03

 Cycle   4  Pass 1  IDiag  1:
 E= -33.6516582158166     Delta-E=       -0.000903580225 Rises=F Damp=F
 DIIS: error= 7.49D-04 at cycle   4 NSaved=   4.
 NSaved= 4 IEnMin= 4 EnMin= -33.6516582158166     IErMin= 4 ErrMin= 7.49D-04
 ErrMax= 7.49D-04  0.00D+00 EMaxC= 1.00D-01 BMatC= 5.82D-06 BMatP= 9.05D-04
 IDIUse=3 WtCom= 9.93D-01 WtEn= 7.49D-03
 Coeff-Com:  0.438D-01-0.174D-01-0.525D+00 0.150D+01
 Coeff-En:   0.000D+00 0.000D+00 0.000D+00 0.100D+01
 Coeff:      0.435D-01-0.173D-01-0.522D+00 0.150D+01
 Gap=     0.698 Goal=   None    Shift=    0.000
 RMSDP=2.35D-04 MaxDP=2.02D-03 DE=-9.04D-04 OVMax= 9.61D-04

 Cycle   5  Pass 1  IDiag  1:
 E= -33.6516712601948     Delta-E=       -0.000013044378 Rises=F Damp=F
 DIIS: error= 5.03D-05 at cycle   5 NSaved=   5.
 NSaved= 5 IEnMin= 5 EnMin= -33.6516712601948     IErMin= 5 ErrMin= 5.03D-05
 ErrMax= 5.03D-05  0.00D+00 EMaxC= 1.00D-01 BMatC= 3.90D-08 BMatP= 5.82D-06
 IDIUse=1 WtCom= 1.00D+00 WtEn= 0.00D+00
 Coeff-Com: -0.708D-02 0.315D-02 0.860D-01-0.294D+00 0.121D+01
 Coeff:     -0.708D-02 0.315D-02 0.860D-01-0.294D+00 0.121D+01
 Gap=     0.698 Goal=   None    Shift=    0.000
 RMSDP=1.59D-05 MaxDP=1.51D-04 DE=-1.30D-05 OVMax= 1.03D-04

 Cycle   6  Pass 1  IDiag  1:
 E= -33.6516713567845     Delta-E=       -0.000000096590 Rises=F Damp=F
 DIIS: error= 1.09D-05 at cycle   6 NSaved=   6.
 NSaved= 6 IEnMin= 6 EnMin= -33.6516713567845     IErMin= 6 ErrMin= 1.09D-05
 ErrMax= 1.09D-05  0.00D+00 EMaxC= 1.00D-01 BMatC= 2.18D-09 BMatP= 3.90D-08
 IDIUse=1 WtCom= 1.00D+00 WtEn= 0.00D+00
 Coeff-Com:  0.123D-02-0.426D-03-0.144D-01 0.556D-01-0.401D+00 0.136D+01
 Coeff:      0.123D-02-0.426D-03-0.144D-01 0.556D-01-0.401D+00 0.136D+01
 Gap=     0.698 Goal=   None    Shift=    0.000
 RMSDP=3.93D-06 MaxDP=4.06D-05 DE=-9.66D-08 OVMax= 3.50D-05

 Cycle   7  Pass 1  IDiag  1:
 E= -33.6516713627825     Delta-E=       -0.000000005998 Rises=F Damp=F
 DIIS: error= 2.23D-06 at cycle   7 NSaved=   7.
 NSaved= 7 IEnMin= 7 EnMin= -33.6516713627825     IErMin= 7 ErrMin= 2.23D-06
 ErrMax= 2.23D-06  0.00D+00 EMaxC= 1.00D-01 BMatC= 1.25D-10 BMatP= 2.18D-09
 IDIUse=1 WtCom= 1.00D+00 WtEn= 0.00D+00
 Coeff-Com:  0.321D-03-0.169D-03-0.396D-02 0.125D-01-0.246D-01-0.130D+00
 Coeff-Com:  0.115D+01
 Coeff:      0.321D-03-0.169D-03-0.396D-02 0.125D-01-0.246D-01-0.130D+00
 Coeff:      0.115D+01
 Gap=     0.698 Goal=   None    Shift=    0.000
 RMSDP=9.62D-07 MaxDP=7.92D-06 DE=-6.00D-09 OVMax= 8.53D-06

 Cycle   8  Pass 1  IDiag  1:
 E= -33.6516713630682     Delta-E=       -0.000000000286 Rises=F Damp=F
 DIIS: error= 8.06D-07 at cycle   8 NSaved=   8.
 NSaved= 8 IEnMin= 8 EnMin= -33.6516713630682     IErMin= 8 ErrMin= 8.06D-07
 ErrMax= 8.06D-07  0.00D+00 EMaxC= 1.00D-01 BMatC= 2.05D-11 BMatP= 1.25D-10
 IDIUse=1 WtCom= 1.00D+00 WtEn= 0.00D+00
 Coeff-Com: -0.359D-06-0.242D-04-0.671D-04-0.821D-03 0.306D-01-0.174D+00
 Coeff-Com:  0.325D+00 0.819D+00
 Coeff:     -0.359D-06-0.242D-04-0.671D-04-0.821D-03 0.306D-01-0.174D+00
 Coeff:      0.325D+00 0.819D+00
 Gap=     0.698 Goal=   None    Shift=    0.000
 RMSDP=2.97D-07 MaxDP=2.31D-06 DE=-2.86D-10 OVMax= 2.45D-06

 Cycle   9  Pass 1  IDiag  1:
 E= -33.6516713630980     Delta-E=       -0.000000000030 Rises=F Damp=F
 DIIS: error= 1.84D-07 at cycle   9 NSaved=   9.
 NSaved= 9 IEnMin= 9 EnMin= -33.6516713630980     IErMin= 9 ErrMin= 1.84D-07
 ErrMax= 1.84D-07  0.00D+00 EMaxC= 1.00D-01 BMatC= 7.13D-13 BMatP= 2.05D-11
 IDIUse=1 WtCom= 1.00D+00 WtEn= 0.00D+00
 Coeff-Com:  0.363D-05 0.734D-05-0.785D-05 0.413D-03-0.125D-01 0.737D-01
 Coeff-Com: -0.181D+00-0.286D+00 0.141D+01
 Coeff:      0.363D-05 0.734D-05-0.785D-05 0.413D-03-0.125D-01 0.737D-01
 Coeff:     -0.181D+00-0.286D+00 0.141D+01
 Gap=     0.698 Goal=   None    Shift=    0.000
 RMSDP=1.25D-07 MaxDP=5.80D-07 DE=-2.97D-11 OVMax= 8.46D-07

 Cycle  10  Pass 1  IDiag  1:
 E= -33.6516713630998     Delta-E=       -0.000000000002 Rises=F Damp=F
 DIIS: error= 8.58D-09 at cycle  10 NSaved=  10.
 NSaved=10 IEnMin=10 EnMin= -33.6516713630998     IErMin=10 ErrMin= 8.58D-09
 ErrMax= 8.58D-09  0.00D+00 EMaxC= 1.00D-01 BMatC= 2.78D-15 BMatP= 7.13D-13
 IDIUse=1 WtCom= 1.00D+00 WtEn= 0.00D+00
 Coeff-Com:  0.687D-07-0.195D-05-0.931D-05-0.583D-04 0.276D-02-0.170D-01
 Coeff-Com:  0.426D-01 0.635D-01-0.370D+00 0.128D+01
 Coeff:      0.687D-07-0.195D-05-0.931D-05-0.583D-04 0.276D-02-0.170D-01
 Coeff:      0.426D-01 0.635D-01-0.370D+00 0.128D+01
 Gap=     0.698 Goal=   None    Shift=    0.000
 RMSDP=1.18D-08 MaxDP=5.55D-08 DE=-1.86D-12 OVMax= 6.77D-08

 Cycle  11  Pass 1  IDiag  1:
 E= -33.6516713630998     Delta-E=       -0.000000000000 Rises=F Damp=F
 DIIS: error= 3.62D-10 at cycle  11 NSaved=  11.
 NSaved=11 IEnMin=11 EnMin= -33.6516713630998     IErMin=11 ErrMin= 3.62D-10
 ErrMax= 3.62D-10  0.00D+00 EMaxC= 1.00D-01 BMatC= 3.52D-18 BMatP= 2.78D-15
 IDIUse=1 WtCom= 1.00D+00 WtEn= 0.00D+00
 Coeff-Com: -0.759D-07 0.345D-06 0.231D-05 0.761D-05-0.465D-03 0.291D-02
 Coeff-Com: -0.736D-02-0.109D-01 0.648D-01-0.242D+00 0.119D+01
 Coeff:     -0.759D-07 0.345D-06 0.231D-05 0.761D-05-0.465D-03 0.291D-02
 Coeff:     -0.736D-02-0.109D-01 0.648D-01-0.242D+00 0.119D+01
 Gap=     0.698 Goal=   None    Shift=    0.000
 RMSDP=2.11D-10 MaxDP=1.05D-09 DE=-1.42D-14 OVMax= 7.93D-10

 SCF Done:  E(RHF) =  -33.6516713631     A.U. after   11 cycles
            NFock= 11  Conv=0.21D-09     -V/T= 2.2569
 KE= 2.677268308793D+01 PE=-1.188461412856D+02 EE= 3.981765189676D+01
 Leave Link  502 at Sun Dec 10 07:06:10 2023, MaxMem=   536870912 cpu:               0.3 elap:               0.1
 (Enter /usr/site/hpc/x86_64/glibc-2.17/broadwell/gaussian/g16_a.03/pgi-16.5/g16/l801.exe)
 Windowed orbitals will be sorted by symmetry type.
 Range of M.O.s used for correlation:     1    24
 NBasis=    24 NAE=     8 NBE=     8 NFC=     0 NFV=     0
 NROrb=     24 NOA=     8 NOB=     8 NVA=    16 NVB=    16
 Leave Link  801 at Sun Dec 10 07:06:10 2023, MaxMem=   536870912 cpu:               0.1 elap:               0.0
 (Enter /usr/site/hpc/x86_64/glibc-2.17/broadwell/gaussian/g16_a.03/pgi-16.5/g16/l804.exe)
 Closed-shell transformation, MDV=   536870912 ITran=4 ISComp=2.
 Unit  1 TFree=       1025975 TCopy=        210600.
 Semi-Direct transformation.
 ModeAB=           4 MOrb=             8 LenV=     536742961
 LASXX=        22470 LTotXX=       22470 LenRXX=       48678
 LTotAB=       26208 MaxLAS=       53760 LenRXY=           0
 NonZer=       71148 LenScr=      524288 LnRSAI=       53760
 LnScr1=      524288 LExtra=           0 Total=      1151014
 MaxDsk=          -1 SrtSym=           T ITran=            4
 DoSDTr:  NPSUse=  4
 JobTyp=0 Pass  1:  I=   1 to   8.
 (rs|ai) integrals will be sorted in core.
 Complete sort for first half transformation.
 First half transformation complete.
 Complete sort for second half transformation.
 Second half transformation complete.
 Spin components of T(2) and E(2):
     alpha-alpha T2 =       0.9067571491D-02 E2=     -0.2589066992D-01
     alpha-beta  T2 =       0.5994499199D-01 E2=     -0.1766088617D+00
     beta-beta   T2 =       0.9067571491D-02 E2=     -0.2589066992D-01
 ANorm=    0.1038306378D+01
 E2 =    -0.2283902015D+00 EUMP2 =    -0.33880061564613D+02
 Leave Link  804 at Sun Dec 10 07:06:10 2023, MaxMem=   536870912 cpu:               0.2 elap:               0.1
 (Enter /usr/site/hpc/x86_64/glibc-2.17/broadwell/gaussian/g16_a.03/pgi-16.5/g16/l913.exe)
 CIDS:  MDV=   536870912.
 IFCWin=0 IBDFC=1 NFBD=     0     0 NFCmp=     0     0 NFFFC=     0     0
 Using DD3R+UMP44R for 1st iteration.
 Using DD4RQ for 2nd and later iterations.
 Keep R2 and R3 ints in memory in symmetry-blocked form, NReq=864259.
 FoFCou: FMM=F IPFlag=           0 FMFlag=           0 FMFlg1=           0
         NFxFlg=           0 DoJE=F BraDBF=F KetDBF=F FulRan=T
         wScrn=  0.000000 ICntrl=       600 IOpCl=  0 I1Cent=           0 NGrid=           0
         NMat0=    1 NMatS0=    300 NMatT0=    0 NMatD0=    1 NMtDS0=    0 NMtDT0=    0
 Petite list used in FoFCou.
 CIDS: In Core Option IDoMem=           1.
 CCSD(T)
 =======
 Iterations=  50 Convergence= 0.100D-06
 Produce multiple copies of IABC intergrals
 Iteration Nr.   1
 **********************
 DD1Dir will call FoFMem   1 times, MxPair=        72
 NAB=    36 NAA=     0 NBB=     0.
 MP4(R+Q)= -0.73992907D-03
 Maximum subspace dimension=  5
 A-vector RMS=  5.7595008D-03 Max=  1.3216309D-02 conv= 1.00D-05.
 RLE energy=       -0.2344582039
 E3=       -0.54458307D-02        EUMP3=      -0.33885507395D+02
 E4(DQ)=   -0.59127040D-02        UMP4(DQ)=   -0.33891420099D+02
 E4(SDQ)=  -0.79406833D-02        UMP4(SDQ)=  -0.33893448079D+02
 VARIATIONAL ENERGIES WITH THE FIRST-ORDER WAVEFUNCTION:
 DE(Corr)= -0.23430150     E(Corr)=     -33.885972861    
 NORM(A)=   0.10417464D+01
 Iteration Nr.   2
 **********************
 DD1Dir will call FoFMem   1 times, MxPair=        72
 NAB=    36 NAA=     0 NBB=     0.
 A-vector RMS=  9.8355655D-04 Max=  2.7369940D-03 conv= 1.00D-05.
 RLE energy=       -0.2422366895
 DE(Corr)= -0.24029134     E(CORR)=     -33.891962703     Delta=-5.99D-03
 NORM(A)=   0.10455449D+01
 Iteration Nr.   3
 **********************
 DD1Dir will call FoFMem   1 times, MxPair=        72
 NAB=    36 NAA=     0 NBB=     0.
 A-vector RMS=  3.8436640D-04 Max=  1.1597486D-03 conv= 1.00D-05.
 RLE energy=       -0.2427874893
 DE(Corr)= -0.24233938     E(CORR)=     -33.894010739     Delta=-2.05D-03
 NORM(A)=   0.10461075D+01
 Iteration Nr.   4
 **********************
 DD1Dir will call FoFMem   1 times, MxPair=        72
 NAB=    36 NAA=     0 NBB=     0.
 A-vector RMS=  9.2704919D-05 Max=  2.5013594D-04 conv= 1.00D-05.
 RLE energy=       -0.2428344464
 DE(Corr)= -0.24279842     E(CORR)=     -33.894469785     Delta=-4.59D-04
 NORM(A)=   0.10461822D+01
 Iteration Nr.   5
 **********************
 DD1Dir will call FoFMem   1 times, MxPair=        72
 NAB=    36 NAA=     0 NBB=     0.
 A-vector RMS=  4.1724077D-05 Max=  1.5269577D-04 conv= 1.00D-05.
 RLE energy=       -0.2428326591
 DE(Corr)= -0.24283064     E(CORR)=     -33.894502002     Delta=-3.22D-05
 NORM(A)=   0.10461929D+01
 Iteration Nr.   6
 **********************
 DD1Dir will call FoFMem   1 times, MxPair=        72
 NAB=    36 NAA=     0 NBB=     0.
 A-vector RMS=  1.1365911D-05 Max=  4.0513224D-05 conv= 1.00D-05.
 RLE energy=       -0.2428318123
 DE(Corr)= -0.24283281     E(CORR)=     -33.894504175     Delta=-2.17D-06
 NORM(A)=   0.10461964D+01
 Iteration Nr.   7
 **********************
 DD1Dir will call FoFMem   1 times, MxPair=        72
 NAB=    36 NAA=     0 NBB=     0.
 A-vector RMS=  3.3343572D-06 Max=  1.1963010D-05 conv= 1.00D-05.
 RLE energy=       -0.2428327305
 DE(Corr)= -0.24283219     E(CORR)=     -33.894503551     Delta= 6.24D-07
 NORM(A)=   0.10461978D+01
 Iteration Nr.   8
 **********************
 DD1Dir will call FoFMem   1 times, MxPair=        72
 NAB=    36 NAA=     0 NBB=     0.
 A-vector RMS=  5.5338394D-07 Max=  1.7503962D-06 conv= 1.00D-05.
 RLE energy=       -0.2428322407
 DE(Corr)= -0.24283224     E(CORR)=     -33.894503607     Delta=-5.59D-08
 NORM(A)=   0.10461979D+01
 CI/CC converged in    8 iterations to DelEn=-5.59D-08 Conv= 1.00D-07 ErrA1= 5.53D-07 Conv= 1.00D-05
 Wavefunction amplitudes converged. E(Corr)=     -33.894503607    
 Largest amplitude= 5.86D-02
 IPart=  2 IA=    2   12.50% done.
 IPart=  4 IA=    3   24.17% done.
 IPart=  3 IA=    4   35.00% done.
 IPart=  3 IA=    5   45.00% done.
 IPart=  4 IA=    6   54.17% done.
 IPart=  2 IA=    7   62.50% done.
 IPart=  1 IA=    8   70.00% done.
 IPart=  3 IA=   10   82.50% done.
 IPart=  2 IA=   12   91.67% done.
 Time for triples=        0.25 seconds.
 T4(CCSD)= -0.30879189D-02
 T5(CCSD)=  0.52641017D-03
 CCSD(T)= -0.33897065116D+02
 Discarding MO integrals.
 Leave Link  913 at Sun Dec 10 07:06:10 2023, MaxMem=   536870912 cpu:               0.8 elap:               0.2
 (Enter /usr/site/hpc/x86_64/glibc-2.17/broadwell/gaussian/g16_a.03/pgi-16.5/g16/l601.exe)
 Copying SCF densities to generalized density rwf, IOpCl= 0 IROHF=0.

 **********************************************************************

            Population analysis using the SCF density.

 **********************************************************************

 Orbital symmetries:
       Occupied  (A') (A') (A') (A') (A') (A') (A") (A")
       Virtual   (A') (A') (A') (A') (A") (A") (A') (A') (A') (A')
                 (A') (A') (A') (A') (A') (A')
 The electronic state is 1-A'.
 Alpha  occ. eigenvalues --   -1.35523  -1.34993  -0.71155  -0.70615  -0.55251
 Alpha  occ. eigenvalues --   -0.54715  -0.50093  -0.49562
 Alpha virt. eigenvalues --    0.20242   0.20786   0.30481   0.31017   0.80459
 Alpha virt. eigenvalues --    0.80983   0.83495   0.84029   0.86602   0.87180
 Alpha virt. eigenvalues --    1.17374   1.17902   1.21833   1.22368   2.57393
 Alpha virt. eigenvalues --    2.57920
          Condensed to atoms (all electrons):
               1          2          3          4          5          6
     1  O    6.214107   0.262750   0.263856  -0.000000  -0.000000   0.000000
     2  H    0.262750   0.391646  -0.023553   0.000000  -0.000000  -0.000000
     3  H    0.263856  -0.023553   0.388140   0.000000  -0.000000  -0.000000
     4  O   -0.000000   0.000000   0.000000   6.214159   0.262214   0.264092
     5  H   -0.000000  -0.000000  -0.000000   0.262214   0.393593  -0.023581
     6  H    0.000000  -0.000000  -0.000000   0.264092  -0.023581   0.386798
 Mulliken charges:
               1
     1  O   -0.740713
     2  H    0.369156
     3  H    0.371557
     4  O   -0.740465
     5  H    0.367775
     6  H    0.372691
 Sum of Mulliken charges =   0.00000
 Mulliken charges with hydrogens summed into heavy atoms:
               1
     1  O    0.000000
     4  O   -0.000000
 Electronic spatial extent (au):  <R**2>=            675.1910
 Charge=              0.0000 electrons
 Dipole moment (field-independent basis, Debye):
    X=             -2.4994    Y=             -1.8076    Z=              0.0000  Tot=              3.0845
 Quadrupole moment (field-independent basis, Debye-Ang):
   XX=             -9.9427   YY=             12.6488   ZZ=            -14.9885
   XY=             -7.8839   XZ=              0.0000   YZ=              0.0000
 Traceless Quadrupole moment (field-independent basis, Debye-Ang):
   XX=             -5.8486   YY=             16.7429   ZZ=            -10.8943
   XY=             -7.8839   XZ=              0.0000   YZ=              0.0000
 Octapole moment (field-independent basis, Debye-Ang**2):
  XXX=             -1.5083  YYY=            -39.6161  ZZZ=              0.0000  XYY=            -23.6856
  XXY=             -8.2626  XXZ=              0.0000  XZZ=             -0.4693  YZZ=             -0.3424
  YYZ=              0.0000  XYZ=              0.0000
 Hexadecapole moment (field-independent basis, Debye-Ang**3):
 XXXX=            -12.5324 YYYY=           -172.8307 ZZZZ=            -12.2209 XXXY=             -0.5738
 XXXZ=              0.0000 YYYX=            -81.8577 YYYZ=              0.0000 ZZZX=              0.0000
 ZZZY=              0.0000 XXYY=           -109.2004 XXZZ=             -4.5437 YYZZ=           -169.5842
 XXYZ=              0.0000 YYXZ=              0.0000 ZZXY=              1.0735
 N-N= 1.860413493784D+01 E-N=-1.188461412906D+02  KE= 2.677268308793D+01
 Symmetry A'   KE= 1.788928892667D+01
 Symmetry A"   KE= 8.883394161254D+00
 Leave Link  601 at Sun Dec 10 07:06:10 2023, MaxMem=   536870912 cpu:               0.1 elap:               0.0
 (Enter /usr/site/hpc/x86_64/glibc-2.17/broadwell/gaussian/g16_a.03/pgi-16.5/g16/l9999.exe)
 1\1\GINC-N045\SP\RCCSD(T)-FC\CEP-31G\H4O2\ROOT\10-Dec-2023\0\\#p CCSD(
 T)/CEP-31G\\H2O_H2O_4694\\0,1\O,0,0.,-0.009833,0.\H,0,-0.799571,-0.580
 965,0.\H,0,0.799571,-0.580965,0.\O,0,-0.009311,6.563363,0.\H,0,-0.2931
 2,7.504085,0.\H,0,-0.807147,5.989809,0.\\Version=ES64L-G16RevA.03\Stat
 e=1-A'\HF=-33.6516714\MP2=-33.8800616\MP3=-33.8855074\MP4D=-33.8906802
 \MP4DQ=-33.8914201\MP4SDQ=-33.8934481\CCSD=-33.8945036\CCSD(T)=-33.897
 0651\RMSD=2.113e-10\PG=CS [SG(H4O2)]\\@


 KNOWLEDGE IS CHIMERA - FOR BEYOND IT LIES OTHER KNOWLEDGE,
 AND THE INCOMPLETENESS OF WHAT IS KNOWN RENDERS THE KNOWING FALSE.
     -- THE THOMAS COVENANT CHRONICLES
 Job cpu time:       0 days  0 hours  0 minutes  3.3 seconds.
 Elapsed time:       0 days  0 hours  0 minutes  1.0 seconds.
 File lengths (MBytes):  RWF=     72 Int=      0 D2E=      0 Chk=      8 Scr=      8
 Normal termination of Gaussian 16 at Sun Dec 10 07:06:10 2023.
