 Entering Gaussian System, Link 0=g16
 Input=H2O_H2O_623.com
 Output=H2O_H2O_623.log
 Initial command:
 /usr/site/hpc/x86_64/glibc-2.17/broadwell/gaussian/g16_a.03/pgi-16.5/g16/l1.exe "/gpfs/gpfs1/scratch/c7441090/OO Coord/Gau-1214984.inp" -scrdir="/gpfs/gpfs1/scratch/c7441090/OO Coord/"
 Entering Link 1 = /usr/site/hpc/x86_64/glibc-2.17/broadwell/gaussian/g16_a.03/pgi-16.5/g16/l1.exe PID=   1214985.
  
 Copyright (c) 1988,1990,1992,1993,1995,1998,2003,2009,2016,
            Gaussian, Inc.  All Rights Reserved.
  
 This is part of the Gaussian(R) 16 program.  It is based on
 the Gaussian(R) 09 system (copyright 2009, Gaussian, Inc.),
 the Gaussian(R) 03 system (copyright 2003, Gaussian, Inc.),
 the Gaussian(R) 98 system (copyright 1998, Gaussian, Inc.),
 the Gaussian(R) 94 system (copyright 1995, Gaussian, Inc.),
 the Gaussian 92(TM) system (copyright 1992, Gaussian, Inc.),
 the Gaussian 90(TM) system (copyright 1990, Gaussian, Inc.),
 the Gaussian 88(TM) system (copyright 1988, Gaussian, Inc.),
 the Gaussian 86(TM) system (copyright 1986, Carnegie Mellon
 University), and the Gaussian 82(TM) system (copyright 1983,
 Carnegie Mellon University). Gaussian is a federally registered
 trademark of Gaussian, Inc.
  
 This software contains proprietary and confidential information,
 including trade secrets, belonging to Gaussian, Inc.
  
 This software is provided under written license and may be
 used, copied, transmitted, or stored only in accord with that
 written license.
  
 The following legend is applicable only to US Government
 contracts under FAR:
  
                    RESTRICTED RIGHTS LEGEND
  
 Use, reproduction and disclosure by the US Government is
 subject to restrictions as set forth in subparagraphs (a)
 and (c) of the Commercial Computer Software - Restricted
 Rights clause in FAR 52.227-19.
  
 Gaussian, Inc.
 340 Quinnipiac St., Bldg. 40, Wallingford CT 06492
  
  
 ---------------------------------------------------------------
 Warning -- This program may not be used in any manner that
 competes with the business of Gaussian, Inc. or will provide
 assistance to any competitor of Gaussian, Inc.  The licensee
 of this program is prohibited from giving any competitor of
 Gaussian, Inc. access to this program.  By using this program,
 the user acknowledges that Gaussian, Inc. is engaged in the
 business of creating and licensing software in the field of
 computational chemistry and represents and warrants to the
 licensee that it is not a competitor of Gaussian, Inc. and that
 it will not use this program in any manner prohibited above.
 ---------------------------------------------------------------
  

 Cite this work as:
 Gaussian 16, Revision A.03,
 M. J. Frisch, G. W. Trucks, H. B. Schlegel, G. E. Scuseria, 
 M. A. Robb, J. R. Cheeseman, G. Scalmani, V. Barone, 
 G. A. Petersson, H. Nakatsuji, X. Li, M. Caricato, A. V. Marenich, 
 J. Bloino, B. G. Janesko, R. Gomperts, B. Mennucci, H. P. Hratchian, 
 J. V. Ortiz, A. F. Izmaylov, J. L. Sonnenberg, D. Williams-Young, 
 F. Ding, F. Lipparini, F. Egidi, J. Goings, B. Peng, A. Petrone, 
 T. Henderson, D. Ranasinghe, V. G. Zakrzewski, J. Gao, N. Rega, 
 G. Zheng, W. Liang, M. Hada, M. Ehara, K. Toyota, R. Fukuda, 
 J. Hasegawa, M. Ishida, T. Nakajima, Y. Honda, O. Kitao, H. Nakai, 
 T. Vreven, K. Throssell, J. A. Montgomery, Jr., J. E. Peralta, 
 F. Ogliaro, M. J. Bearpark, J. J. Heyd, E. N. Brothers, K. N. Kudin, 
 V. N. Staroverov, T. A. Keith, R. Kobayashi, J. Normand, 
 K. Raghavachari, A. P. Rendell, J. C. Burant, S. S. Iyengar, 
 J. Tomasi, M. Cossi, J. M. Millam, M. Klene, C. Adamo, R. Cammi, 
 J. W. Ochterski, R. L. Martin, K. Morokuma, O. Farkas, 
 J. B. Foresman, and D. J. Fox, Gaussian, Inc., Wallingford CT, 2016.
 
 ******************************************
 Gaussian 16:  ES64L-G16RevA.03 25-Dec-2016
                10-Dec-2023 
 ******************************************
 %NProcShared=4
 Will use up to    4 processors via shared memory.
 %Mem=4GB
 %Chk=H2O_H2O_623.chk
 ------------------
 #p CCSD(T)/CEP-31G
 ------------------
 1/38=1,172=1/1;
 2/12=2,17=6,18=5,40=1/2;
 3/5=9,6=1,11=9,25=1,30=1/1,2,3;
 4//1;
 5/5=2,38=5/2;
 8/6=4,9=120000,10=1/1,4;
 9/5=7,14=2/13;
 6/7=2,8=2,9=2,10=2/1;
 99/5=1,9=1/99;
 Leave Link    1 at Sun Dec 10 06:36:22 2023, MaxMem=   536870912 cpu:               0.2 elap:               0.1
 (Enter /usr/site/hpc/x86_64/glibc-2.17/broadwell/gaussian/g16_a.03/pgi-16.5/g16/l101.exe)
 -----------
 H2O_H2O_623
 -----------
 Symbolic Z-matrix:
 Charge =  0 Multiplicity = 1
 O                     0.       -0.00983   0. 
 H                    -0.79957  -0.58097   0. 
 H                     0.79957  -0.58097   0. 
 O                    -0.00981   2.22638   0. 
 H                    -0.52743   3.06159   0. 
 H                    -0.63202   1.46587   0. 
 
 ITRead=  0  0  0  0  0  0
 MicOpt= -1 -1 -1 -1 -1 -1
 NAtoms=      6 NQM=        6 NQMF=       0 NMMI=      0 NMMIF=      0
                NMic=       0 NMicF=      0.
                    Isotopes and Nuclear Properties:
 (Nuclear quadrupole moments (NQMom) in fm**2, nuclear magnetic moments (NMagM)
  in nuclear magnetons)

  Atom         1           2           3           4           5           6
 IAtWgt=          16           1           1          16           1           1
 AtmWgt=  15.9949146   1.0078250   1.0078250  15.9949146   1.0078250   1.0078250
 NucSpn=           0           1           1           0           1           1
 AtZEff=  -0.0000000  -0.0000000  -0.0000000  -0.0000000  -0.0000000  -0.0000000
 NQMom=    0.0000000   0.0000000   0.0000000   0.0000000   0.0000000   0.0000000
 NMagM=    0.0000000   2.7928460   2.7928460   0.0000000   2.7928460   2.7928460
 AtZNuc=   8.0000000   1.0000000   1.0000000   8.0000000   1.0000000   1.0000000
 Leave Link  101 at Sun Dec 10 06:36:22 2023, MaxMem=   536870912 cpu:               0.3 elap:               0.1
 (Enter /usr/site/hpc/x86_64/glibc-2.17/broadwell/gaussian/g16_a.03/pgi-16.5/g16/l202.exe)
                          Input orientation:                          
 ---------------------------------------------------------------------
 Center     Atomic      Atomic             Coordinates (Angstroms)
 Number     Number       Type             X           Y           Z
 ---------------------------------------------------------------------
      1          8           0        0.000000   -0.009833    0.000000
      2          1           0       -0.799571   -0.580965    0.000000
      3          1           0        0.799571   -0.580965    0.000000
      4          8           0       -0.009812    2.226379    0.000000
      5          1           0       -0.527427    3.061592    0.000000
      6          1           0       -0.632016    1.465873    0.000000
 ---------------------------------------------------------------------
                    Distance matrix (angstroms):
                    1          2          3          4          5
     1  O    0.000000
     2  H    0.982601   0.000000
     3  H    0.982601   1.599142   0.000000
     4  O    2.236234   2.916316   2.921691   0.000000
     5  H    3.116381   3.652709   3.876744   0.982602   0.000000
     6  H    1.605351   2.053685   2.497796   0.982602   1.599143
                    6
     6  H    0.000000
 Stoichiometry    H4O2
 Framework group  CS[SG(H4O2)]
 Deg. of freedom     9
 Full point group                 CS      NOp   2
 Largest Abelian subgroup         CS      NOp   2
 Largest concise Abelian subgroup C1      NOp   1
                         Standard orientation:                         
 ---------------------------------------------------------------------
 Center     Atomic      Atomic             Coordinates (Angstroms)
 Number     Number       Type             X           Y           Z
 ---------------------------------------------------------------------
      1          8           0        0.057225   -1.064989    0.000000
      2          1           0       -0.744845   -1.632608    0.000000
      3          1           0        0.854282   -1.639624    0.000000
      4          8           0        0.057225    1.171244    0.000000
      5          1           0       -0.456721    2.008720    0.000000
      6          1           0       -0.568310    0.413475    0.000000
 ---------------------------------------------------------------------
 Rotational constants (GHZ):         269.0420411          10.1620311           9.7921694
 Leave Link  202 at Sun Dec 10 06:36:22 2023, MaxMem=   536870912 cpu:               0.1 elap:               0.0
 (Enter /usr/site/hpc/x86_64/glibc-2.17/broadwell/gaussian/g16_a.03/pgi-16.5/g16/l301.exe)
 Standard basis: CEP-31G (6D, 10F)
 Ernie: Thresh=  0.10000D-02 Tol=  0.10000D-05 Strict=F.
 There are    20 symmetry adapted cartesian basis functions of A'  symmetry.
 There are     4 symmetry adapted cartesian basis functions of A"  symmetry.
 There are    20 symmetry adapted basis functions of A'  symmetry.
 There are     4 symmetry adapted basis functions of A"  symmetry.
    24 basis functions,    48 primitive gaussians,    24 cartesian basis functions
     8 alpha electrons        8 beta electrons
       nuclear repulsion energy        28.0288903465 Hartrees.
 IExCor=    0 DFT=F Ex=HF Corr=None ExCW=0 ScaHFX=  1.000000
 ScaDFX=  1.000000  1.000000  1.000000  1.000000 ScalE2=  1.000000  1.000000
 IRadAn=      5 IRanWt=     -1 IRanGd=            0 ICorTp=0 IEmpDi=  4
 NAtoms=    6 NActive=    6 NUniq=    6 SFac= 1.00D+00 NAtFMM=   60 NAOKFM=F Big=F
 Integral buffers will be    131072 words long.
 Raffenetti 1 integral format.
 Two-electron integral symmetry is turned on.
 Leave Link  301 at Sun Dec 10 06:36:22 2023, MaxMem=   536870912 cpu:               0.2 elap:               0.1
 (Enter /usr/site/hpc/x86_64/glibc-2.17/broadwell/gaussian/g16_a.03/pgi-16.5/g16/l302.exe)
 NPDir=0 NMtPBC=     1 NCelOv=     1 NCel=       1 NClECP=     1 NCelD=      1
         NCelK=      1 NCelE2=     1 NClLst=     1 CellRange=     0.0.
 One-electron integrals computed using PRISM.
 One-electron integral symmetry used in STVInt
   2 Symmetry operations used in ECPInt.
 ECPInt:  NShTT=      78 NPrTT=     318 LenC2=      79 LenP2D=     293.
 LDataN:  DoStor=T MaxTD1= 2 Len=   12
 NBasis=    24 RedAO= T EigKep=  2.24D-02  NBF=    20     4
 NBsUse=    24 1.00D-06 EigRej= -1.00D+00 NBFU=    20     4
 Leave Link  302 at Sun Dec 10 06:36:22 2023, MaxMem=   536870912 cpu:               0.3 elap:               0.1
 (Enter /usr/site/hpc/x86_64/glibc-2.17/broadwell/gaussian/g16_a.03/pgi-16.5/g16/l303.exe)
 DipDrv:  MaxL=1.
 Leave Link  303 at Sun Dec 10 06:36:22 2023, MaxMem=   536870912 cpu:               0.1 elap:               0.0
 (Enter /usr/site/hpc/x86_64/glibc-2.17/broadwell/gaussian/g16_a.03/pgi-16.5/g16/l401.exe)
 ExpMin= 1.78D-01 ExpMax= 1.92D+01 ExpMxC= 1.92D+01 IAcc=3 IRadAn=         5 AccDes= 0.00D+00
 Harris functional with IExCor=  205 and IRadAn=       5 diagonalized for initial guess.
 HarFok:  IExCor=  205 AccDes= 0.00D+00 IRadAn=         5 IDoV= 1 UseB2=F ITyADJ=14
 ICtDFT=  3500011 ScaDFX=  1.000000  1.000000  1.000000  1.000000
 FoFCou: FMM=F IPFlag=           0 FMFlag=      100000 FMFlg1=           0
         NFxFlg=           0 DoJE=T BraDBF=F KetDBF=T FulRan=T
         wScrn=  0.000000 ICntrl=       500 IOpCl=  0 I1Cent=   200000004 NGrid=           0
         NMat0=    1 NMatS0=      1 NMatT0=    0 NMatD0=    1 NMtDS0=    0 NMtDT0=    0
 Petite list used in FoFCou.
 Harris En= -34.4716309063692    
 JPrj=0 DoOrth=F DoCkMO=F.
 Initial guess orbital symmetries:
       Occupied  (A') (A') (A') (A') (A') (A') (A") (A")
       Virtual   (A') (A') (A') (A') (A") (A') (A") (A') (A') (A')
                 (A') (A') (A') (A') (A') (A')
 The electronic state of the initial guess is 1-A'.
 Leave Link  401 at Sun Dec 10 06:36:22 2023, MaxMem=   536870912 cpu:               0.4 elap:               0.1
 (Enter /usr/site/hpc/x86_64/glibc-2.17/broadwell/gaussian/g16_a.03/pgi-16.5/g16/l502.exe)
 Keep R1 ints in memory in symmetry-blocked form, NReq=852759.
 FoFCou: FMM=F IPFlag=           0 FMFlag=           0 FMFlg1=           0
         NFxFlg=           0 DoJE=F BraDBF=F KetDBF=F FulRan=T
         wScrn=  0.000000 ICntrl=       600 IOpCl=  0 I1Cent=           0 NGrid=           0
         NMat0=    1 NMatS0=    300 NMatT0=    0 NMatD0=    1 NMtDS0=    0 NMtDT0=    0
 Petite list used in FoFCou.
 Closed shell SCF:
 Using DIIS extrapolation, IDIIS=  1040.
 NGot=   536870912 LenX=   536840576 LenY=   536839559
 Requested convergence on RMS density matrix=1.00D-08 within 128 cycles.
 Requested convergence on MAX density matrix=1.00D-06.
 Requested convergence on             energy=1.00D-06.
 No special actions if energy rises.

 Cycle   1  Pass 1  IDiag  1:
 E= -33.5340213256356    
 DIIS: error= 5.70D-02 at cycle   1 NSaved=   1.
 NSaved= 1 IEnMin= 1 EnMin= -33.5340213256356     IErMin= 1 ErrMin= 5.70D-02
 ErrMax= 5.70D-02  0.00D+00 EMaxC= 1.00D-01 BMatC= 1.03D-01 BMatP= 1.03D-01
 IDIUse=3 WtCom= 4.30D-01 WtEn= 5.70D-01
 Coeff-Com:  0.100D+01
 Coeff-En:   0.100D+01
 Coeff:      0.100D+01
 Gap=     0.544 Goal=   None    Shift=    0.000
 GapD=    0.544 DampG=2.000 DampE=0.500 DampFc=1.0000 IDamp=-1.
 RMSDP=1.68D-02 MaxDP=1.27D-01              OVMax= 1.06D-01

 Cycle   2  Pass 1  IDiag  1:
 E= -33.5998829343851     Delta-E=       -0.065861608749 Rises=F Damp=F
 DIIS: error= 3.70D-02 at cycle   2 NSaved=   2.
 NSaved= 2 IEnMin= 2 EnMin= -33.5998829343851     IErMin= 2 ErrMin= 3.70D-02
 ErrMax= 3.70D-02  0.00D+00 EMaxC= 1.00D-01 BMatC= 3.84D-02 BMatP= 1.03D-01
 IDIUse=3 WtCom= 6.30D-01 WtEn= 3.70D-01
 Coeff-Com:  0.375D+00 0.625D+00
 Coeff-En:   0.847D-01 0.915D+00
 Coeff:      0.268D+00 0.732D+00
 Gap=     0.641 Goal=   None    Shift=    0.000
 RMSDP=7.00D-03 MaxDP=6.05D-02 DE=-6.59D-02 OVMax= 4.04D-02

 Cycle   3  Pass 1  IDiag  1:
 E= -33.6302284764321     Delta-E=       -0.030345542047 Rises=F Damp=F
 DIIS: error= 6.48D-03 at cycle   3 NSaved=   3.
 NSaved= 3 IEnMin= 3 EnMin= -33.6302284764321     IErMin= 3 ErrMin= 6.48D-03
 ErrMax= 6.48D-03  0.00D+00 EMaxC= 1.00D-01 BMatC= 1.08D-03 BMatP= 3.84D-02
 IDIUse=3 WtCom= 9.35D-01 WtEn= 6.48D-02
 Coeff-Com: -0.106D+00 0.787D-02 0.110D+01
 Coeff-En:   0.000D+00 0.000D+00 0.100D+01
 Coeff:     -0.987D-01 0.736D-02 0.109D+01
 Gap=     0.631 Goal=   None    Shift=    0.000
 RMSDP=1.34D-03 MaxDP=1.05D-02 DE=-3.03D-02 OVMax= 8.64D-03

 Cycle   4  Pass 1  IDiag  1:
 E= -33.6312921110494     Delta-E=       -0.001063634617 Rises=F Damp=F
 DIIS: error= 7.07D-04 at cycle   4 NSaved=   4.
 NSaved= 4 IEnMin= 4 EnMin= -33.6312921110494     IErMin= 4 ErrMin= 7.07D-04
 ErrMax= 7.07D-04  0.00D+00 EMaxC= 1.00D-01 BMatC= 7.79D-06 BMatP= 1.08D-03
 IDIUse=3 WtCom= 9.93D-01 WtEn= 7.07D-03
 Coeff-Com:  0.781D-02-0.228D-01-0.170D+00 0.118D+01
 Coeff-En:   0.000D+00 0.000D+00 0.000D+00 0.100D+01
 Coeff:      0.776D-02-0.227D-01-0.168D+00 0.118D+01
 Gap=     0.634 Goal=   None    Shift=    0.000
 RMSDP=2.43D-04 MaxDP=2.21D-03 DE=-1.06D-03 OVMax= 1.32D-03

 Cycle   5  Pass 1  IDiag  1:
 E= -33.6313071081976     Delta-E=       -0.000014997148 Rises=F Damp=F
 DIIS: error= 1.56D-04 at cycle   5 NSaved=   5.
 NSaved= 5 IEnMin= 5 EnMin= -33.6313071081976     IErMin= 5 ErrMin= 1.56D-04
 ErrMax= 1.56D-04  0.00D+00 EMaxC= 1.00D-01 BMatC= 1.18D-06 BMatP= 7.79D-06
 IDIUse=3 WtCom= 9.98D-01 WtEn= 1.56D-03
 Coeff-Com:  0.151D-01-0.738D-02-0.181D+00 0.348D+00 0.826D+00
 Coeff-En:   0.000D+00 0.000D+00 0.000D+00 0.000D+00 0.100D+01
 Coeff:      0.151D-01-0.737D-02-0.181D+00 0.347D+00 0.826D+00
 Gap=     0.634 Goal=   None    Shift=    0.000
 RMSDP=6.82D-05 MaxDP=5.59D-04 DE=-1.50D-05 OVMax= 4.55D-04

 Cycle   6  Pass 1  IDiag  1:
 E= -33.6313086163475     Delta-E=       -0.000001508150 Rises=F Damp=F
 DIIS: error= 3.35D-05 at cycle   6 NSaved=   6.
 NSaved= 6 IEnMin= 6 EnMin= -33.6313086163475     IErMin= 6 ErrMin= 3.35D-05
 ErrMax= 3.35D-05  0.00D+00 EMaxC= 1.00D-01 BMatC= 1.90D-08 BMatP= 1.18D-06
 IDIUse=1 WtCom= 1.00D+00 WtEn= 0.00D+00
 Coeff-Com: -0.349D-02 0.204D-02 0.432D-01-0.121D+00-0.158D+00 0.124D+01
 Coeff:     -0.349D-02 0.204D-02 0.432D-01-0.121D+00-0.158D+00 0.124D+01
 Gap=     0.634 Goal=   None    Shift=    0.000
 RMSDP=1.33D-05 MaxDP=1.21D-04 DE=-1.51D-06 OVMax= 8.82D-05

 Cycle   7  Pass 1  IDiag  1:
 E= -33.6313086607875     Delta-E=       -0.000000044440 Rises=F Damp=F
 DIIS: error= 4.31D-06 at cycle   7 NSaved=   7.
 NSaved= 7 IEnMin= 7 EnMin= -33.6313086607875     IErMin= 7 ErrMin= 4.31D-06
 ErrMax= 4.31D-06  0.00D+00 EMaxC= 1.00D-01 BMatC= 6.34D-10 BMatP= 1.90D-08
 IDIUse=1 WtCom= 1.00D+00 WtEn= 0.00D+00
 Coeff-Com:  0.845D-03-0.438D-03-0.101D-01 0.317D-01 0.328D-01-0.401D+00
 Coeff-Com:  0.135D+01
 Coeff:      0.845D-03-0.438D-03-0.101D-01 0.317D-01 0.328D-01-0.401D+00
 Coeff:      0.135D+01
 Gap=     0.634 Goal=   None    Shift=    0.000
 RMSDP=2.33D-06 MaxDP=2.08D-05 DE=-4.44D-08 OVMax= 1.76D-05

 Cycle   8  Pass 1  IDiag  1:
 E= -33.6313086625281     Delta-E=       -0.000000001741 Rises=F Damp=F
 DIIS: error= 1.03D-06 at cycle   8 NSaved=   8.
 NSaved= 8 IEnMin= 8 EnMin= -33.6313086625281     IErMin= 8 ErrMin= 1.03D-06
 ErrMax= 1.03D-06  0.00D+00 EMaxC= 1.00D-01 BMatC= 2.94D-11 BMatP= 6.34D-10
 IDIUse=1 WtCom= 1.00D+00 WtEn= 0.00D+00
 Coeff-Com:  0.154D-04-0.411D-04-0.338D-03 0.303D-03 0.270D-02 0.136D-01
 Coeff-Com: -0.280D+00 0.126D+01
 Coeff:      0.154D-04-0.411D-04-0.338D-03 0.303D-03 0.270D-02 0.136D-01
 Coeff:     -0.280D+00 0.126D+01
 Gap=     0.634 Goal=   None    Shift=    0.000
 RMSDP=5.65D-07 MaxDP=5.05D-06 DE=-1.74D-09 OVMax= 4.52D-06

 Cycle   9  Pass 1  IDiag  1:
 E= -33.6313086626130     Delta-E=       -0.000000000085 Rises=F Damp=F
 DIIS: error= 1.83D-07 at cycle   9 NSaved=   9.
 NSaved= 9 IEnMin= 9 EnMin= -33.6313086626130     IErMin= 9 ErrMin= 1.83D-07
 ErrMax= 1.83D-07  0.00D+00 EMaxC= 1.00D-01 BMatC= 9.90D-13 BMatP= 2.94D-11
 IDIUse=1 WtCom= 1.00D+00 WtEn= 0.00D+00
 Coeff-Com:  0.416D-05 0.829D-05 0.583D-05 0.874D-04-0.614D-03-0.430D-02
 Coeff-Com:  0.858D-01-0.480D+00 0.140D+01
 Coeff:      0.416D-05 0.829D-05 0.583D-05 0.874D-04-0.614D-03-0.430D-02
 Coeff:      0.858D-01-0.480D+00 0.140D+01
 Gap=     0.634 Goal=   None    Shift=    0.000
 RMSDP=1.52D-07 MaxDP=7.90D-07 DE=-8.50D-11 OVMax= 9.50D-07

 Cycle  10  Pass 1  IDiag  1:
 E= -33.6313086626161     Delta-E=       -0.000000000003 Rises=F Damp=F
 DIIS: error= 2.04D-08 at cycle  10 NSaved=  10.
 NSaved=10 IEnMin=10 EnMin= -33.6313086626161     IErMin=10 ErrMin= 2.04D-08
 ErrMax= 2.04D-08  0.00D+00 EMaxC= 1.00D-01 BMatC= 1.75D-14 BMatP= 9.90D-13
 IDIUse=1 WtCom= 1.00D+00 WtEn= 0.00D+00
 Coeff-Com:  0.917D-07-0.284D-05-0.153D-04 0.309D-04 0.204D-03 0.371D-03
 Coeff-Com: -0.193D-01 0.121D+00-0.450D+00 0.135D+01
 Coeff:      0.917D-07-0.284D-05-0.153D-04 0.309D-04 0.204D-03 0.371D-03
 Coeff:     -0.193D-01 0.121D+00-0.450D+00 0.135D+01
 Gap=     0.634 Goal=   None    Shift=    0.000
 RMSDP=2.25D-08 MaxDP=1.23D-07 DE=-3.10D-12 OVMax= 1.44D-07

 Cycle  11  Pass 1  IDiag  1:
 E= -33.6313086626162     Delta-E=       -0.000000000000 Rises=F Damp=F
 DIIS: error= 3.89D-09 at cycle  11 NSaved=  11.
 NSaved=11 IEnMin=11 EnMin= -33.6313086626162     IErMin=11 ErrMin= 3.89D-09
 ErrMax= 3.89D-09  0.00D+00 EMaxC= 1.00D-01 BMatC= 1.92D-16 BMatP= 1.75D-14
 IDIUse=1 WtCom= 1.00D+00 WtEn= 0.00D+00
 Coeff-Com: -0.129D-06 0.818D-06 0.538D-05-0.129D-04-0.620D-04-0.403D-04
 Coeff-Com:  0.511D-02-0.334D-01 0.130D+00-0.443D+00 0.134D+01
 Coeff:     -0.129D-06 0.818D-06 0.538D-05-0.129D-04-0.620D-04-0.403D-04
 Coeff:      0.511D-02-0.334D-01 0.130D+00-0.443D+00 0.134D+01
 Gap=     0.634 Goal=   None    Shift=    0.000
 RMSDP=1.71D-09 MaxDP=9.31D-09 DE=-1.42D-14 OVMax= 1.20D-08

 SCF Done:  E(RHF) =  -33.6313086626     A.U. after   11 cycles
            NFock= 11  Conv=0.17D-08     -V/T= 2.2495
 KE= 2.691586577735D+01 PE=-1.379913358087D+02 EE= 4.941527102219D+01
 Leave Link  502 at Sun Dec 10 06:36:23 2023, MaxMem=   536870912 cpu:               0.3 elap:               0.1
 (Enter /usr/site/hpc/x86_64/glibc-2.17/broadwell/gaussian/g16_a.03/pgi-16.5/g16/l801.exe)
 Windowed orbitals will be sorted by symmetry type.
 Range of M.O.s used for correlation:     1    24
 NBasis=    24 NAE=     8 NBE=     8 NFC=     0 NFV=     0
 NROrb=     24 NOA=     8 NOB=     8 NVA=    16 NVB=    16
 Leave Link  801 at Sun Dec 10 06:36:23 2023, MaxMem=   536870912 cpu:               0.1 elap:               0.0
 (Enter /usr/site/hpc/x86_64/glibc-2.17/broadwell/gaussian/g16_a.03/pgi-16.5/g16/l804.exe)
 Closed-shell transformation, MDV=   536870912 ITran=4 ISComp=2.
 Unit  1 TFree=       1025975 TCopy=        210600.
 Semi-Direct transformation.
 ModeAB=           2 MOrb=             8 LenV=     536741504
 LASXX=        22470 LTotXX=       22470 LenRXX=       22470
 LTotAB=       26208 MaxLAS=       57600 LenRXY=       57600
 NonZer=       62208 LenScr=      524288 LnRSAI=           0
 LnScr1=           0 LExtra=           0 Total=       604358
 MaxDsk=          -1 SrtSym=           F ITran=            4
 DoSDTr:  NPSUse=  4
 JobTyp=0 Pass  1:  I=   1 to   8.
 (rs|ai) integrals will be sorted in core.
 Complete sort for first half transformation.
 First half transformation complete.
 Complete sort for second half transformation.
 Second half transformation complete.
 Spin components of T(2) and E(2):
     alpha-alpha T2 =       0.9300173483D-02 E2=     -0.2669863738D-01
     alpha-beta  T2 =       0.5983192022D-01 E2=     -0.1774648901D+00
     beta-beta   T2 =       0.9300173483D-02 E2=     -0.2669863738D-01
 ANorm=    0.1038475935D+01
 E2 =    -0.2308621649D+00 EUMP2 =    -0.33862170827483D+02
 Leave Link  804 at Sun Dec 10 06:36:23 2023, MaxMem=   536870912 cpu:               0.2 elap:               0.1
 (Enter /usr/site/hpc/x86_64/glibc-2.17/broadwell/gaussian/g16_a.03/pgi-16.5/g16/l913.exe)
 CIDS:  MDV=   536870912.
 IFCWin=0 IBDFC=1 NFBD=     0     0 NFCmp=     0     0 NFFFC=     0     0
 Using DD3R+UMP44R for 1st iteration.
 Using DD4RQ for 2nd and later iterations.
 Keep R2 and R3 ints in memory in symmetry-blocked form, NReq=865367.
 FoFCou: FMM=F IPFlag=           0 FMFlag=           0 FMFlg1=           0
         NFxFlg=           0 DoJE=F BraDBF=F KetDBF=F FulRan=T
         wScrn=  0.000000 ICntrl=       600 IOpCl=  0 I1Cent=           0 NGrid=           0
         NMat0=    1 NMatS0=    300 NMatT0=    0 NMatD0=    1 NMtDS0=    0 NMtDT0=    0
 Petite list used in FoFCou.
 CIDS: In Core Option IDoMem=           1.
 CCSD(T)
 =======
 Iterations=  50 Convergence= 0.100D-06
 Produce multiple copies of IABC intergrals
 Iteration Nr.   1
 **********************
 DD1Dir will call FoFMem   1 times, MxPair=        72
 NAB=    36 NAA=     0 NBB=     0.
 MP4(R+Q)= -0.54279814D-03
 Maximum subspace dimension=  5
 A-vector RMS=  6.1733042D-03 Max=  1.3467982D-02 conv= 1.00D-05.
 RLE energy=       -0.2359004614
 E3=       -0.46740479D-02        EUMP3=      -0.33866844875D+02
 E4(DQ)=   -0.56686576D-02        UMP4(DQ)=   -0.33872513533D+02
 E4(SDQ)=  -0.79354740D-02        UMP4(SDQ)=  -0.33874780349D+02
 VARIATIONAL ENERGIES WITH THE FIRST-ORDER WAVEFUNCTION:
 DE(Corr)= -0.23579322     E(Corr)=     -33.867101880    
 NORM(A)=   0.10416455D+01
 Iteration Nr.   2
 **********************
 DD1Dir will call FoFMem   1 times, MxPair=        72
 NAB=    36 NAA=     0 NBB=     0.
 A-vector RMS=  9.9462099D-04 Max=  2.2689772D-03 conv= 1.00D-05.
 RLE energy=       -0.2437456816
 DE(Corr)= -0.24190274     E(CORR)=     -33.873211400     Delta=-6.11D-03
 NORM(A)=   0.10454789D+01
 Iteration Nr.   3
 **********************
 DD1Dir will call FoFMem   1 times, MxPair=        72
 NAB=    36 NAA=     0 NBB=     0.
 A-vector RMS=  4.6590578D-04 Max=  1.2049428D-03 conv= 1.00D-05.
 RLE energy=       -0.2443069569
 DE(Corr)= -0.24382780     E(CORR)=     -33.875136463     Delta=-1.93D-03
 NORM(A)=   0.10460889D+01
 Iteration Nr.   4
 **********************
 DD1Dir will call FoFMem   1 times, MxPair=        72
 NAB=    36 NAA=     0 NBB=     0.
 A-vector RMS=  1.0501378D-04 Max=  2.6678718D-04 conv= 1.00D-05.
 RLE energy=       -0.2443626175
 DE(Corr)= -0.24432428     E(CORR)=     -33.875632942     Delta=-4.96D-04
 NORM(A)=   0.10461753D+01
 Iteration Nr.   5
 **********************
 DD1Dir will call FoFMem   1 times, MxPair=        72
 NAB=    36 NAA=     0 NBB=     0.
 A-vector RMS=  4.5966335D-05 Max=  1.6695813D-04 conv= 1.00D-05.
 RLE energy=       -0.2443626968
 DE(Corr)= -0.24435882     E(CORR)=     -33.875667484     Delta=-3.45D-05
 NORM(A)=   0.10461879D+01
 Iteration Nr.   6
 **********************
 DD1Dir will call FoFMem   1 times, MxPair=        72
 NAB=    36 NAA=     0 NBB=     0.
 A-vector RMS=  1.7200161D-05 Max=  6.5197857D-05 conv= 1.00D-05.
 RLE energy=       -0.2443584768
 DE(Corr)= -0.24436202     E(CORR)=     -33.875670682     Delta=-3.20D-06
 NORM(A)=   0.10461906D+01
 Iteration Nr.   7
 **********************
 DD1Dir will call FoFMem   1 times, MxPair=        72
 NAB=    36 NAA=     0 NBB=     0.
 A-vector RMS=  5.9996855D-06 Max=  2.3686145D-05 conv= 1.00D-05.
 RLE energy=       -0.2443606513
 DE(Corr)= -0.24436164     E(CORR)=     -33.875670298     Delta= 3.84D-07
 NORM(A)=   0.10461928D+01
 Iteration Nr.   8
 **********************
 DD1Dir will call FoFMem   1 times, MxPair=        72
 NAB=    36 NAA=     0 NBB=     0.
 A-vector RMS=  1.9962283D-06 Max=  8.4171234D-06 conv= 1.00D-05.
 RLE energy=       -0.2443609256
 DE(Corr)= -0.24436109     E(CORR)=     -33.875669756     Delta= 5.42D-07
 NORM(A)=   0.10461935D+01
 Iteration Nr.   9
 **********************
 DD1Dir will call FoFMem   1 times, MxPair=        72
 NAB=    36 NAA=     0 NBB=     0.
 A-vector RMS=  5.2637123D-07 Max=  1.9294976D-06 conv= 1.00D-05.
 RLE energy=       -0.2443612790
 DE(Corr)= -0.24436130     E(CORR)=     -33.875669959     Delta=-2.03D-07
 NORM(A)=   0.10461938D+01
 Iteration Nr.  10
 **********************
 DD1Dir will call FoFMem   1 times, MxPair=        72
 NAB=    36 NAA=     0 NBB=     0.
 A-vector RMS=  1.5724470D-07 Max=  5.9838252D-07 conv= 1.00D-05.
 RLE energy=       -0.2443614303
 DE(Corr)= -0.24436139     E(CORR)=     -33.875670056     Delta=-9.71D-08
 NORM(A)=   0.10461940D+01
 CI/CC converged in   10 iterations to DelEn=-9.71D-08 Conv= 1.00D-07 ErrA1= 1.57D-07 Conv= 1.00D-05
 Wavefunction amplitudes converged. E(Corr)=     -33.875670056    
 Largest amplitude= 4.33D-02
 IPart=  3 IA=    2   12.50% done.
 IPart=  2 IA=    3   24.17% done.
 IPart=  4 IA=    4   35.00% done.
 IPart=  2 IA=    5   45.00% done.
 IPart=  4 IA=    6   54.17% done.
 IPart=  3 IA=    7   62.50% done.
 IPart=  1 IA=    8   70.00% done.
 IPart=  3 IA=   10   82.50% done.
 IPart=  4 IA=   12   91.67% done.
 Time for triples=        0.26 seconds.
 T4(CCSD)= -0.35331629D-02
 T5(CCSD)=  0.57889493D-03
 CCSD(T)= -0.33878624324D+02
 Discarding MO integrals.
 Leave Link  913 at Sun Dec 10 06:36:23 2023, MaxMem=   536870912 cpu:               0.9 elap:               0.3
 (Enter /usr/site/hpc/x86_64/glibc-2.17/broadwell/gaussian/g16_a.03/pgi-16.5/g16/l601.exe)
 Copying SCF densities to generalized density rwf, IOpCl= 0 IROHF=0.

 **********************************************************************

            Population analysis using the SCF density.

 **********************************************************************

 Orbital symmetries:
       Occupied  (A') (A') (A') (A') (A') (A") (A') (A")
       Virtual   (A') (A') (A') (A') (A") (A') (A") (A') (A') (A')
                 (A') (A') (A') (A') (A') (A')
 The electronic state is 1-A'.
 Alpha  occ. eigenvalues --   -1.37910  -1.30180  -0.73711  -0.69552  -0.53628
 Alpha  occ. eigenvalues --   -0.52332  -0.50267  -0.44667
 Alpha virt. eigenvalues --    0.18744   0.27941   0.28883   0.37695   0.76629
 Alpha virt. eigenvalues --    0.84347   0.89638   0.92008   0.98464   1.13396
 Alpha virt. eigenvalues --    1.18807   1.19734   1.27331   1.31316   2.77826
 Alpha virt. eigenvalues --    2.85982
          Condensed to atoms (all electrons):
               1          2          3          4          5          6
     1  O    6.431361   0.245704   0.282105  -0.120932   0.003789  -0.051239
     2  H    0.245704   0.398426  -0.020174   0.004604  -0.000163   0.000854
     3  H    0.282105  -0.020174   0.308050   0.003181  -0.000095   0.001575
     4  O   -0.120932   0.004604   0.003181   6.312377   0.236302   0.276942
     5  H    0.003789  -0.000163  -0.000095   0.236302   0.458591  -0.018471
     6  H   -0.051239   0.000854   0.001575   0.276942  -0.018471   0.403230
 Mulliken charges:
               1
     1  O   -0.790788
     2  H    0.370749
     3  H    0.425357
     4  O   -0.712474
     5  H    0.320047
     6  H    0.387109
 Sum of Mulliken charges =   0.00000
 Mulliken charges with hydrogens summed into heavy atoms:
               1
     1  O    0.005318
     4  O   -0.005318
 Electronic spatial extent (au):  <R**2>=            117.0348
 Charge=              0.0000 electrons
 Dipole moment (field-independent basis, Debye):
    X=             -2.3481    Y=             -2.9087    Z=              0.0000  Tot=              3.7381
 Quadrupole moment (field-independent basis, Debye-Ang):
   XX=            -10.1044   YY=             -5.2578   ZZ=            -15.0029
   XY=             -3.1726   XZ=              0.0000   YZ=              0.0000
 Traceless Quadrupole moment (field-independent basis, Debye-Ang):
   XX=              0.0173   YY=              4.8639   ZZ=             -4.8812
   XY=             -3.1726   XZ=              0.0000   YZ=              0.0000
 Octapole moment (field-independent basis, Debye-Ang**2):
  XXX=             -0.8375  YYY=             -5.6852  ZZZ=              0.0000  XYY=             -3.4321
  XXY=             -4.5644  XXZ=              0.0000  XZZ=             -0.4129  YZZ=             -0.6372
  YYZ=              0.0000  XYZ=              0.0000
 Hexadecapole moment (field-independent basis, Debye-Ang**3):
 XXXX=            -12.7269 YYYY=            -80.2565 ZZZZ=            -12.2640 XXXY=             -0.2758
 XXXZ=              0.0000 YYYX=             -7.4499 YYYZ=              0.0000 ZZZX=              0.0000
 ZZZY=              0.0000 XXYY=            -14.9856 XXZZ=             -4.5462 YYZZ=            -24.6151
 XXYZ=              0.0000 YYXZ=              0.0000 ZZXY=              0.3707
 N-N= 2.802889034651D+01 E-N=-1.379913358120D+02  KE= 2.691586577735D+01
 Symmetry A'   KE= 1.806646190072D+01
 Symmetry A"   KE= 8.849403876625D+00
 Leave Link  601 at Sun Dec 10 06:36:23 2023, MaxMem=   536870912 cpu:               0.1 elap:               0.0
 (Enter /usr/site/hpc/x86_64/glibc-2.17/broadwell/gaussian/g16_a.03/pgi-16.5/g16/l9999.exe)
 1\1\GINC-N033\SP\RCCSD(T)-FC\CEP-31G\H4O2\ROOT\10-Dec-2023\0\\#p CCSD(
 T)/CEP-31G\\H2O_H2O_623\\0,1\O,0,0.,-0.009833,0.\H,0,-0.799571,-0.5809
 65,0.\H,0,0.799571,-0.580965,0.\O,0,-0.009812,2.226379,0.\H,0,-0.52742
 7,3.061592,0.\H,0,-0.632016,1.465873,0.\\Version=ES64L-G16RevA.03\Stat
 e=1-A'\HF=-33.6313087\MP2=-33.8621708\MP3=-33.8668449\MP4D=-33.8719707
 \MP4DQ=-33.8725135\MP4SDQ=-33.8747803\CCSD=-33.8756701\CCSD(T)=-33.878
 6243\RMSD=1.709e-09\PG=CS [SG(H4O2)]\\@


 ...THE PHYSICISTS HAVE MADE THEIR UNIVERSE, AND IF YOU DO NOT LIKE
 IT, YOU MUST MAKE YOUR OWN.
                               -- E. R. HARRISON IN "COSMOLOGY" (1980)
 Job cpu time:       0 days  0 hours  0 minutes  3.4 seconds.
 Elapsed time:       0 days  0 hours  0 minutes  1.1 seconds.
 File lengths (MBytes):  RWF=     72 Int=      0 D2E=      0 Chk=      8 Scr=      8
 Normal termination of Gaussian 16 at Sun Dec 10 06:36:23 2023.
