 Entering Gaussian System, Link 0=g16
 Input=H2O_H2O_4544.com
 Output=H2O_H2O_4544.log
 Initial command:
 /usr/site/hpc/x86_64/glibc-2.17/broadwell/gaussian/g16_a.03/pgi-16.5/g16/l1.exe "/gpfs/gpfs1/scratch/c7441090/OO Coord/Gau-1821322.inp" -scrdir="/gpfs/gpfs1/scratch/c7441090/OO Coord/"
 Entering Link 1 = /usr/site/hpc/x86_64/glibc-2.17/broadwell/gaussian/g16_a.03/pgi-16.5/g16/l1.exe PID=   1821323.
  
 Copyright (c) 1988,1990,1992,1993,1995,1998,2003,2009,2016,
            Gaussian, Inc.  All Rights Reserved.
  
 This is part of the Gaussian(R) 16 program.  It is based on
 the Gaussian(R) 09 system (copyright 2009, Gaussian, Inc.),
 the Gaussian(R) 03 system (copyright 2003, Gaussian, Inc.),
 the Gaussian(R) 98 system (copyright 1998, Gaussian, Inc.),
 the Gaussian(R) 94 system (copyright 1995, Gaussian, Inc.),
 the Gaussian 92(TM) system (copyright 1992, Gaussian, Inc.),
 the Gaussian 90(TM) system (copyright 1990, Gaussian, Inc.),
 the Gaussian 88(TM) system (copyright 1988, Gaussian, Inc.),
 the Gaussian 86(TM) system (copyright 1986, Carnegie Mellon
 University), and the Gaussian 82(TM) system (copyright 1983,
 Carnegie Mellon University). Gaussian is a federally registered
 trademark of Gaussian, Inc.
  
 This software contains proprietary and confidential information,
 including trade secrets, belonging to Gaussian, Inc.
  
 This software is provided under written license and may be
 used, copied, transmitted, or stored only in accord with that
 written license.
  
 The following legend is applicable only to US Government
 contracts under FAR:
  
                    RESTRICTED RIGHTS LEGEND
  
 Use, reproduction and disclosure by the US Government is
 subject to restrictions as set forth in subparagraphs (a)
 and (c) of the Commercial Computer Software - Restricted
 Rights clause in FAR 52.227-19.
  
 Gaussian, Inc.
 340 Quinnipiac St., Bldg. 40, Wallingford CT 06492
  
  
 ---------------------------------------------------------------
 Warning -- This program may not be used in any manner that
 competes with the business of Gaussian, Inc. or will provide
 assistance to any competitor of Gaussian, Inc.  The licensee
 of this program is prohibited from giving any competitor of
 Gaussian, Inc. access to this program.  By using this program,
 the user acknowledges that Gaussian, Inc. is engaged in the
 business of creating and licensing software in the field of
 computational chemistry and represents and warrants to the
 licensee that it is not a competitor of Gaussian, Inc. and that
 it will not use this program in any manner prohibited above.
 ---------------------------------------------------------------
  

 Cite this work as:
 Gaussian 16, Revision A.03,
 M. J. Frisch, G. W. Trucks, H. B. Schlegel, G. E. Scuseria, 
 M. A. Robb, J. R. Cheeseman, G. Scalmani, V. Barone, 
 G. A. Petersson, H. Nakatsuji, X. Li, M. Caricato, A. V. Marenich, 
 J. Bloino, B. G. Janesko, R. Gomperts, B. Mennucci, H. P. Hratchian, 
 J. V. Ortiz, A. F. Izmaylov, J. L. Sonnenberg, D. Williams-Young, 
 F. Ding, F. Lipparini, F. Egidi, J. Goings, B. Peng, A. Petrone, 
 T. Henderson, D. Ranasinghe, V. G. Zakrzewski, J. Gao, N. Rega, 
 G. Zheng, W. Liang, M. Hada, M. Ehara, K. Toyota, R. Fukuda, 
 J. Hasegawa, M. Ishida, T. Nakajima, Y. Honda, O. Kitao, H. Nakai, 
 T. Vreven, K. Throssell, J. A. Montgomery, Jr., J. E. Peralta, 
 F. Ogliaro, M. J. Bearpark, J. J. Heyd, E. N. Brothers, K. N. Kudin, 
 V. N. Staroverov, T. A. Keith, R. Kobayashi, J. Normand, 
 K. Raghavachari, A. P. Rendell, J. C. Burant, S. S. Iyengar, 
 J. Tomasi, M. Cossi, J. M. Millam, M. Klene, C. Adamo, R. Cammi, 
 J. W. Ochterski, R. L. Martin, K. Morokuma, O. Farkas, 
 J. B. Foresman, and D. J. Fox, Gaussian, Inc., Wallingford CT, 2016.
 
 ******************************************
 Gaussian 16:  ES64L-G16RevA.03 25-Dec-2016
                10-Dec-2023 
 ******************************************
 %NProcShared=4
 Will use up to    4 processors via shared memory.
 %Mem=4GB
 %Chk=H2O_H2O_4544.chk
 ------------------
 #p CCSD(T)/CEP-31G
 ------------------
 1/38=1,172=1/1;
 2/12=2,17=6,18=5,40=1/2;
 3/5=9,6=1,11=9,25=1,30=1/1,2,3;
 4//1;
 5/5=2,38=5/2;
 8/6=4,9=120000,10=1/1,4;
 9/5=7,14=2/13;
 6/7=2,8=2,9=2,10=2/1;
 99/5=1,9=1/99;
 Leave Link    1 at Sun Dec 10 07:03:25 2023, MaxMem=   536870912 cpu:               0.2 elap:               0.1
 (Enter /usr/site/hpc/x86_64/glibc-2.17/broadwell/gaussian/g16_a.03/pgi-16.5/g16/l101.exe)
 ------------
 H2O_H2O_4544
 ------------
 Symbolic Z-matrix:
 Charge =  0 Multiplicity = 1
 O                     0.       -0.00983   0. 
 H                    -0.79957  -0.58097   0. 
 H                     0.79957  -0.58097   0. 
 O                    -0.00931   6.40381   0. 
 H                    -0.29312   7.34453   0. 
 H                    -0.80715   5.83026   0. 
 
 ITRead=  0  0  0  0  0  0
 MicOpt= -1 -1 -1 -1 -1 -1
 NAtoms=      6 NQM=        6 NQMF=       0 NMMI=      0 NMMIF=      0
                NMic=       0 NMicF=      0.
                    Isotopes and Nuclear Properties:
 (Nuclear quadrupole moments (NQMom) in fm**2, nuclear magnetic moments (NMagM)
  in nuclear magnetons)

  Atom         1           2           3           4           5           6
 IAtWgt=          16           1           1          16           1           1
 AtmWgt=  15.9949146   1.0078250   1.0078250  15.9949146   1.0078250   1.0078250
 NucSpn=           0           1           1           0           1           1
 AtZEff=  -0.0000000  -0.0000000  -0.0000000  -0.0000000  -0.0000000  -0.0000000
 NQMom=    0.0000000   0.0000000   0.0000000   0.0000000   0.0000000   0.0000000
 NMagM=    0.0000000   2.7928460   2.7928460   0.0000000   2.7928460   2.7928460
 AtZNuc=   8.0000000   1.0000000   1.0000000   8.0000000   1.0000000   1.0000000
 Leave Link  101 at Sun Dec 10 07:03:25 2023, MaxMem=   536870912 cpu:               0.3 elap:               0.1
 (Enter /usr/site/hpc/x86_64/glibc-2.17/broadwell/gaussian/g16_a.03/pgi-16.5/g16/l202.exe)
                          Input orientation:                          
 ---------------------------------------------------------------------
 Center     Atomic      Atomic             Coordinates (Angstroms)
 Number     Number       Type             X           Y           Z
 ---------------------------------------------------------------------
      1          8           0        0.000000   -0.009833    0.000000
      2          1           0       -0.799571   -0.580965    0.000000
      3          1           0        0.799571   -0.580965    0.000000
      4          8           0       -0.009311    6.403812    0.000000
      5          1           0       -0.293120    7.344534    0.000000
      6          1           0       -0.807147    5.830258    0.000000
 ---------------------------------------------------------------------
                    Distance matrix (angstroms):
                    1          2          3          4          5
     1  O    0.000000
     2  H    0.982601   0.000000
     3  H    0.982601   1.599142   0.000000
     4  O    6.413652   7.029340   7.031458   0.000000
     5  H    7.360206   7.941664   8.000469   0.982601   0.000000
     6  H    5.895604   6.411227   6.609487   0.982602   1.599142
                    6
     6  H    0.000000
 Stoichiometry    H4O2
 Framework group  CS[SG(H4O2)]
 Deg. of freedom     9
 Full point group                 CS      NOp   2
 Largest Abelian subgroup         CS      NOp   2
 Largest concise Abelian subgroup C1      NOp   1
                         Standard orientation:                         
 ---------------------------------------------------------------------
 Center     Atomic      Atomic             Coordinates (Angstroms)
 Number     Number       Type             X           Y           Z
 ---------------------------------------------------------------------
      1          8           0        0.054138   -3.168150    0.000000
      2          1           0       -0.746261   -3.738120    0.000000
      3          1           0        0.852879   -3.740442    0.000000
      4          8           0        0.054138    3.245502    0.000000
      5          1           0       -0.228305    4.186635    0.000000
      6          1           0       -0.744529    2.673107    0.000000
 ---------------------------------------------------------------------
 Rotational constants (GHZ):         259.1915756           1.3226666           1.3159513
 Leave Link  202 at Sun Dec 10 07:03:25 2023, MaxMem=   536870912 cpu:               0.1 elap:               0.0
 (Enter /usr/site/hpc/x86_64/glibc-2.17/broadwell/gaussian/g16_a.03/pgi-16.5/g16/l301.exe)
 Standard basis: CEP-31G (6D, 10F)
 Ernie: Thresh=  0.10000D-02 Tol=  0.10000D-05 Strict=F.
 There are    20 symmetry adapted cartesian basis functions of A'  symmetry.
 There are     4 symmetry adapted cartesian basis functions of A"  symmetry.
 There are    20 symmetry adapted basis functions of A'  symmetry.
 There are     4 symmetry adapted basis functions of A"  symmetry.
    24 basis functions,    48 primitive gaussians,    24 cartesian basis functions
     8 alpha electrons        8 beta electrons
       nuclear repulsion energy        18.7257901345 Hartrees.
 IExCor=    0 DFT=F Ex=HF Corr=None ExCW=0 ScaHFX=  1.000000
 ScaDFX=  1.000000  1.000000  1.000000  1.000000 ScalE2=  1.000000  1.000000
 IRadAn=      5 IRanWt=     -1 IRanGd=            0 ICorTp=0 IEmpDi=  4
 NAtoms=    6 NActive=    6 NUniq=    6 SFac= 1.00D+00 NAtFMM=   60 NAOKFM=F Big=F
 Integral buffers will be    131072 words long.
 Raffenetti 1 integral format.
 Two-electron integral symmetry is turned on.
 Leave Link  301 at Sun Dec 10 07:03:25 2023, MaxMem=   536870912 cpu:               0.2 elap:               0.1
 (Enter /usr/site/hpc/x86_64/glibc-2.17/broadwell/gaussian/g16_a.03/pgi-16.5/g16/l302.exe)
 NPDir=0 NMtPBC=     1 NCelOv=     1 NCel=       1 NClECP=     1 NCelD=      1
         NCelK=      1 NCelE2=     1 NClLst=     1 CellRange=     0.0.
 One-electron integrals computed using PRISM.
 One-electron integral symmetry used in STVInt
   2 Symmetry operations used in ECPInt.
 ECPInt:  NShTT=      78 NPrTT=     318 LenC2=      74 LenP2D=     239.
 LDataN:  DoStor=T MaxTD1= 2 Len=   12
 NBasis=    24 RedAO= T EigKep=  3.86D-02  NBF=    20     4
 NBsUse=    24 1.00D-06 EigRej= -1.00D+00 NBFU=    20     4
 Leave Link  302 at Sun Dec 10 07:03:25 2023, MaxMem=   536870912 cpu:               0.3 elap:               0.1
 (Enter /usr/site/hpc/x86_64/glibc-2.17/broadwell/gaussian/g16_a.03/pgi-16.5/g16/l303.exe)
 DipDrv:  MaxL=1.
 Leave Link  303 at Sun Dec 10 07:03:25 2023, MaxMem=   536870912 cpu:               0.1 elap:               0.0
 (Enter /usr/site/hpc/x86_64/glibc-2.17/broadwell/gaussian/g16_a.03/pgi-16.5/g16/l401.exe)
 ExpMin= 1.78D-01 ExpMax= 1.92D+01 ExpMxC= 1.92D+01 IAcc=3 IRadAn=         5 AccDes= 0.00D+00
 Harris functional with IExCor=  205 and IRadAn=       5 diagonalized for initial guess.
 HarFok:  IExCor=  205 AccDes= 0.00D+00 IRadAn=         5 IDoV= 1 UseB2=F ITyADJ=14
 ICtDFT=  3500011 ScaDFX=  1.000000  1.000000  1.000000  1.000000
 FoFCou: FMM=F IPFlag=           0 FMFlag=      100000 FMFlg1=           0
         NFxFlg=           0 DoJE=T BraDBF=F KetDBF=T FulRan=T
         wScrn=  0.000000 ICntrl=       500 IOpCl=  0 I1Cent=   200000004 NGrid=           0
         NMat0=    1 NMatS0=      1 NMatT0=    0 NMatD0=    1 NMtDS0=    0 NMtDT0=    0
 Petite list used in FoFCou.
 Harris En= -34.4763707904641    
 JPrj=0 DoOrth=F DoCkMO=F.
 Initial guess orbital symmetries:
       Occupied  (A') (A') (A') (A') (A') (A') (A") (A")
       Virtual   (A') (A') (A') (A') (A") (A") (A') (A') (A') (A')
                 (A') (A') (A') (A') (A') (A')
 The electronic state of the initial guess is 1-A'.
 Leave Link  401 at Sun Dec 10 07:03:25 2023, MaxMem=   536870912 cpu:               0.4 elap:               0.1
 (Enter /usr/site/hpc/x86_64/glibc-2.17/broadwell/gaussian/g16_a.03/pgi-16.5/g16/l502.exe)
 Keep R1 ints in memory in symmetry-blocked form, NReq=851651.
 FoFCou: FMM=F IPFlag=           0 FMFlag=           0 FMFlg1=           0
         NFxFlg=           0 DoJE=F BraDBF=F KetDBF=F FulRan=T
         wScrn=  0.000000 ICntrl=       600 IOpCl=  0 I1Cent=           0 NGrid=           0
         NMat0=    1 NMatS0=    300 NMatT0=    0 NMatD0=    1 NMtDS0=    0 NMtDT0=    0
 Petite list used in FoFCou.
 Closed shell SCF:
 Using DIIS extrapolation, IDIIS=  1040.
 NGot=   536870912 LenX=   536840576 LenY=   536839559
 Requested convergence on RMS density matrix=1.00D-08 within 128 cycles.
 Requested convergence on MAX density matrix=1.00D-06.
 Requested convergence on             energy=1.00D-06.
 No special actions if energy rises.

 Cycle   1  Pass 1  IDiag  1:
 E= -33.5572145024370    
 DIIS: error= 6.82D-02 at cycle   1 NSaved=   1.
 NSaved= 1 IEnMin= 1 EnMin= -33.5572145024370     IErMin= 1 ErrMin= 6.82D-02
 ErrMax= 6.82D-02  0.00D+00 EMaxC= 1.00D-01 BMatC= 1.02D-01 BMatP= 1.02D-01
 IDIUse=3 WtCom= 3.18D-01 WtEn= 6.82D-01
 Coeff-Com:  0.100D+01
 Coeff-En:   0.100D+01
 Coeff:      0.100D+01
 Gap=     0.606 Goal=   None    Shift=    0.000
 GapD=    0.606 DampG=2.000 DampE=0.500 DampFc=1.0000 IDamp=-1.
 RMSDP=1.48D-02 MaxDP=1.17D-01              OVMax= 9.93D-02

 Cycle   2  Pass 1  IDiag  1:
 E= -33.6201345349219     Delta-E=       -0.062920032485 Rises=F Damp=F
 DIIS: error= 3.74D-02 at cycle   2 NSaved=   2.
 NSaved= 2 IEnMin= 2 EnMin= -33.6201345349219     IErMin= 2 ErrMin= 3.74D-02
 ErrMax= 3.74D-02  0.00D+00 EMaxC= 1.00D-01 BMatC= 3.83D-02 BMatP= 1.02D-01
 IDIUse=3 WtCom= 6.26D-01 WtEn= 3.74D-01
 Coeff-Com:  0.377D+00 0.623D+00
 Coeff-En:   0.109D+00 0.891D+00
 Coeff:      0.277D+00 0.723D+00
 Gap=     0.703 Goal=   None    Shift=    0.000
 RMSDP=6.41D-03 MaxDP=5.43D-02 DE=-6.29D-02 OVMax= 3.58D-02

 Cycle   3  Pass 1  IDiag  1:
 E= -33.6507449356374     Delta-E=       -0.030610400716 Rises=F Damp=F
 DIIS: error= 7.12D-03 at cycle   3 NSaved=   3.
 NSaved= 3 IEnMin= 3 EnMin= -33.6507449356374     IErMin= 3 ErrMin= 7.12D-03
 ErrMax= 7.12D-03  0.00D+00 EMaxC= 1.00D-01 BMatC= 9.05D-04 BMatP= 3.83D-02
 IDIUse=3 WtCom= 9.29D-01 WtEn= 7.12D-02
 Coeff-Com: -0.114D+00-0.160D-01 0.113D+01
 Coeff-En:   0.000D+00 0.000D+00 0.100D+01
 Coeff:     -0.106D+00-0.149D-01 0.112D+01
 Gap=     0.696 Goal=   None    Shift=    0.000
 RMSDP=1.08D-03 MaxDP=9.28D-03 DE=-3.06D-02 OVMax= 8.09D-03

 Cycle   4  Pass 1  IDiag  1:
 E= -33.6516486824247     Delta-E=       -0.000903746787 Rises=F Damp=F
 DIIS: error= 7.55D-04 at cycle   4 NSaved=   4.
 NSaved= 4 IEnMin= 4 EnMin= -33.6516486824247     IErMin= 4 ErrMin= 7.55D-04
 ErrMax= 7.55D-04  0.00D+00 EMaxC= 1.00D-01 BMatC= 5.90D-06 BMatP= 9.05D-04
 IDIUse=3 WtCom= 9.92D-01 WtEn= 7.55D-03
 Coeff-Com:  0.438D-01-0.176D-01-0.525D+00 0.150D+01
 Coeff-En:   0.000D+00 0.000D+00 0.000D+00 0.100D+01
 Coeff:      0.435D-01-0.175D-01-0.521D+00 0.150D+01
 Gap=     0.698 Goal=   None    Shift=    0.000
 RMSDP=2.36D-04 MaxDP=2.03D-03 DE=-9.04D-04 OVMax= 9.61D-04

 Cycle   5  Pass 1  IDiag  1:
 E= -33.6516618079143     Delta-E=       -0.000013125490 Rises=F Damp=F
 DIIS: error= 5.03D-05 at cycle   5 NSaved=   5.
 NSaved= 5 IEnMin= 5 EnMin= -33.6516618079143     IErMin= 5 ErrMin= 5.03D-05
 ErrMax= 5.03D-05  0.00D+00 EMaxC= 1.00D-01 BMatC= 3.90D-08 BMatP= 5.90D-06
 IDIUse=1 WtCom= 1.00D+00 WtEn= 0.00D+00
 Coeff-Com: -0.708D-02 0.319D-02 0.860D-01-0.294D+00 0.121D+01
 Coeff:     -0.708D-02 0.319D-02 0.860D-01-0.294D+00 0.121D+01
 Gap=     0.698 Goal=   None    Shift=    0.000
 RMSDP=1.59D-05 MaxDP=1.52D-04 DE=-1.31D-05 OVMax= 1.03D-04

 Cycle   6  Pass 1  IDiag  1:
 E= -33.6516619046628     Delta-E=       -0.000000096749 Rises=F Damp=F
 DIIS: error= 1.09D-05 at cycle   6 NSaved=   6.
 NSaved= 6 IEnMin= 6 EnMin= -33.6516619046628     IErMin= 6 ErrMin= 1.09D-05
 ErrMax= 1.09D-05  0.00D+00 EMaxC= 1.00D-01 BMatC= 2.19D-09 BMatP= 3.90D-08
 IDIUse=1 WtCom= 1.00D+00 WtEn= 0.00D+00
 Coeff-Com:  0.121D-02-0.424D-03-0.142D-01 0.548D-01-0.398D+00 0.136D+01
 Coeff:      0.121D-02-0.424D-03-0.142D-01 0.548D-01-0.398D+00 0.136D+01
 Gap=     0.698 Goal=   None    Shift=    0.000
 RMSDP=3.92D-06 MaxDP=4.07D-05 DE=-9.67D-08 OVMax= 3.52D-05

 Cycle   7  Pass 1  IDiag  1:
 E= -33.6516619106615     Delta-E=       -0.000000005999 Rises=F Damp=F
 DIIS: error= 2.25D-06 at cycle   7 NSaved=   7.
 NSaved= 7 IEnMin= 7 EnMin= -33.6516619106615     IErMin= 7 ErrMin= 2.25D-06
 ErrMax= 2.25D-06  0.00D+00 EMaxC= 1.00D-01 BMatC= 1.32D-10 BMatP= 2.19D-09
 IDIUse=1 WtCom= 1.00D+00 WtEn= 0.00D+00
 Coeff-Com:  0.361D-03-0.185D-03-0.443D-02 0.143D-01-0.379D-01-0.873D-01
 Coeff-Com:  0.112D+01
 Coeff:      0.361D-03-0.185D-03-0.443D-02 0.143D-01-0.379D-01-0.873D-01
 Coeff:      0.112D+01
 Gap=     0.698 Goal=   None    Shift=    0.000
 RMSDP=9.51D-07 MaxDP=7.99D-06 DE=-6.00D-09 OVMax= 8.53D-06

 Cycle   8  Pass 1  IDiag  1:
 E= -33.6516619109527     Delta-E=       -0.000000000291 Rises=F Damp=F
 DIIS: error= 7.70D-07 at cycle   8 NSaved=   8.
 NSaved= 8 IEnMin= 8 EnMin= -33.6516619109527     IErMin= 8 ErrMin= 7.70D-07
 ErrMax= 7.70D-07  0.00D+00 EMaxC= 1.00D-01 BMatC= 2.22D-11 BMatP= 1.32D-10
 IDIUse=1 WtCom= 1.00D+00 WtEn= 0.00D+00
 Coeff-Com: -0.407D-06-0.245D-04-0.684D-04-0.830D-03 0.309D-01-0.176D+00
 Coeff-Com:  0.307D+00 0.838D+00
 Coeff:     -0.407D-06-0.245D-04-0.684D-04-0.830D-03 0.309D-01-0.176D+00
 Coeff:      0.307D+00 0.838D+00
 Gap=     0.698 Goal=   None    Shift=    0.000
 RMSDP=3.19D-07 MaxDP=2.48D-06 DE=-2.91D-10 OVMax= 2.63D-06

 Cycle   9  Pass 1  IDiag  1:
 E= -33.6516619109858     Delta-E=       -0.000000000033 Rises=F Damp=F
 DIIS: error= 1.85D-07 at cycle   9 NSaved=   9.
 NSaved= 9 IEnMin= 9 EnMin= -33.6516619109858     IErMin= 9 ErrMin= 1.85D-07
 ErrMax= 1.85D-07  0.00D+00 EMaxC= 1.00D-01 BMatC= 7.12D-13 BMatP= 2.22D-11
 IDIUse=1 WtCom= 1.00D+00 WtEn= 0.00D+00
 Coeff-Com:  0.363D-05 0.735D-05-0.741D-05 0.412D-03-0.125D-01 0.735D-01
 Coeff-Com: -0.170D+00-0.306D+00 0.141D+01
 Coeff:      0.363D-05 0.735D-05-0.741D-05 0.412D-03-0.125D-01 0.735D-01
 Coeff:     -0.170D+00-0.306D+00 0.141D+01
 Gap=     0.698 Goal=   None    Shift=    0.000
 RMSDP=1.26D-07 MaxDP=5.83D-07 DE=-3.30D-11 OVMax= 8.49D-07

 Cycle  10  Pass 1  IDiag  1:
 E= -33.6516619109877     Delta-E=       -0.000000000002 Rises=F Damp=F
 DIIS: error= 8.59D-09 at cycle  10 NSaved=  10.
 NSaved=10 IEnMin=10 EnMin= -33.6516619109877     IErMin=10 ErrMin= 8.59D-09
 ErrMax= 8.59D-09  0.00D+00 EMaxC= 1.00D-01 BMatC= 2.78D-15 BMatP= 7.12D-13
 IDIUse=1 WtCom= 1.00D+00 WtEn= 0.00D+00
 Coeff-Com:  0.737D-07-0.195D-05-0.944D-05-0.578D-04 0.274D-02-0.169D-01
 Coeff-Com:  0.399D-01 0.682D-01-0.372D+00 0.128D+01
 Coeff:      0.737D-07-0.195D-05-0.944D-05-0.578D-04 0.274D-02-0.169D-01
 Coeff:      0.399D-01 0.682D-01-0.372D+00 0.128D+01
 Gap=     0.698 Goal=   None    Shift=    0.000
 RMSDP=1.18D-08 MaxDP=5.55D-08 DE=-1.90D-12 OVMax= 6.77D-08

 Cycle  11  Pass 1  IDiag  1:
 E= -33.6516619109877     Delta-E=       -0.000000000000 Rises=F Damp=F
 DIIS: error= 3.65D-10 at cycle  11 NSaved=  11.
 NSaved=11 IEnMin=11 EnMin= -33.6516619109877     IErMin=11 ErrMin= 3.65D-10
 ErrMax= 3.65D-10  0.00D+00 EMaxC= 1.00D-01 BMatC= 3.59D-18 BMatP= 2.78D-15
 IDIUse=1 WtCom= 1.00D+00 WtEn= 0.00D+00
 Coeff-Com: -0.762D-07 0.343D-06 0.231D-05 0.746D-05-0.460D-03 0.287D-02
 Coeff-Com: -0.685D-02-0.116D-01 0.647D-01-0.241D+00 0.119D+01
 Coeff:     -0.762D-07 0.343D-06 0.231D-05 0.746D-05-0.460D-03 0.287D-02
 Coeff:     -0.685D-02-0.116D-01 0.647D-01-0.241D+00 0.119D+01
 Gap=     0.698 Goal=   None    Shift=    0.000
 RMSDP=2.15D-10 MaxDP=1.06D-09 DE=-2.84D-14 OVMax= 8.28D-10

 SCF Done:  E(RHF) =  -33.6516619110     A.U. after   11 cycles
            NFock= 11  Conv=0.22D-09     -V/T= 2.2569
 KE= 2.677263674504D+01 PE=-1.190923456036D+02 EE= 3.994225681312D+01
 Leave Link  502 at Sun Dec 10 07:03:25 2023, MaxMem=   536870912 cpu:               0.3 elap:               0.1
 (Enter /usr/site/hpc/x86_64/glibc-2.17/broadwell/gaussian/g16_a.03/pgi-16.5/g16/l801.exe)
 Windowed orbitals will be sorted by symmetry type.
 Range of M.O.s used for correlation:     1    24
 NBasis=    24 NAE=     8 NBE=     8 NFC=     0 NFV=     0
 NROrb=     24 NOA=     8 NOB=     8 NVA=    16 NVB=    16
 Leave Link  801 at Sun Dec 10 07:03:25 2023, MaxMem=   536870912 cpu:               0.1 elap:               0.0
 (Enter /usr/site/hpc/x86_64/glibc-2.17/broadwell/gaussian/g16_a.03/pgi-16.5/g16/l804.exe)
 Closed-shell transformation, MDV=   536870912 ITran=4 ISComp=2.
 Unit  1 TFree=       1025975 TCopy=        210600.
 Semi-Direct transformation.
 ModeAB=           4 MOrb=             8 LenV=     536742846
 LASXX=        22470 LTotXX=       22470 LenRXX=       48678
 LTotAB=       26208 MaxLAS=       54528 LenRXY=           0
 NonZer=       71148 LenScr=      524288 LnRSAI=       54528
 LnScr1=      524288 LExtra=           0 Total=      1151782
 MaxDsk=          -1 SrtSym=           T ITran=            4
 DoSDTr:  NPSUse=  4
 JobTyp=0 Pass  1:  I=   1 to   8.
 (rs|ai) integrals will be sorted in core.
 Complete sort for first half transformation.
 First half transformation complete.
 Complete sort for second half transformation.
 Second half transformation complete.
 Spin components of T(2) and E(2):
     alpha-alpha T2 =       0.9067720935D-02 E2=     -0.2589089525D-01
     alpha-beta  T2 =       0.5994597854D-01 E2=     -0.1766103226D+00
     beta-beta   T2 =       0.9067720935D-02 E2=     -0.2589089525D-01
 ANorm=    0.1038306997D+01
 E2 =    -0.2283921131D+00 EUMP2 =    -0.33880054024052D+02
 Leave Link  804 at Sun Dec 10 07:03:26 2023, MaxMem=   536870912 cpu:               0.2 elap:               0.1
 (Enter /usr/site/hpc/x86_64/glibc-2.17/broadwell/gaussian/g16_a.03/pgi-16.5/g16/l913.exe)
 CIDS:  MDV=   536870912.
 IFCWin=0 IBDFC=1 NFBD=     0     0 NFCmp=     0     0 NFFFC=     0     0
 Using DD3R+UMP44R for 1st iteration.
 Using DD4RQ for 2nd and later iterations.
 Keep R2 and R3 ints in memory in symmetry-blocked form, NReq=864259.
 FoFCou: FMM=F IPFlag=           0 FMFlag=           0 FMFlg1=           0
         NFxFlg=           0 DoJE=F BraDBF=F KetDBF=F FulRan=T
         wScrn=  0.000000 ICntrl=       600 IOpCl=  0 I1Cent=           0 NGrid=           0
         NMat0=    1 NMatS0=    300 NMatT0=    0 NMatD0=    1 NMtDS0=    0 NMtDT0=    0
 Petite list used in FoFCou.
 CIDS: In Core Option IDoMem=           1.
 CCSD(T)
 =======
 Iterations=  50 Convergence= 0.100D-06
 Produce multiple copies of IABC intergrals
 Iteration Nr.   1
 **********************
 DD1Dir will call FoFMem   1 times, MxPair=        72
 NAB=    36 NAA=     0 NBB=     0.
 MP4(R+Q)= -0.73984939D-03
 Maximum subspace dimension=  5
 A-vector RMS=  5.7596313D-03 Max=  1.3216418D-02 conv= 1.00D-05.
 RLE energy=       -0.2344601303
 E3=       -0.54459368D-02        EUMP3=      -0.33885499961D+02
 E4(DQ)=   -0.59127574D-02        UMP4(DQ)=   -0.33891412718D+02
 E4(SDQ)=  -0.79407805D-02        UMP4(SDQ)=  -0.33893440741D+02
 VARIATIONAL ENERGIES WITH THE FIRST-ORDER WAVEFUNCTION:
 DE(Corr)= -0.23430342     E(Corr)=     -33.885965336    
 NORM(A)=   0.10417471D+01
 Iteration Nr.   2
 **********************
 DD1Dir will call FoFMem   1 times, MxPair=        72
 NAB=    36 NAA=     0 NBB=     0.
 A-vector RMS=  9.8353846D-04 Max=  2.7370757D-03 conv= 1.00D-05.
 RLE energy=       -0.2422387458
 DE(Corr)= -0.24029339     E(CORR)=     -33.891955305     Delta=-5.99D-03
 NORM(A)=   0.10455457D+01
 Iteration Nr.   3
 **********************
 DD1Dir will call FoFMem   1 times, MxPair=        72
 NAB=    36 NAA=     0 NBB=     0.
 A-vector RMS=  3.8439311D-04 Max=  1.1598962D-03 conv= 1.00D-05.
 RLE energy=       -0.2427895547
 DE(Corr)= -0.24234143     E(CORR)=     -33.894003337     Delta=-2.05D-03
 NORM(A)=   0.10461083D+01
 Iteration Nr.   4
 **********************
 DD1Dir will call FoFMem   1 times, MxPair=        72
 NAB=    36 NAA=     0 NBB=     0.
 A-vector RMS=  9.2707145D-05 Max=  2.5011094D-04 conv= 1.00D-05.
 RLE energy=       -0.2428365165
 DE(Corr)= -0.24280049     E(CORR)=     -33.894462401     Delta=-4.59D-04
 NORM(A)=   0.10461830D+01
 Iteration Nr.   5
 **********************
 DD1Dir will call FoFMem   1 times, MxPair=        72
 NAB=    36 NAA=     0 NBB=     0.
 A-vector RMS=  4.1725811D-05 Max=  1.5270048D-04 conv= 1.00D-05.
 RLE energy=       -0.2428347291
 DE(Corr)= -0.24283271     E(CORR)=     -33.894494620     Delta=-3.22D-05
 NORM(A)=   0.10461937D+01
 Iteration Nr.   6
 **********************
 DD1Dir will call FoFMem   1 times, MxPair=        72
 NAB=    36 NAA=     0 NBB=     0.
 A-vector RMS=  1.1366492D-05 Max=  4.0515236D-05 conv= 1.00D-05.
 RLE energy=       -0.2428338819
 DE(Corr)= -0.24283488     E(CORR)=     -33.894496793     Delta=-2.17D-06
 NORM(A)=   0.10461973D+01
 Iteration Nr.   7
 **********************
 DD1Dir will call FoFMem   1 times, MxPair=        72
 NAB=    36 NAA=     0 NBB=     0.
 A-vector RMS=  3.3345558D-06 Max=  1.1962692D-05 conv= 1.00D-05.
 RLE energy=       -0.2428348002
 DE(Corr)= -0.24283426     E(CORR)=     -33.894496169     Delta= 6.24D-07
 NORM(A)=   0.10461987D+01
 Iteration Nr.   8
 **********************
 DD1Dir will call FoFMem   1 times, MxPair=        72
 NAB=    36 NAA=     0 NBB=     0.
 A-vector RMS=  5.5355017D-07 Max=  1.7511359D-06 conv= 1.00D-05.
 RLE energy=       -0.2428343104
 DE(Corr)= -0.24283431     E(CORR)=     -33.894496225     Delta=-5.59D-08
 NORM(A)=   0.10461988D+01
 CI/CC converged in    8 iterations to DelEn=-5.59D-08 Conv= 1.00D-07 ErrA1= 5.54D-07 Conv= 1.00D-05
 Wavefunction amplitudes converged. E(Corr)=     -33.894496225    
 Largest amplitude= 5.86D-02
 IPart=  4 IA=    2   12.50% done.
 IPart=  2 IA=    3   24.17% done.
 IPart=  3 IA=    4   35.00% done.
 IPart=  3 IA=    5   45.00% done.
 IPart=  2 IA=    6   54.17% done.
 IPart=  4 IA=    7   62.50% done.
 IPart=  1 IA=    8   70.00% done.
 IPart=  2 IA=   10   82.50% done.
 IPart=  4 IA=   12   91.67% done.
 Time for triples=        0.24 seconds.
 T4(CCSD)= -0.30880247D-02
 T5(CCSD)=  0.52643153D-03
 CCSD(T)= -0.33897057818D+02
 Discarding MO integrals.
 Leave Link  913 at Sun Dec 10 07:03:26 2023, MaxMem=   536870912 cpu:               0.8 elap:               0.2
 (Enter /usr/site/hpc/x86_64/glibc-2.17/broadwell/gaussian/g16_a.03/pgi-16.5/g16/l601.exe)
 Copying SCF densities to generalized density rwf, IOpCl= 0 IROHF=0.

 **********************************************************************

            Population analysis using the SCF density.

 **********************************************************************

 Orbital symmetries:
       Occupied  (A') (A') (A') (A') (A') (A') (A") (A")
       Virtual   (A') (A') (A') (A') (A") (A") (A') (A') (A') (A')
                 (A') (A') (A') (A') (A') (A')
 The electronic state is 1-A'.
 Alpha  occ. eigenvalues --   -1.35519  -1.34960  -0.71151  -0.70582  -0.55247
 Alpha  occ. eigenvalues --   -0.54682  -0.50089  -0.49530
 Alpha virt. eigenvalues --    0.20245   0.20818   0.30485   0.31049   0.80463
 Alpha virt. eigenvalues --    0.81014   0.83499   0.84062   0.86607   0.87218
 Alpha virt. eigenvalues --    1.17378   1.17933   1.21836   1.22401   2.57397
 Alpha virt. eigenvalues --    2.57952
          Condensed to atoms (all electrons):
               1          2          3          4          5          6
     1  O    6.214087   0.262700   0.263896  -0.000000  -0.000000   0.000000
     2  H    0.262700   0.391800  -0.023554   0.000000  -0.000000  -0.000000
     3  H    0.263896  -0.023554   0.388030   0.000000  -0.000000  -0.000000
     4  O   -0.000000   0.000000   0.000000   6.214140   0.262121   0.264142
     5  H   -0.000000  -0.000000  -0.000000   0.262121   0.393896  -0.023586
     6  H    0.000000  -0.000000  -0.000000   0.264142  -0.023586   0.386609
 Mulliken charges:
               1
     1  O   -0.740682
     2  H    0.369054
     3  H    0.371628
     4  O   -0.740403
     5  H    0.367569
     6  H    0.372835
 Sum of Mulliken charges =   0.00000
 Mulliken charges with hydrogens summed into heavy atoms:
               1
     1  O    0.000000
     4  O   -0.000000
 Electronic spatial extent (au):  <R**2>=            645.1524
 Charge=              0.0000 electrons
 Dipole moment (field-independent basis, Debye):
    X=             -2.4989    Y=             -1.8088    Z=              0.0000  Tot=              3.0849
 Quadrupole moment (field-independent basis, Debye-Ang):
   XX=             -9.9425   YY=             12.0846   ZZ=            -14.9885
   XY=             -7.6860   XZ=              0.0000   YZ=              0.0000
 Traceless Quadrupole moment (field-independent basis, Debye-Ang):
   XX=             -5.6603   YY=             16.3667   ZZ=            -10.7064
   XY=             -7.6860   XZ=              0.0000   YZ=              0.0000
 Octapole moment (field-independent basis, Debye-Ang**2):
  XXX=             -1.5079  YYY=            -37.3105  ZZZ=              0.0000  XYY=            -22.4870
  XXY=             -8.1091  XXZ=              0.0000  XZZ=             -0.4691  YZZ=             -0.3428
  YYZ=              0.0000  XYZ=              0.0000
 Hexadecapole moment (field-independent basis, Debye-Ang**3):
 XXXX=            -12.5318 YYYY=           -176.6271 ZZZZ=            -12.2209 XXXY=             -0.5606
 XXXZ=              0.0000 YYYX=            -76.0157 YYYZ=              0.0000 ZZZX=              0.0000
 ZZZY=              0.0000 XXYY=           -104.1004 XXZZ=             -4.5437 YYZZ=           -161.7463
 XXYZ=              0.0000 YYXZ=              0.0000 ZZXY=              1.0459
 N-N= 1.872579013449D+01 E-N=-1.190923456086D+02  KE= 2.677263674504D+01
 Symmetry A'   KE= 1.788925185919D+01
 Symmetry A"   KE= 8.883384885846D+00
 Leave Link  601 at Sun Dec 10 07:03:26 2023, MaxMem=   536870912 cpu:               0.1 elap:               0.0
 (Enter /usr/site/hpc/x86_64/glibc-2.17/broadwell/gaussian/g16_a.03/pgi-16.5/g16/l9999.exe)
 1\1\GINC-N045\SP\RCCSD(T)-FC\CEP-31G\H4O2\ROOT\10-Dec-2023\0\\#p CCSD(
 T)/CEP-31G\\H2O_H2O_4544\\0,1\O,0,0.,-0.009833,0.\H,0,-0.799571,-0.580
 965,0.\H,0,0.799571,-0.580965,0.\O,0,-0.009311,6.403812,0.\H,0,-0.2931
 2,7.344534,0.\H,0,-0.807147,5.830258,0.\\Version=ES64L-G16RevA.03\Stat
 e=1-A'\HF=-33.6516619\MP2=-33.880054\MP3=-33.8855\MP4D=-33.8906729\MP4
 DQ=-33.8914127\MP4SDQ=-33.8934407\CCSD=-33.8944962\CCSD(T)=-33.8970578
 \RMSD=2.152e-10\PG=CS [SG(H4O2)]\\@


 THE CHYMISTS ARE A STRANGE CLASS OF MORTALS IMPELLED
 BY AN ALMOST INSANE IMPULSE TO SEEK THEIR PLEASURE
 AMONG SMOKE AND VAPOR, SOOT AND FLAME, POISONS AND
 POVERTY; YET AMONG ALL THESE EVILS I SEEM TO LIVE
 SO SWEETLY, THAT I MAY DIE IF I WOULD CHANGE PLACES
 WITH THE PERSIAN KING.
   --  JOHANN JOACHIM BECHER, 1635-1682
 ACTA LABORATORII CHYMICA MONACENSIS, 1669
 Job cpu time:       0 days  0 hours  0 minutes  3.2 seconds.
 Elapsed time:       0 days  0 hours  0 minutes  1.0 seconds.
 File lengths (MBytes):  RWF=     72 Int=      0 D2E=      0 Chk=      8 Scr=      8
 Normal termination of Gaussian 16 at Sun Dec 10 07:03:26 2023.
