 Entering Gaussian System, Link 0=g16
 Input=H2O_H2O_2646.com
 Output=H2O_H2O_2646.log
 Initial command:
 /usr/site/hpc/x86_64/glibc-2.17/broadwell/gaussian/g16_a.03/pgi-16.5/g16/l1.exe "/gpfs/gpfs1/scratch/c7441090/OO Coord/Gau-1731972.inp" -scrdir="/gpfs/gpfs1/scratch/c7441090/OO Coord/"
 Entering Link 1 = /usr/site/hpc/x86_64/glibc-2.17/broadwell/gaussian/g16_a.03/pgi-16.5/g16/l1.exe PID=   1731973.
  
 Copyright (c) 1988,1990,1992,1993,1995,1998,2003,2009,2016,
            Gaussian, Inc.  All Rights Reserved.
  
 This is part of the Gaussian(R) 16 program.  It is based on
 the Gaussian(R) 09 system (copyright 2009, Gaussian, Inc.),
 the Gaussian(R) 03 system (copyright 2003, Gaussian, Inc.),
 the Gaussian(R) 98 system (copyright 1998, Gaussian, Inc.),
 the Gaussian(R) 94 system (copyright 1995, Gaussian, Inc.),
 the Gaussian 92(TM) system (copyright 1992, Gaussian, Inc.),
 the Gaussian 90(TM) system (copyright 1990, Gaussian, Inc.),
 the Gaussian 88(TM) system (copyright 1988, Gaussian, Inc.),
 the Gaussian 86(TM) system (copyright 1986, Carnegie Mellon
 University), and the Gaussian 82(TM) system (copyright 1983,
 Carnegie Mellon University). Gaussian is a federally registered
 trademark of Gaussian, Inc.
  
 This software contains proprietary and confidential information,
 including trade secrets, belonging to Gaussian, Inc.
  
 This software is provided under written license and may be
 used, copied, transmitted, or stored only in accord with that
 written license.
  
 The following legend is applicable only to US Government
 contracts under FAR:
  
                    RESTRICTED RIGHTS LEGEND
  
 Use, reproduction and disclosure by the US Government is
 subject to restrictions as set forth in subparagraphs (a)
 and (c) of the Commercial Computer Software - Restricted
 Rights clause in FAR 52.227-19.
  
 Gaussian, Inc.
 340 Quinnipiac St., Bldg. 40, Wallingford CT 06492
  
  
 ---------------------------------------------------------------
 Warning -- This program may not be used in any manner that
 competes with the business of Gaussian, Inc. or will provide
 assistance to any competitor of Gaussian, Inc.  The licensee
 of this program is prohibited from giving any competitor of
 Gaussian, Inc. access to this program.  By using this program,
 the user acknowledges that Gaussian, Inc. is engaged in the
 business of creating and licensing software in the field of
 computational chemistry and represents and warrants to the
 licensee that it is not a competitor of Gaussian, Inc. and that
 it will not use this program in any manner prohibited above.
 ---------------------------------------------------------------
  

 Cite this work as:
 Gaussian 16, Revision A.03,
 M. J. Frisch, G. W. Trucks, H. B. Schlegel, G. E. Scuseria, 
 M. A. Robb, J. R. Cheeseman, G. Scalmani, V. Barone, 
 G. A. Petersson, H. Nakatsuji, X. Li, M. Caricato, A. V. Marenich, 
 J. Bloino, B. G. Janesko, R. Gomperts, B. Mennucci, H. P. Hratchian, 
 J. V. Ortiz, A. F. Izmaylov, J. L. Sonnenberg, D. Williams-Young, 
 F. Ding, F. Lipparini, F. Egidi, J. Goings, B. Peng, A. Petrone, 
 T. Henderson, D. Ranasinghe, V. G. Zakrzewski, J. Gao, N. Rega, 
 G. Zheng, W. Liang, M. Hada, M. Ehara, K. Toyota, R. Fukuda, 
 J. Hasegawa, M. Ishida, T. Nakajima, Y. Honda, O. Kitao, H. Nakai, 
 T. Vreven, K. Throssell, J. A. Montgomery, Jr., J. E. Peralta, 
 F. Ogliaro, M. J. Bearpark, J. J. Heyd, E. N. Brothers, K. N. Kudin, 
 V. N. Staroverov, T. A. Keith, R. Kobayashi, J. Normand, 
 K. Raghavachari, A. P. Rendell, J. C. Burant, S. S. Iyengar, 
 J. Tomasi, M. Cossi, J. M. Millam, M. Klene, C. Adamo, R. Cammi, 
 J. W. Ochterski, R. L. Martin, K. Morokuma, O. Farkas, 
 J. B. Foresman, and D. J. Fox, Gaussian, Inc., Wallingford CT, 2016.
 
 ******************************************
 Gaussian 16:  ES64L-G16RevA.03 25-Dec-2016
                10-Dec-2023 
 ******************************************
 %NProcShared=4
 Will use up to    4 processors via shared memory.
 %Mem=4GB
 %Chk=H2O_H2O_2646.chk
 ------------------
 #p CCSD(T)/CEP-31G
 ------------------
 1/38=1,172=1/1;
 2/12=2,17=6,18=5,40=1/2;
 3/5=9,6=1,11=9,25=1,30=1/1,2,3;
 4//1;
 5/5=2,38=5/2;
 8/6=4,9=120000,10=1/1,4;
 9/5=7,14=2/13;
 6/7=2,8=2,9=2,10=2/1;
 99/5=1,9=1/99;
 Leave Link    1 at Sun Dec 10 06:27:26 2023, MaxMem=   536870912 cpu:               0.2 elap:               0.1
 (Enter /usr/site/hpc/x86_64/glibc-2.17/broadwell/gaussian/g16_a.03/pgi-16.5/g16/l101.exe)
 ------------
 H2O_H2O_2646
 ------------
 Symbolic Z-matrix:
 Charge =  0 Multiplicity = 1
 O                     0.       -0.00983   0. 
 H                    -0.79957  -0.58097   0. 
 H                     0.79957  -0.58097   0. 
 O                    -0.00964   4.38159   0. 
 H                    -0.41381   5.27722   0. 
 H                    -0.72579   3.70881   0. 
 
 ITRead=  0  0  0  0  0  0
 MicOpt= -1 -1 -1 -1 -1 -1
 NAtoms=      6 NQM=        6 NQMF=       0 NMMI=      0 NMMIF=      0
                NMic=       0 NMicF=      0.
                    Isotopes and Nuclear Properties:
 (Nuclear quadrupole moments (NQMom) in fm**2, nuclear magnetic moments (NMagM)
  in nuclear magnetons)

  Atom         1           2           3           4           5           6
 IAtWgt=          16           1           1          16           1           1
 AtmWgt=  15.9949146   1.0078250   1.0078250  15.9949146   1.0078250   1.0078250
 NucSpn=           0           1           1           0           1           1
 AtZEff=  -0.0000000  -0.0000000  -0.0000000  -0.0000000  -0.0000000  -0.0000000
 NQMom=    0.0000000   0.0000000   0.0000000   0.0000000   0.0000000   0.0000000
 NMagM=    0.0000000   2.7928460   2.7928460   0.0000000   2.7928460   2.7928460
 AtZNuc=   8.0000000   1.0000000   1.0000000   8.0000000   1.0000000   1.0000000
 Leave Link  101 at Sun Dec 10 06:27:26 2023, MaxMem=   536870912 cpu:               0.3 elap:               0.1
 (Enter /usr/site/hpc/x86_64/glibc-2.17/broadwell/gaussian/g16_a.03/pgi-16.5/g16/l202.exe)
                          Input orientation:                          
 ---------------------------------------------------------------------
 Center     Atomic      Atomic             Coordinates (Angstroms)
 Number     Number       Type             X           Y           Z
 ---------------------------------------------------------------------
      1          8           0        0.000000   -0.009833    0.000000
      2          1           0       -0.799571   -0.580965    0.000000
      3          1           0        0.799571   -0.580965    0.000000
      4          8           0       -0.009644    4.381591    0.000000
      5          1           0       -0.413813    5.277221    0.000000
      6          1           0       -0.725791    3.708805    0.000000
 ---------------------------------------------------------------------
                    Distance matrix (angstroms):
                    1          2          3          4          5
     1  O    0.000000
     2  H    0.982601   0.000000
     3  H    0.982601   1.599142   0.000000
     4  O    4.391435   5.025032   5.028100   0.000000
     5  H    5.303224   5.870873   5.982528   0.982601   0.000000
     6  H    3.788805   4.290404   4.552895   0.982602   1.599143
                    6
     6  H    0.000000
 Stoichiometry    H4O2
 Framework group  CS[SG(H4O2)]
 Deg. of freedom     9
 Full point group                 CS      NOp   2
 Largest Abelian subgroup         CS      NOp   2
 Largest concise Abelian subgroup C1      NOp   1
                         Standard orientation:                         
 ---------------------------------------------------------------------
 Center     Atomic      Atomic             Coordinates (Angstroms)
 Number     Number       Type             X           Y           Z
 ---------------------------------------------------------------------
      1          8           0        0.056117   -2.149869    0.000000
      2          1           0       -0.744707   -2.719244    0.000000
      3          1           0        0.854431   -2.722756    0.000000
      4          8           0        0.056117    2.241565    0.000000
      5          1           0       -0.346085    3.138081    0.000000
      6          1           0       -0.661506    1.570354    0.000000
 ---------------------------------------------------------------------
 Rotational constants (GHZ):         265.4841758           2.7822175           2.7533628
 Leave Link  202 at Sun Dec 10 06:27:26 2023, MaxMem=   536870912 cpu:               0.1 elap:               0.0
 (Enter /usr/site/hpc/x86_64/glibc-2.17/broadwell/gaussian/g16_a.03/pgi-16.5/g16/l301.exe)
 Standard basis: CEP-31G (6D, 10F)
 Ernie: Thresh=  0.10000D-02 Tol=  0.10000D-05 Strict=F.
 There are    20 symmetry adapted cartesian basis functions of A'  symmetry.
 There are     4 symmetry adapted cartesian basis functions of A"  symmetry.
 There are    20 symmetry adapted basis functions of A'  symmetry.
 There are     4 symmetry adapted basis functions of A"  symmetry.
    24 basis functions,    48 primitive gaussians,    24 cartesian basis functions
     8 alpha electrons        8 beta electrons
       nuclear repulsion energy        21.0432189049 Hartrees.
 IExCor=    0 DFT=F Ex=HF Corr=None ExCW=0 ScaHFX=  1.000000
 ScaDFX=  1.000000  1.000000  1.000000  1.000000 ScalE2=  1.000000  1.000000
 IRadAn=      5 IRanWt=     -1 IRanGd=            0 ICorTp=0 IEmpDi=  4
 NAtoms=    6 NActive=    6 NUniq=    6 SFac= 1.00D+00 NAtFMM=   60 NAOKFM=F Big=F
 Integral buffers will be    131072 words long.
 Raffenetti 1 integral format.
 Two-electron integral symmetry is turned on.
 Leave Link  301 at Sun Dec 10 06:27:26 2023, MaxMem=   536870912 cpu:               0.2 elap:               0.1
 (Enter /usr/site/hpc/x86_64/glibc-2.17/broadwell/gaussian/g16_a.03/pgi-16.5/g16/l302.exe)
 NPDir=0 NMtPBC=     1 NCelOv=     1 NCel=       1 NClECP=     1 NCelD=      1
         NCelK=      1 NCelE2=     1 NClLst=     1 CellRange=     0.0.
 One-electron integrals computed using PRISM.
 One-electron integral symmetry used in STVInt
   2 Symmetry operations used in ECPInt.
 ECPInt:  NShTT=      78 NPrTT=     318 LenC2=      79 LenP2D=     268.
 LDataN:  DoStor=T MaxTD1= 2 Len=   12
 NBasis=    24 RedAO= T EigKep=  3.81D-02  NBF=    20     4
 NBsUse=    24 1.00D-06 EigRej= -1.00D+00 NBFU=    20     4
 Leave Link  302 at Sun Dec 10 06:27:26 2023, MaxMem=   536870912 cpu:               0.3 elap:               0.1
 (Enter /usr/site/hpc/x86_64/glibc-2.17/broadwell/gaussian/g16_a.03/pgi-16.5/g16/l303.exe)
 DipDrv:  MaxL=1.
 Leave Link  303 at Sun Dec 10 06:27:26 2023, MaxMem=   536870912 cpu:               0.1 elap:               0.0
 (Enter /usr/site/hpc/x86_64/glibc-2.17/broadwell/gaussian/g16_a.03/pgi-16.5/g16/l401.exe)
 ExpMin= 1.78D-01 ExpMax= 1.92D+01 ExpMxC= 1.92D+01 IAcc=3 IRadAn=         5 AccDes= 0.00D+00
 Harris functional with IExCor=  205 and IRadAn=       5 diagonalized for initial guess.
 HarFok:  IExCor=  205 AccDes= 0.00D+00 IRadAn=         5 IDoV= 1 UseB2=F ITyADJ=14
 ICtDFT=  3500011 ScaDFX=  1.000000  1.000000  1.000000  1.000000
 FoFCou: FMM=F IPFlag=           0 FMFlag=      100000 FMFlg1=           0
         NFxFlg=           0 DoJE=T BraDBF=F KetDBF=T FulRan=T
         wScrn=  0.000000 ICntrl=       500 IOpCl=  0 I1Cent=   200000004 NGrid=           0
         NMat0=    1 NMatS0=      1 NMatT0=    0 NMatD0=    1 NMtDS0=    0 NMtDT0=    0
 Petite list used in FoFCou.
 Harris En= -34.4764492569354    
 JPrj=0 DoOrth=F DoCkMO=F.
 Initial guess orbital symmetries:
       Occupied  (A') (A') (A') (A') (A') (A') (A") (A")
       Virtual   (A') (A') (A') (A') (A') (A") (A") (A') (A') (A')
                 (A') (A') (A') (A') (A') (A')
 The electronic state of the initial guess is 1-A'.
 Leave Link  401 at Sun Dec 10 06:27:26 2023, MaxMem=   536870912 cpu:               0.4 elap:               0.1
 (Enter /usr/site/hpc/x86_64/glibc-2.17/broadwell/gaussian/g16_a.03/pgi-16.5/g16/l502.exe)
 Keep R1 ints in memory in symmetry-blocked form, NReq=852141.
 FoFCou: FMM=F IPFlag=           0 FMFlag=           0 FMFlg1=           0
         NFxFlg=           0 DoJE=F BraDBF=F KetDBF=F FulRan=T
         wScrn=  0.000000 ICntrl=       600 IOpCl=  0 I1Cent=           0 NGrid=           0
         NMat0=    1 NMatS0=    300 NMatT0=    0 NMatD0=    1 NMtDS0=    0 NMtDT0=    0
 Petite list used in FoFCou.
 Closed shell SCF:
 Using DIIS extrapolation, IDIIS=  1040.
 NGot=   536870912 LenX=   536840576 LenY=   536839559
 Requested convergence on RMS density matrix=1.00D-08 within 128 cycles.
 Requested convergence on MAX density matrix=1.00D-06.
 Requested convergence on             energy=1.00D-06.
 No special actions if energy rises.

 Cycle   1  Pass 1  IDiag  1:
 E= -33.5578867304529    
 DIIS: error= 6.84D-02 at cycle   1 NSaved=   1.
 NSaved= 1 IEnMin= 1 EnMin= -33.5578867304529     IErMin= 1 ErrMin= 6.84D-02
 ErrMax= 6.84D-02  0.00D+00 EMaxC= 1.00D-01 BMatC= 1.02D-01 BMatP= 1.02D-01
 IDIUse=3 WtCom= 3.16D-01 WtEn= 6.84D-01
 Coeff-Com:  0.100D+01
 Coeff-En:   0.100D+01
 Coeff:      0.100D+01
 Gap=     0.600 Goal=   None    Shift=    0.000
 GapD=    0.600 DampG=2.000 DampE=0.500 DampFc=1.0000 IDamp=-1.
 RMSDP=1.48D-02 MaxDP=1.17D-01              OVMax= 9.93D-02

 Cycle   2  Pass 1  IDiag  1:
 E= -33.6206659150579     Delta-E=       -0.062779184605 Rises=F Damp=F
 DIIS: error= 3.73D-02 at cycle   2 NSaved=   2.
 NSaved= 2 IEnMin= 2 EnMin= -33.6206659150579     IErMin= 2 ErrMin= 3.73D-02
 ErrMax= 3.73D-02  0.00D+00 EMaxC= 1.00D-01 BMatC= 3.82D-02 BMatP= 1.02D-01
 IDIUse=3 WtCom= 6.27D-01 WtEn= 3.73D-01
 Coeff-Com:  0.377D+00 0.623D+00
 Coeff-En:   0.109D+00 0.891D+00
 Coeff:      0.277D+00 0.723D+00
 Gap=     0.692 Goal=   None    Shift=    0.000
 RMSDP=6.41D-03 MaxDP=5.43D-02 DE=-6.28D-02 OVMax= 3.57D-02

 Cycle   3  Pass 1  IDiag  1:
 E= -33.6512270271000     Delta-E=       -0.030561112042 Rises=F Damp=F
 DIIS: error= 7.14D-03 at cycle   3 NSaved=   3.
 NSaved= 3 IEnMin= 3 EnMin= -33.6512270271000     IErMin= 3 ErrMin= 7.14D-03
 ErrMax= 7.14D-03  0.00D+00 EMaxC= 1.00D-01 BMatC= 9.02D-04 BMatP= 3.82D-02
 IDIUse=3 WtCom= 9.29D-01 WtEn= 7.14D-02
 Coeff-Com: -0.113D+00-0.151D-01 0.113D+01
 Coeff-En:   0.000D+00 0.000D+00 0.100D+01
 Coeff:     -0.105D+00-0.140D-01 0.112D+01
 Gap=     0.684 Goal=   None    Shift=    0.000
 RMSDP=1.08D-03 MaxDP=9.26D-03 DE=-3.06D-02 OVMax= 8.05D-03

 Cycle   4  Pass 1  IDiag  1:
 E= -33.6521268176065     Delta-E=       -0.000899790506 Rises=F Damp=F
 DIIS: error= 7.54D-04 at cycle   4 NSaved=   4.
 NSaved= 4 IEnMin= 4 EnMin= -33.6521268176065     IErMin= 4 ErrMin= 7.54D-04
 ErrMax= 7.54D-04  0.00D+00 EMaxC= 1.00D-01 BMatC= 5.91D-06 BMatP= 9.02D-04
 IDIUse=3 WtCom= 9.92D-01 WtEn= 7.54D-03
 Coeff-Com:  0.437D-01-0.179D-01-0.526D+00 0.150D+01
 Coeff-En:   0.000D+00 0.000D+00 0.000D+00 0.100D+01
 Coeff:      0.434D-01-0.178D-01-0.522D+00 0.150D+01
 Gap=     0.686 Goal=   None    Shift=    0.000
 RMSDP=2.35D-04 MaxDP=2.02D-03 DE=-9.00D-04 OVMax= 9.74D-04

 Cycle   5  Pass 1  IDiag  1:
 E= -33.6521399290927     Delta-E=       -0.000013111486 Rises=F Damp=F
 DIIS: error= 5.05D-05 at cycle   5 NSaved=   5.
 NSaved= 5 IEnMin= 5 EnMin= -33.6521399290927     IErMin= 5 ErrMin= 5.05D-05
 ErrMax= 5.05D-05  0.00D+00 EMaxC= 1.00D-01 BMatC= 3.90D-08 BMatP= 5.91D-06
 IDIUse=1 WtCom= 1.00D+00 WtEn= 0.00D+00
 Coeff-Com: -0.708D-02 0.322D-02 0.861D-01-0.294D+00 0.121D+01
 Coeff:     -0.708D-02 0.322D-02 0.861D-01-0.294D+00 0.121D+01
 Gap=     0.686 Goal=   None    Shift=    0.000
 RMSDP=1.60D-05 MaxDP=1.50D-04 DE=-1.31D-05 OVMax= 1.05D-04

 Cycle   6  Pass 1  IDiag  1:
 E= -33.6521400259068     Delta-E=       -0.000000096814 Rises=F Damp=F
 DIIS: error= 1.08D-05 at cycle   6 NSaved=   6.
 NSaved= 6 IEnMin= 6 EnMin= -33.6521400259068     IErMin= 6 ErrMin= 1.08D-05
 ErrMax= 1.08D-05  0.00D+00 EMaxC= 1.00D-01 BMatC= 2.13D-09 BMatP= 3.90D-08
 IDIUse=1 WtCom= 1.00D+00 WtEn= 0.00D+00
 Coeff-Com:  0.127D-02-0.450D-03-0.149D-01 0.570D-01-0.402D+00 0.136D+01
 Coeff:      0.127D-02-0.450D-03-0.149D-01 0.570D-01-0.402D+00 0.136D+01
 Gap=     0.686 Goal=   None    Shift=    0.000
 RMSDP=3.90D-06 MaxDP=3.90D-05 DE=-9.68D-08 OVMax= 3.39D-05

 Cycle   7  Pass 1  IDiag  1:
 E= -33.6521400318133     Delta-E=       -0.000000005907 Rises=F Damp=F
 DIIS: error= 2.23D-06 at cycle   7 NSaved=   7.
 NSaved= 7 IEnMin= 7 EnMin= -33.6521400318133     IErMin= 7 ErrMin= 2.23D-06
 ErrMax= 2.23D-06  0.00D+00 EMaxC= 1.00D-01 BMatC= 1.14D-10 BMatP= 2.13D-09
 IDIUse=1 WtCom= 1.00D+00 WtEn= 0.00D+00
 Coeff-Com:  0.225D-03-0.142D-03-0.285D-02 0.830D-02 0.514D-02-0.236D+00
 Coeff-Com:  0.122D+01
 Coeff:      0.225D-03-0.142D-03-0.285D-02 0.830D-02 0.514D-02-0.236D+00
 Coeff:      0.122D+01
 Gap=     0.686 Goal=   None    Shift=    0.000
 RMSDP=9.97D-07 MaxDP=8.86D-06 DE=-5.91D-09 OVMax= 8.79D-06

 Cycle   8  Pass 1  IDiag  1:
 E= -33.6521400320974     Delta-E=       -0.000000000284 Rises=F Damp=F
 DIIS: error= 6.33D-07 at cycle   8 NSaved=   8.
 NSaved= 8 IEnMin= 8 EnMin= -33.6521400320974     IErMin= 8 ErrMin= 6.33D-07
 ErrMax= 6.33D-07  0.00D+00 EMaxC= 1.00D-01 BMatC= 1.58D-11 BMatP= 1.14D-10
 IDIUse=1 WtCom= 1.00D+00 WtEn= 0.00D+00
 Coeff-Com:  0.145D-05-0.251D-04-0.934D-04-0.640D-03 0.279D-01-0.166D+00
 Coeff-Com:  0.356D+00 0.783D+00
 Coeff:      0.145D-05-0.251D-04-0.934D-04-0.640D-03 0.279D-01-0.166D+00
 Coeff:      0.356D+00 0.783D+00
 Gap=     0.686 Goal=   None    Shift=    0.000
 RMSDP=2.42D-07 MaxDP=1.84D-06 DE=-2.84D-10 OVMax= 1.96D-06

 Cycle   9  Pass 1  IDiag  1:
 E= -33.6521400321189     Delta-E=       -0.000000000022 Rises=F Damp=F
 DIIS: error= 1.77D-07 at cycle   9 NSaved=   9.
 NSaved= 9 IEnMin= 9 EnMin= -33.6521400321189     IErMin= 9 ErrMin= 1.77D-07
 ErrMax= 1.77D-07  0.00D+00 EMaxC= 1.00D-01 BMatC= 7.10D-13 BMatP= 1.58D-11
 IDIUse=1 WtCom= 1.00D+00 WtEn= 0.00D+00
 Coeff-Com:  0.310D-05 0.783D-05 0.956D-06 0.345D-03-0.115D-01 0.718D-01
 Coeff-Com: -0.202D+00-0.221D+00 0.136D+01
 Coeff:      0.310D-05 0.783D-05 0.956D-06 0.345D-03-0.115D-01 0.718D-01
 Coeff:     -0.202D+00-0.221D+00 0.136D+01
 Gap=     0.686 Goal=   None    Shift=    0.000
 RMSDP=1.21D-07 MaxDP=5.72D-07 DE=-2.15D-11 OVMax= 8.39D-07

 Cycle  10  Pass 1  IDiag  1:
 E= -33.6521400321207     Delta-E=       -0.000000000002 Rises=F Damp=F
 DIIS: error= 9.15D-09 at cycle  10 NSaved=  10.
 NSaved=10 IEnMin=10 EnMin= -33.6521400321207     IErMin=10 ErrMin= 9.15D-09
 ErrMax= 9.15D-09  0.00D+00 EMaxC= 1.00D-01 BMatC= 3.22D-15 BMatP= 7.10D-13
 IDIUse=1 WtCom= 1.00D+00 WtEn= 0.00D+00
 Coeff-Com:  0.239D-06-0.189D-05-0.110D-04-0.345D-04 0.226D-02-0.149D-01
 Coeff-Com:  0.431D-01 0.414D-01-0.333D+00 0.126D+01
 Coeff:      0.239D-06-0.189D-05-0.110D-04-0.345D-04 0.226D-02-0.149D-01
 Coeff:      0.431D-01 0.414D-01-0.333D+00 0.126D+01
 Gap=     0.686 Goal=   None    Shift=    0.000
 RMSDP=1.22D-08 MaxDP=5.70D-08 DE=-1.76D-12 OVMax= 7.28D-08

 Cycle  11  Pass 1  IDiag  1:
 E= -33.6521400321208     Delta-E=       -0.000000000000 Rises=F Damp=F
 DIIS: error= 4.77D-10 at cycle  11 NSaved=  11.
 NSaved=11 IEnMin=11 EnMin= -33.6521400321208     IErMin=11 ErrMin= 4.77D-10
 ErrMax= 4.77D-10  0.00D+00 EMaxC= 1.00D-01 BMatC= 8.63D-18 BMatP= 3.22D-15
 IDIUse=1 WtCom= 1.00D+00 WtEn= 0.00D+00
 Coeff-Com: -0.821D-07 0.315D-06 0.226D-05 0.410D-05-0.369D-03 0.246D-02
 Coeff-Com: -0.721D-02-0.679D-02 0.564D-01-0.243D+00 0.120D+01
 Coeff:     -0.821D-07 0.315D-06 0.226D-05 0.410D-05-0.369D-03 0.246D-02
 Coeff:     -0.721D-02-0.679D-02 0.564D-01-0.243D+00 0.120D+01
 Gap=     0.686 Goal=   None    Shift=    0.000
 RMSDP=4.40D-10 MaxDP=1.85D-09 DE=-8.53D-14 OVMax= 2.48D-09

 SCF Done:  E(RHF) =  -33.6521400321     A.U. after   11 cycles
            NFock= 11  Conv=0.44D-09     -V/T= 2.2570
 KE= 2.677185117911D+01 PE=-1.237781413727D+02 EE= 4.231093125662D+01
 Leave Link  502 at Sun Dec 10 06:27:27 2023, MaxMem=   536870912 cpu:               0.3 elap:               0.1
 (Enter /usr/site/hpc/x86_64/glibc-2.17/broadwell/gaussian/g16_a.03/pgi-16.5/g16/l801.exe)
 Windowed orbitals will be sorted by symmetry type.
 Range of M.O.s used for correlation:     1    24
 NBasis=    24 NAE=     8 NBE=     8 NFC=     0 NFV=     0
 NROrb=     24 NOA=     8 NOB=     8 NVA=    16 NVB=    16
 Leave Link  801 at Sun Dec 10 06:27:27 2023, MaxMem=   536870912 cpu:               0.1 elap:               0.0
 (Enter /usr/site/hpc/x86_64/glibc-2.17/broadwell/gaussian/g16_a.03/pgi-16.5/g16/l804.exe)
 Closed-shell transformation, MDV=   536870912 ITran=4 ISComp=2.
 Unit  1 TFree=       1025975 TCopy=        210600.
 Semi-Direct transformation.
 ModeAB=           2 MOrb=             8 LenV=     536742154
 LASXX=        22470 LTotXX=       22470 LenRXX=       22470
 LTotAB=       26208 MaxLAS=       57600 LenRXY=       57600
 NonZer=       61056 LenScr=      524288 LnRSAI=           0
 LnScr1=           0 LExtra=           0 Total=       604358
 MaxDsk=          -1 SrtSym=           F ITran=            4
 DoSDTr:  NPSUse=  4
 JobTyp=0 Pass  1:  I=   1 to   8.
 (rs|ai) integrals will be sorted in core.
 Complete sort for first half transformation.
 First half transformation complete.
 Complete sort for second half transformation.
 Second half transformation complete.
 Spin components of T(2) and E(2):
     alpha-alpha T2 =       0.9075086482D-02 E2=     -0.2590728847D-01
     alpha-beta  T2 =       0.5995840018D-01 E2=     -0.1766456909D+00
     beta-beta   T2 =       0.9075086482D-02 E2=     -0.2590728847D-01
 ANorm=    0.1038320073D+01
 E2 =    -0.2284602679D+00 EUMP2 =    -0.33880600300001D+02
 Leave Link  804 at Sun Dec 10 06:27:27 2023, MaxMem=   536870912 cpu:               0.2 elap:               0.1
 (Enter /usr/site/hpc/x86_64/glibc-2.17/broadwell/gaussian/g16_a.03/pgi-16.5/g16/l913.exe)
 CIDS:  MDV=   536870912.
 IFCWin=0 IBDFC=1 NFBD=     0     0 NFCmp=     0     0 NFFFC=     0     0
 Using DD3R+UMP44R for 1st iteration.
 Using DD4RQ for 2nd and later iterations.
 Keep R2 and R3 ints in memory in symmetry-blocked form, NReq=864749.
 FoFCou: FMM=F IPFlag=           0 FMFlag=           0 FMFlg1=           0
         NFxFlg=           0 DoJE=F BraDBF=F KetDBF=F FulRan=T
         wScrn=  0.000000 ICntrl=       600 IOpCl=  0 I1Cent=           0 NGrid=           0
         NMat0=    1 NMatS0=    300 NMatT0=    0 NMatD0=    1 NMtDS0=    0 NMtDT0=    0
 Petite list used in FoFCou.
 CIDS: In Core Option IDoMem=           1.
 CCSD(T)
 =======
 Iterations=  50 Convergence= 0.100D-06
 Produce multiple copies of IABC intergrals
 Iteration Nr.   1
 **********************
 DD1Dir will call FoFMem   1 times, MxPair=        72
 NAB=    36 NAA=     0 NBB=     0.
 MP4(R+Q)= -0.74006612D-03
 Maximum subspace dimension=  5
 A-vector RMS=  5.7690458D-03 Max=  1.3127645D-02 conv= 1.00D-05.
 RLE energy=       -0.2345111251
 E3=       -0.54303945D-02        EUMP3=      -0.33886030695D+02
 E4(DQ)=   -0.59126204D-02        UMP4(DQ)=   -0.33891943315D+02
 E4(SDQ)=  -0.79452886D-02        UMP4(SDQ)=  -0.33893975983D+02
 VARIATIONAL ENERGIES WITH THE FIRST-ORDER WAVEFUNCTION:
 DE(Corr)= -0.23435534     E(Corr)=     -33.886495375    
 NORM(A)=   0.10417558D+01
 Iteration Nr.   2
 **********************
 DD1Dir will call FoFMem   1 times, MxPair=        72
 NAB=    36 NAA=     0 NBB=     0.
 A-vector RMS=  9.8171298D-04 Max=  2.6574762D-03 conv= 1.00D-05.
 RLE energy=       -0.2422889960
 DE(Corr)= -0.24034731     E(CORR)=     -33.892487339     Delta=-5.99D-03
 NORM(A)=   0.10455517D+01
 Iteration Nr.   3
 **********************
 DD1Dir will call FoFMem   1 times, MxPair=        72
 NAB=    36 NAA=     0 NBB=     0.
 A-vector RMS=  3.8431169D-04 Max=  1.0826546D-03 conv= 1.00D-05.
 RLE energy=       -0.2428402015
 DE(Corr)= -0.24239160     E(CORR)=     -33.894531632     Delta=-2.04D-03
 NORM(A)=   0.10461140D+01
 Iteration Nr.   4
 **********************
 DD1Dir will call FoFMem   1 times, MxPair=        72
 NAB=    36 NAA=     0 NBB=     0.
 A-vector RMS=  9.3488655D-05 Max=  2.5674939D-04 conv= 1.00D-05.
 RLE energy=       -0.2428873447
 DE(Corr)= -0.24285132     E(CORR)=     -33.894991353     Delta=-4.60D-04
 NORM(A)=   0.10461882D+01
 Iteration Nr.   5
 **********************
 DD1Dir will call FoFMem   1 times, MxPair=        72
 NAB=    36 NAA=     0 NBB=     0.
 A-vector RMS=  4.1598021D-05 Max=  1.4156579D-04 conv= 1.00D-05.
 RLE energy=       -0.2428857043
 DE(Corr)= -0.24288357     E(CORR)=     -33.895023601     Delta=-3.22D-05
 NORM(A)=   0.10461988D+01
 Iteration Nr.   6
 **********************
 DD1Dir will call FoFMem   1 times, MxPair=        72
 NAB=    36 NAA=     0 NBB=     0.
 A-vector RMS=  1.2196019D-05 Max=  4.4692341D-05 conv= 1.00D-05.
 RLE energy=       -0.2428844413
 DE(Corr)= -0.24288579     E(CORR)=     -33.895025822     Delta=-2.22D-06
 NORM(A)=   0.10462021D+01
 Iteration Nr.   7
 **********************
 DD1Dir will call FoFMem   1 times, MxPair=        72
 NAB=    36 NAA=     0 NBB=     0.
 A-vector RMS=  3.7783849D-06 Max=  1.1724757D-05 conv= 1.00D-05.
 RLE energy=       -0.2428854566
 DE(Corr)= -0.24288518     E(CORR)=     -33.895025217     Delta= 6.05D-07
 NORM(A)=   0.10462034D+01
 Iteration Nr.   8
 **********************
 DD1Dir will call FoFMem   1 times, MxPair=        72
 NAB=    36 NAA=     0 NBB=     0.
 A-vector RMS=  1.0727866D-06 Max=  4.6786944D-06 conv= 1.00D-05.
 RLE energy=       -0.2428850055
 DE(Corr)= -0.24288512     E(CORR)=     -33.895025153     Delta= 6.36D-08
 NORM(A)=   0.10462036D+01
 CI/CC converged in    8 iterations to DelEn= 6.36D-08 Conv= 1.00D-07 ErrA1= 1.07D-06 Conv= 1.00D-05
 Wavefunction amplitudes converged. E(Corr)=     -33.895025153    
 Largest amplitude= 5.76D-02
 IPart=  3 IA=    2   12.50% done.
 IPart=  2 IA=    3   24.17% done.
 IPart=  4 IA=    4   35.00% done.
 IPart=  4 IA=    5   45.00% done.
 IPart=  2 IA=    6   54.17% done.
 IPart=  3 IA=    7   62.50% done.
 IPart=  1 IA=    8   70.00% done.
 IPart=  2 IA=   10   82.50% done.
 IPart=  1 IA=   12   91.67% done.
 Time for triples=        0.25 seconds.
 T4(CCSD)= -0.30946948D-02
 T5(CCSD)=  0.52798946D-03
 CCSD(T)= -0.33897591859D+02
 Discarding MO integrals.
 Leave Link  913 at Sun Dec 10 06:27:27 2023, MaxMem=   536870912 cpu:               0.8 elap:               0.2
 (Enter /usr/site/hpc/x86_64/glibc-2.17/broadwell/gaussian/g16_a.03/pgi-16.5/g16/l601.exe)
 Copying SCF densities to generalized density rwf, IOpCl= 0 IROHF=0.

 **********************************************************************

            Population analysis using the SCF density.

 **********************************************************************

 Orbital symmetries:
       Occupied  (A') (A') (A') (A') (A') (A') (A") (A")
       Virtual   (A') (A') (A') (A') (A") (A") (A') (A') (A') (A')
                 (A') (A') (A') (A') (A') (A')
 The electronic state is 1-A'.
 Alpha  occ. eigenvalues --   -1.35665  -1.34176  -0.71301  -0.69762  -0.55422
 Alpha  occ. eigenvalues --   -0.53899  -0.50241  -0.48754
 Alpha virt. eigenvalues --    0.19872   0.21860   0.30328   0.31907   0.80297
 Alpha virt. eigenvalues --    0.81786   0.82030   0.85358   0.86361   0.89214
 Alpha virt. eigenvalues --    1.17248   1.18864   1.21652   1.23625   2.57215
 Alpha virt. eigenvalues --    2.59139
          Condensed to atoms (all electrons):
               1          2          3          4          5          6
     1  O    6.214824   0.261537   0.265732  -0.000014   0.000001   0.000196
     2  H    0.261537   0.394514  -0.023519   0.000001  -0.000000  -0.000005
     3  H    0.265732  -0.023519   0.382776   0.000000  -0.000000  -0.000003
     4  O   -0.000014   0.000001   0.000000   6.215715   0.259514   0.265772
     5  H    0.000001  -0.000000  -0.000000   0.259514   0.402107  -0.023598
     6  H    0.000196  -0.000005  -0.000003   0.265772  -0.023598   0.378834
 Mulliken charges:
               1
     1  O   -0.742276
     2  H    0.367472
     3  H    0.375013
     4  O   -0.740989
     5  H    0.361976
     6  H    0.378803
 Sum of Mulliken charges =  -0.00000
 Mulliken charges with hydrogens summed into heavy atoms:
               1
     1  O    0.000209
     4  O   -0.000209
 Electronic spatial extent (au):  <R**2>=            326.2911
 Charge=             -0.0000 electrons
 Dipole moment (field-independent basis, Debye):
    X=             -2.5724    Y=             -2.1935    Z=              0.0000  Tot=              3.3807
 Quadrupole moment (field-independent basis, Debye-Ang):
   XX=            -10.0743   YY=              3.4961   ZZ=            -14.9903
   XY=             -5.6406   XZ=              0.0000   YZ=              0.0000
 Traceless Quadrupole moment (field-independent basis, Debye-Ang):
   XX=             -2.8848   YY=             10.6856   ZZ=             -7.8008
   XY=             -5.6406   XZ=              0.0000   YZ=              0.0000
 Octapole moment (field-independent basis, Debye-Ang**2):
  XXX=             -1.3520  YYY=            -18.7107  ZZZ=              0.0000  XYY=            -11.7361
  XXY=             -6.4087  XXZ=              0.0000  XZZ=             -0.4813  YZZ=             -0.4240
  YYZ=              0.0000  XYZ=              0.0000
 Hexadecapole moment (field-independent basis, Debye-Ang**3):
 XXXX=            -12.6946 YYYY=           -172.2545 ZZZZ=            -12.2242 XXXY=             -0.1358
 XXXZ=              0.0000 YYYX=            -30.8367 YYYZ=              0.0000 ZZZX=              0.0000
 ZZZY=              0.0000 XXYY=            -50.2514 XXZZ=             -4.5371 YYZZ=            -78.7595
 XXYZ=              0.0000 YYXZ=              0.0000 ZZXY=              0.7282
 N-N= 2.104321890486D+01 E-N=-1.237781413752D+02  KE= 2.677185117911D+01
 Symmetry A'   KE= 1.788980128962D+01
 Symmetry A"   KE= 8.882049889489D+00
 Leave Link  601 at Sun Dec 10 06:27:27 2023, MaxMem=   536870912 cpu:               0.1 elap:               0.0
 (Enter /usr/site/hpc/x86_64/glibc-2.17/broadwell/gaussian/g16_a.03/pgi-16.5/g16/l9999.exe)
 1\1\GINC-N045\SP\RCCSD(T)-FC\CEP-31G\H4O2\ROOT\10-Dec-2023\0\\#p CCSD(
 T)/CEP-31G\\H2O_H2O_2646\\0,1\O,0,0.,-0.009833,0.\H,0,-0.799571,-0.580
 965,0.\H,0,0.799571,-0.580965,0.\O,0,-0.009644,4.381591,0.\H,0,-0.4138
 13,5.277221,0.\H,0,-0.725791,3.708805,0.\\Version=ES64L-G16RevA.03\Sta
 te=1-A'\HF=-33.65214\MP2=-33.8806003\MP3=-33.8860307\MP4D=-33.8912032\
 MP4DQ=-33.8919433\MP4SDQ=-33.893976\CCSD=-33.8950252\CCSD(T)=-33.89759
 19\RMSD=4.401e-10\PG=CS [SG(H4O2)]\\@


 YOU CAN WIPE THE SLATE CLEAN, BUT YOU'LL STILL
 HAVE TO EAT A LITTLE CHALK DUST.
 Job cpu time:       0 days  0 hours  0 minutes  3.4 seconds.
 Elapsed time:       0 days  0 hours  0 minutes  1.1 seconds.
 File lengths (MBytes):  RWF=     72 Int=      0 D2E=      0 Chk=      8 Scr=      8
 Normal termination of Gaussian 16 at Sun Dec 10 06:27:27 2023.
