 Entering Gaussian System, Link 0=g16
 Input=H2O_H2O_2325.com
 Output=H2O_H2O_2325.log
 Initial command:
 /usr/site/hpc/x86_64/glibc-2.17/broadwell/gaussian/g16_a.03/pgi-16.5/g16/l1.exe "/gpfs/gpfs1/scratch/c7441090/OO Coord/Gau-1355543.inp" -scrdir="/gpfs/gpfs1/scratch/c7441090/OO Coord/"
 Entering Link 1 = /usr/site/hpc/x86_64/glibc-2.17/broadwell/gaussian/g16_a.03/pgi-16.5/g16/l1.exe PID=   1355544.
  
 Copyright (c) 1988,1990,1992,1993,1995,1998,2003,2009,2016,
            Gaussian, Inc.  All Rights Reserved.
  
 This is part of the Gaussian(R) 16 program.  It is based on
 the Gaussian(R) 09 system (copyright 2009, Gaussian, Inc.),
 the Gaussian(R) 03 system (copyright 2003, Gaussian, Inc.),
 the Gaussian(R) 98 system (copyright 1998, Gaussian, Inc.),
 the Gaussian(R) 94 system (copyright 1995, Gaussian, Inc.),
 the Gaussian 92(TM) system (copyright 1992, Gaussian, Inc.),
 the Gaussian 90(TM) system (copyright 1990, Gaussian, Inc.),
 the Gaussian 88(TM) system (copyright 1988, Gaussian, Inc.),
 the Gaussian 86(TM) system (copyright 1986, Carnegie Mellon
 University), and the Gaussian 82(TM) system (copyright 1983,
 Carnegie Mellon University). Gaussian is a federally registered
 trademark of Gaussian, Inc.
  
 This software contains proprietary and confidential information,
 including trade secrets, belonging to Gaussian, Inc.
  
 This software is provided under written license and may be
 used, copied, transmitted, or stored only in accord with that
 written license.
  
 The following legend is applicable only to US Government
 contracts under FAR:
  
                    RESTRICTED RIGHTS LEGEND
  
 Use, reproduction and disclosure by the US Government is
 subject to restrictions as set forth in subparagraphs (a)
 and (c) of the Commercial Computer Software - Restricted
 Rights clause in FAR 52.227-19.
  
 Gaussian, Inc.
 340 Quinnipiac St., Bldg. 40, Wallingford CT 06492
  
  
 ---------------------------------------------------------------
 Warning -- This program may not be used in any manner that
 competes with the business of Gaussian, Inc. or will provide
 assistance to any competitor of Gaussian, Inc.  The licensee
 of this program is prohibited from giving any competitor of
 Gaussian, Inc. access to this program.  By using this program,
 the user acknowledges that Gaussian, Inc. is engaged in the
 business of creating and licensing software in the field of
 computational chemistry and represents and warrants to the
 licensee that it is not a competitor of Gaussian, Inc. and that
 it will not use this program in any manner prohibited above.
 ---------------------------------------------------------------
  

 Cite this work as:
 Gaussian 16, Revision A.03,
 M. J. Frisch, G. W. Trucks, H. B. Schlegel, G. E. Scuseria, 
 M. A. Robb, J. R. Cheeseman, G. Scalmani, V. Barone, 
 G. A. Petersson, H. Nakatsuji, X. Li, M. Caricato, A. V. Marenich, 
 J. Bloino, B. G. Janesko, R. Gomperts, B. Mennucci, H. P. Hratchian, 
 J. V. Ortiz, A. F. Izmaylov, J. L. Sonnenberg, D. Williams-Young, 
 F. Ding, F. Lipparini, F. Egidi, J. Goings, B. Peng, A. Petrone, 
 T. Henderson, D. Ranasinghe, V. G. Zakrzewski, J. Gao, N. Rega, 
 G. Zheng, W. Liang, M. Hada, M. Ehara, K. Toyota, R. Fukuda, 
 J. Hasegawa, M. Ishida, T. Nakajima, Y. Honda, O. Kitao, H. Nakai, 
 T. Vreven, K. Throssell, J. A. Montgomery, Jr., J. E. Peralta, 
 F. Ogliaro, M. J. Bearpark, J. J. Heyd, E. N. Brothers, K. N. Kudin, 
 V. N. Staroverov, T. A. Keith, R. Kobayashi, J. Normand, 
 K. Raghavachari, A. P. Rendell, J. C. Burant, S. S. Iyengar, 
 J. Tomasi, M. Cossi, J. M. Millam, M. Klene, C. Adamo, R. Cammi, 
 J. W. Ochterski, R. L. Martin, K. Morokuma, O. Farkas, 
 J. B. Foresman, and D. J. Fox, Gaussian, Inc., Wallingford CT, 2016.
 
 ******************************************
 Gaussian 16:  ES64L-G16RevA.03 25-Dec-2016
                10-Dec-2023 
 ******************************************
 %NProcShared=4
 Will use up to    4 processors via shared memory.
 %Mem=4GB
 %Chk=H2O_H2O_2325.chk
 ------------------
 #p CCSD(T)/CEP-31G
 ------------------
 1/38=1,172=1/1;
 2/12=2,17=6,18=5,40=1/2;
 3/5=9,6=1,11=9,25=1,30=1/1,2,3;
 4//1;
 5/5=2,38=5/2;
 8/6=4,9=120000,10=1/1,4;
 9/5=7,14=2/13;
 6/7=2,8=2,9=2,10=2/1;
 99/5=1,9=1/99;
 Leave Link    1 at Sun Dec 10 07:09:13 2023, MaxMem=   536870912 cpu:               0.2 elap:               0.1
 (Enter /usr/site/hpc/x86_64/glibc-2.17/broadwell/gaussian/g16_a.03/pgi-16.5/g16/l101.exe)
 ------------
 H2O_H2O_2325
 ------------
 Symbolic Z-matrix:
 Charge =  0 Multiplicity = 1
 O                     0.       -0.00983   0. 
 H                    -0.79957  -0.58097   0. 
 H                     0.79957  -0.58097   0. 
 O                     0.        4.0704    0. 
 H                     0.79957   4.64154   0. 
 H                    -0.79957   4.64154   0. 
 
 ITRead=  0  0  0  0  0  0
 MicOpt= -1 -1 -1 -1 -1 -1
 NAtoms=      6 NQM=        6 NQMF=       0 NMMI=      0 NMMIF=      0
                NMic=       0 NMicF=      0.
                    Isotopes and Nuclear Properties:
 (Nuclear quadrupole moments (NQMom) in fm**2, nuclear magnetic moments (NMagM)
  in nuclear magnetons)

  Atom         1           2           3           4           5           6
 IAtWgt=          16           1           1          16           1           1
 AtmWgt=  15.9949146   1.0078250   1.0078250  15.9949146   1.0078250   1.0078250
 NucSpn=           0           1           1           0           1           1
 AtZEff=  -0.0000000  -0.0000000  -0.0000000  -0.0000000  -0.0000000  -0.0000000
 NQMom=    0.0000000   0.0000000   0.0000000   0.0000000   0.0000000   0.0000000
 NMagM=    0.0000000   2.7928460   2.7928460   0.0000000   2.7928460   2.7928460
 AtZNuc=   8.0000000   1.0000000   1.0000000   8.0000000   1.0000000   1.0000000
 Leave Link  101 at Sun Dec 10 07:09:13 2023, MaxMem=   536870912 cpu:               0.3 elap:               0.1
 (Enter /usr/site/hpc/x86_64/glibc-2.17/broadwell/gaussian/g16_a.03/pgi-16.5/g16/l202.exe)
                          Input orientation:                          
 ---------------------------------------------------------------------
 Center     Atomic      Atomic             Coordinates (Angstroms)
 Number     Number       Type             X           Y           Z
 ---------------------------------------------------------------------
      1          8           0        0.000000   -0.009833    0.000000
      2          1           0       -0.799571   -0.580965    0.000000
      3          1           0        0.799571   -0.580965    0.000000
      4          8           0        0.000000    4.070404    0.000000
      5          1           0        0.799571    4.641536    0.000000
      6          1           0       -0.799571    4.641536    0.000000
 ---------------------------------------------------------------------
                    Distance matrix (angstroms):
                    1          2          3          4          5
     1  O    0.000000
     2  H    0.982601   0.000000
     3  H    0.982601   1.599142   0.000000
     4  O    4.080237   4.719592   4.719592   0.000000
     5  H    4.719592   5.461847   5.222501   0.982601   0.000000
     6  H    4.719592   5.222501   5.461847   0.982601   1.599142
                    6
     6  H    0.000000
 Stoichiometry    H4O2
 Framework group  D2H[C2"(O.O),SG(H4)]
 Deg. of freedom     3
 Full point group                 D2H     NOp   8
 Largest Abelian subgroup         D2H     NOp   8
 Largest concise Abelian subgroup D2      NOp   4
                         Standard orientation:                         
 ---------------------------------------------------------------------
 Center     Atomic      Atomic             Coordinates (Angstroms)
 Number     Number       Type             X           Y           Z
 ---------------------------------------------------------------------
      1          8           0        0.000000   -0.000000    2.040119
      2          1           0        0.000000    0.799571    2.611251
      3          1           0       -0.000000   -0.799571    2.611251
      4          8           0        0.000000   -0.000000   -2.040119
      5          1           0       -0.000000   -0.799571   -2.611251
      6          1           0        0.000000    0.799571   -2.611251
 ---------------------------------------------------------------------
 Rotational constants (GHZ):         196.0911516           3.1461858           3.0965040
 Leave Link  202 at Sun Dec 10 07:09:14 2023, MaxMem=   536870912 cpu:               0.1 elap:               0.0
 (Enter /usr/site/hpc/x86_64/glibc-2.17/broadwell/gaussian/g16_a.03/pgi-16.5/g16/l301.exe)
 Standard basis: CEP-31G (6D, 10F)
 Ernie: Thresh=  0.10000D-02 Tol=  0.10000D-05 Strict=F.
 There are     6 symmetry adapted cartesian basis functions of AG  symmetry.
 There are     0 symmetry adapted cartesian basis functions of B1G symmetry.
 There are     2 symmetry adapted cartesian basis functions of B2G symmetry.
 There are     4 symmetry adapted cartesian basis functions of B3G symmetry.
 There are     0 symmetry adapted cartesian basis functions of AU  symmetry.
 There are     6 symmetry adapted cartesian basis functions of B1U symmetry.
 There are     4 symmetry adapted cartesian basis functions of B2U symmetry.
 There are     2 symmetry adapted cartesian basis functions of B3U symmetry.
 There are     6 symmetry adapted basis functions of AG  symmetry.
 There are     0 symmetry adapted basis functions of B1G symmetry.
 There are     2 symmetry adapted basis functions of B2G symmetry.
 There are     4 symmetry adapted basis functions of B3G symmetry.
 There are     0 symmetry adapted basis functions of AU  symmetry.
 There are     6 symmetry adapted basis functions of B1U symmetry.
 There are     4 symmetry adapted basis functions of B2U symmetry.
 There are     2 symmetry adapted basis functions of B3U symmetry.
    24 basis functions,    48 primitive gaussians,    24 cartesian basis functions
     8 alpha electrons        8 beta electrons
       nuclear repulsion energy        21.3432872537 Hartrees.
 IExCor=    0 DFT=F Ex=HF Corr=None ExCW=0 ScaHFX=  1.000000
 ScaDFX=  1.000000  1.000000  1.000000  1.000000 ScalE2=  1.000000  1.000000
 IRadAn=      5 IRanWt=     -1 IRanGd=            0 ICorTp=0 IEmpDi=  4
 NAtoms=    6 NActive=    6 NUniq=    2 SFac= 4.00D+00 NAtFMM=   60 NAOKFM=F Big=F
 Integral buffers will be    131072 words long.
 Raffenetti 1 integral format.
 Two-electron integral symmetry is turned on.
 Leave Link  301 at Sun Dec 10 07:09:14 2023, MaxMem=   536870912 cpu:               0.2 elap:               0.1
 (Enter /usr/site/hpc/x86_64/glibc-2.17/broadwell/gaussian/g16_a.03/pgi-16.5/g16/l302.exe)
 NPDir=0 NMtPBC=     1 NCelOv=     1 NCel=       1 NClECP=     1 NCelD=      1
         NCelK=      1 NCelE2=     1 NClLst=     1 CellRange=     0.0.
 One-electron integrals computed using PRISM.
 One-electron integral symmetry used in STVInt
   8 Symmetry operations used in ECPInt.
 ECPInt:  NShTT=      78 NPrTT=     318 LenC2=      79 LenP2D=     268.
 LDataN:  DoStor=T MaxTD1= 2 Len=   12
 NBasis=    24 RedAO= T EigKep=  3.84D-02  NBF=     6     0     2     4     0     6     4     2
 NBsUse=    24 1.00D-06 EigRej= -1.00D+00 NBFU=     6     0     2     4     0     6     4     2
 Leave Link  302 at Sun Dec 10 07:09:14 2023, MaxMem=   536870912 cpu:               0.3 elap:               0.1
 (Enter /usr/site/hpc/x86_64/glibc-2.17/broadwell/gaussian/g16_a.03/pgi-16.5/g16/l303.exe)
 DipDrv:  MaxL=1.
 Leave Link  303 at Sun Dec 10 07:09:14 2023, MaxMem=   536870912 cpu:               0.1 elap:               0.0
 (Enter /usr/site/hpc/x86_64/glibc-2.17/broadwell/gaussian/g16_a.03/pgi-16.5/g16/l401.exe)
 ExpMin= 1.78D-01 ExpMax= 1.92D+01 ExpMxC= 1.92D+01 IAcc=3 IRadAn=         5 AccDes= 0.00D+00
 Harris functional with IExCor=  205 and IRadAn=       5 diagonalized for initial guess.
 HarFok:  IExCor=  205 AccDes= 0.00D+00 IRadAn=         5 IDoV= 1 UseB2=F ITyADJ=14
 ICtDFT=  3500011 ScaDFX=  1.000000  1.000000  1.000000  1.000000
 FoFCou: FMM=F IPFlag=           0 FMFlag=      100000 FMFlg1=           0
         NFxFlg=           0 DoJE=T BraDBF=F KetDBF=T FulRan=T
         wScrn=  0.000000 ICntrl=       500 IOpCl=  0 I1Cent=   200000004 NGrid=           0
         NMat0=    1 NMatS0=      1 NMatT0=    0 NMatD0=    1 NMtDS0=    0 NMtDT0=    0
 Petite list used in FoFCou.
 Harris En= -34.4765228982956    
 JPrj=0 DoOrth=F DoCkMO=F.
 Initial guess orbital symmetries:
       Occupied  (AG) (B1U) (B2U) (B3G) (AG) (B1U) (B3U) (B2G)
       Virtual   (AG) (B1U) (B2U) (B3G) (AG) (B3U) (B2G) (B1U)
                 (B2U) (B3G) (AG) (B1U) (B2U) (B3G) (B1U) (AG)
 The electronic state of the initial guess is 1-AG.
 Leave Link  401 at Sun Dec 10 07:09:14 2023, MaxMem=   536870912 cpu:               0.4 elap:               0.1
 (Enter /usr/site/hpc/x86_64/glibc-2.17/broadwell/gaussian/g16_a.03/pgi-16.5/g16/l502.exe)
 Keep R1 ints in memory in symmetry-blocked form, NReq=853317.
 FoFCou: FMM=F IPFlag=           0 FMFlag=           0 FMFlg1=           0
         NFxFlg=           0 DoJE=F BraDBF=F KetDBF=F FulRan=T
         wScrn=  0.000000 ICntrl=       600 IOpCl=  0 I1Cent=           0 NGrid=           0
         NMat0=    1 NMatS0=    300 NMatT0=    0 NMatD0=    1 NMtDS0=    0 NMtDT0=    0
 Petite list used in FoFCou.
 Closed shell SCF:
 Using DIIS extrapolation, IDIIS=  1040.
 NGot=   536870912 LenX=   536859760 LenY=   536858743
 Requested convergence on RMS density matrix=1.00D-08 within 128 cycles.
 Requested convergence on MAX density matrix=1.00D-06.
 Requested convergence on             energy=1.00D-06.
 No special actions if energy rises.

 Cycle   1  Pass 1  IDiag  1:
 E= -33.5508256150680    
 DIIS: error= 7.00D-02 at cycle   1 NSaved=   1.
 NSaved= 1 IEnMin= 1 EnMin= -33.5508256150680     IErMin= 1 ErrMin= 7.00D-02
 ErrMax= 7.00D-02  0.00D+00 EMaxC= 1.00D-01 BMatC= 1.03D-01 BMatP= 1.03D-01
 IDIUse=3 WtCom= 3.00D-01 WtEn= 7.00D-01
 Coeff-Com:  0.100D+01
 Coeff-En:   0.100D+01
 Coeff:      0.100D+01
 Gap=     0.598 Goal=   None    Shift=    0.000
 GapD=    0.598 DampG=2.000 DampE=0.500 DampFc=1.0000 IDamp=-1.
 RMSDP=1.51D-02 MaxDP=1.18D-01              OVMax= 1.02D-01

 Cycle   2  Pass 1  IDiag  1:
 E= -33.6151623586307     Delta-E=       -0.064336743563 Rises=F Damp=F
 DIIS: error= 3.78D-02 at cycle   2 NSaved=   2.
 NSaved= 2 IEnMin= 2 EnMin= -33.6151623586307     IErMin= 2 ErrMin= 3.78D-02
 ErrMax= 3.78D-02  0.00D+00 EMaxC= 1.00D-01 BMatC= 3.92D-02 BMatP= 1.03D-01
 IDIUse=3 WtCom= 6.22D-01 WtEn= 3.78D-01
 Coeff-Com:  0.378D+00 0.622D+00
 Coeff-En:   0.106D+00 0.894D+00
 Coeff:      0.275D+00 0.725D+00
 Gap=     0.703 Goal=   None    Shift=    0.000
 RMSDP=6.51D-03 MaxDP=5.51D-02 DE=-6.43D-02 OVMax= 3.70D-02

 Cycle   3  Pass 1  IDiag  1:
 E= -33.6463998275702     Delta-E=       -0.031237468939 Rises=F Damp=F
 DIIS: error= 7.48D-03 at cycle   3 NSaved=   3.
 NSaved= 3 IEnMin= 3 EnMin= -33.6463998275702     IErMin= 3 ErrMin= 7.48D-03
 ErrMax= 7.48D-03  0.00D+00 EMaxC= 1.00D-01 BMatC= 9.72D-04 BMatP= 3.92D-02
 IDIUse=3 WtCom= 9.25D-01 WtEn= 7.48D-02
 Coeff-Com: -0.115D+00-0.124D-01 0.113D+01
 Coeff-En:   0.000D+00 0.000D+00 0.100D+01
 Coeff:     -0.106D+00-0.115D-01 0.112D+01
 Gap=     0.696 Goal=   None    Shift=    0.000
 RMSDP=1.16D-03 MaxDP=9.65D-03 DE=-3.12D-02 OVMax= 8.49D-03

 Cycle   4  Pass 1  IDiag  1:
 E= -33.6473782126593     Delta-E=       -0.000978385089 Rises=F Damp=F
 DIIS: error= 8.01D-04 at cycle   4 NSaved=   4.
 NSaved= 4 IEnMin= 4 EnMin= -33.6473782126593     IErMin= 4 ErrMin= 8.01D-04
 ErrMax= 8.01D-04  0.00D+00 EMaxC= 1.00D-01 BMatC= 6.64D-06 BMatP= 9.72D-04
 IDIUse=3 WtCom= 9.92D-01 WtEn= 8.01D-03
 Coeff-Com:  0.431D-01-0.194D-01-0.508D+00 0.148D+01
 Coeff-En:   0.000D+00 0.000D+00 0.000D+00 0.100D+01
 Coeff:      0.427D-01-0.192D-01-0.504D+00 0.148D+01
 Gap=     0.697 Goal=   None    Shift=    0.000
 RMSDP=2.43D-04 MaxDP=2.10D-03 DE=-9.78D-04 OVMax= 9.89D-04

 Cycle   5  Pass 1  IDiag  1:
 E= -33.6473924595707     Delta-E=       -0.000014246911 Rises=F Damp=F
 DIIS: error= 5.74D-05 at cycle   5 NSaved=   5.
 NSaved= 5 IEnMin= 5 EnMin= -33.6473924595707     IErMin= 5 ErrMin= 5.74D-05
 ErrMax= 5.74D-05  0.00D+00 EMaxC= 1.00D-01 BMatC= 5.07D-08 BMatP= 6.64D-06
 IDIUse=1 WtCom= 1.00D+00 WtEn= 0.00D+00
 Coeff-Com: -0.738D-02 0.366D-02 0.872D-01-0.310D+00 0.123D+01
 Coeff:     -0.738D-02 0.366D-02 0.872D-01-0.310D+00 0.123D+01
 Gap=     0.697 Goal=   None    Shift=    0.000
 RMSDP=1.82D-05 MaxDP=1.74D-04 DE=-1.42D-05 OVMax= 1.22D-04

 Cycle   6  Pass 1  IDiag  1:
 E= -33.6473925876945     Delta-E=       -0.000000128124 Rises=F Damp=F
 DIIS: error= 1.22D-05 at cycle   6 NSaved=   6.
 NSaved= 6 IEnMin= 6 EnMin= -33.6473925876945     IErMin= 6 ErrMin= 1.22D-05
 ErrMax= 1.22D-05  0.00D+00 EMaxC= 1.00D-01 BMatC= 2.70D-09 BMatP= 5.07D-08
 IDIUse=1 WtCom= 1.00D+00 WtEn= 0.00D+00
 Coeff-Com:  0.132D-02-0.500D-03-0.148D-01 0.608D-01-0.420D+00 0.137D+01
 Coeff:      0.132D-02-0.500D-03-0.148D-01 0.608D-01-0.420D+00 0.137D+01
 Gap=     0.697 Goal=   None    Shift=    0.000
 RMSDP=4.36D-06 MaxDP=4.40D-05 DE=-1.28D-07 OVMax= 3.79D-05

 Cycle   7  Pass 1  IDiag  1:
 E= -33.6473925951308     Delta-E=       -0.000000007436 Rises=F Damp=F
 DIIS: error= 2.29D-06 at cycle   7 NSaved=   7.
 NSaved= 7 IEnMin= 7 EnMin= -33.6473925951308     IErMin= 7 ErrMin= 2.29D-06
 ErrMax= 2.29D-06  0.00D+00 EMaxC= 1.00D-01 BMatC= 1.10D-10 BMatP= 2.70D-09
 IDIUse=1 WtCom= 1.00D+00 WtEn= 0.00D+00
 Coeff-Com:  0.328D-04-0.898D-04-0.704D-03-0.916D-03 0.750D-01-0.445D+00
 Coeff-Com:  0.137D+01
 Coeff:      0.328D-04-0.898D-04-0.704D-03-0.916D-03 0.750D-01-0.445D+00
 Coeff:      0.137D+01
 Gap=     0.697 Goal=   None    Shift=    0.000
 RMSDP=1.20D-06 MaxDP=8.33D-06 DE=-7.44D-09 OVMax= 8.91D-06

 Cycle   8  Pass 1  IDiag  1:
 E= -33.6473925954535     Delta-E=       -0.000000000323 Rises=F Damp=F
 DIIS: error= 3.92D-07 at cycle   8 NSaved=   8.
 NSaved= 8 IEnMin= 8 EnMin= -33.6473925954535     IErMin= 8 ErrMin= 3.92D-07
 ErrMax= 3.92D-07  0.00D+00 EMaxC= 1.00D-01 BMatC= 3.22D-12 BMatP= 1.10D-10
 IDIUse=1 WtCom= 1.00D+00 WtEn= 0.00D+00
 Coeff-Com:  0.488D-05 0.258D-04 0.863D-04 0.989D-03-0.322D-01 0.186D+00
 Coeff-Com: -0.638D+00 0.148D+01
 Coeff:      0.488D-05 0.258D-04 0.863D-04 0.989D-03-0.322D-01 0.186D+00
 Coeff:     -0.638D+00 0.148D+01
 Gap=     0.697 Goal=   None    Shift=    0.000
 RMSDP=2.76D-07 MaxDP=1.27D-06 DE=-3.23D-10 OVMax= 1.86D-06

 Cycle   9  Pass 1  IDiag  1:
 E= -33.6473925954628     Delta-E=       -0.000000000009 Rises=F Damp=F
 DIIS: error= 2.04D-08 at cycle   9 NSaved=   9.
 NSaved= 9 IEnMin= 9 EnMin= -33.6473925954628     IErMin= 9 ErrMin= 2.04D-08
 ErrMax= 2.04D-08  0.00D+00 EMaxC= 1.00D-01 BMatC= 1.20D-14 BMatP= 3.22D-12
 IDIUse=1 WtCom= 1.00D+00 WtEn= 0.00D+00
 Coeff-Com:  0.594D-06-0.613D-05-0.385D-04-0.149D-03 0.687D-02-0.409D-01
 Coeff-Com:  0.142D+00-0.377D+00 0.127D+01
 Coeff:      0.594D-06-0.613D-05-0.385D-04-0.149D-03 0.687D-02-0.409D-01
 Coeff:      0.142D+00-0.377D+00 0.127D+01
 Gap=     0.697 Goal=   None    Shift=    0.000
 RMSDP=2.44D-08 MaxDP=1.10D-07 DE=-9.29D-12 OVMax= 1.42D-07

 Cycle  10  Pass 1  IDiag  1:
 E= -33.6473925954628     Delta-E=       -0.000000000000 Rises=F Damp=F
 DIIS: error= 8.48D-10 at cycle  10 NSaved=  10.
 NSaved=10 IEnMin=10 EnMin= -33.6473925954628     IErMin=10 ErrMin= 8.48D-10
 ErrMax= 8.48D-10  0.00D+00 EMaxC= 1.00D-01 BMatC= 2.26D-17 BMatP= 1.20D-14
 IDIUse=1 WtCom= 1.00D+00 WtEn= 0.00D+00
 Coeff-Com: -0.188D-06 0.739D-06 0.581D-05 0.138D-04-0.819D-03 0.493D-02
 Coeff-Com: -0.173D-01 0.473D-01-0.182D+00 0.115D+01
 Coeff:     -0.188D-06 0.739D-06 0.581D-05 0.138D-04-0.819D-03 0.493D-02
 Coeff:     -0.173D-01 0.473D-01-0.182D+00 0.115D+01
 Gap=     0.697 Goal=   None    Shift=    0.000
 RMSDP=5.89D-10 MaxDP=2.30D-09 DE=-5.68D-14 OVMax= 2.73D-09

 SCF Done:  E(RHF) =  -33.6473925955     A.U. after   10 cycles
            NFock= 10  Conv=0.59D-09     -V/T= 2.2571
 KE= 2.676561153035D+01 PE=-1.244927150087D+02 EE= 4.273642362921D+01
 Leave Link  502 at Sun Dec 10 07:09:14 2023, MaxMem=   536870912 cpu:               0.3 elap:               0.1
 (Enter /usr/site/hpc/x86_64/glibc-2.17/broadwell/gaussian/g16_a.03/pgi-16.5/g16/l801.exe)
 Windowed orbitals will be sorted by symmetry type.
 Range of M.O.s used for correlation:     1    24
 NBasis=    24 NAE=     8 NBE=     8 NFC=     0 NFV=     0
 NROrb=     24 NOA=     8 NOB=     8 NVA=    16 NVB=    16
 Leave Link  801 at Sun Dec 10 07:09:14 2023, MaxMem=   536870912 cpu:               0.1 elap:               0.0
 (Enter /usr/site/hpc/x86_64/glibc-2.17/broadwell/gaussian/g16_a.03/pgi-16.5/g16/l804.exe)
 Closed-shell transformation, MDV=   536870912 ITran=4 ISComp=2.
 Unit  1 TFree=       1025246 TCopy=        210600.
 Semi-Direct transformation.
 ModeAB=           4 MOrb=             8 LenV=     536741108
 LASXX=         5694 LTotXX=        5694 LenRXX=       12406
 LTotAB=        6712 MaxLAS=       26496 LenRXY=           0
 NonZer=       18100 LenScr=      524288 LnRSAI=       26496
 LnScr1=      524288 LExtra=           0 Total=      1087478
 MaxDsk=          -1 SrtSym=           T ITran=            4
 DoSDTr:  NPSUse=  4
 JobTyp=0 Pass  1:  I=   1 to   8.
 (rs|ai) integrals will be sorted in core.
 Complete sort for first half transformation.
 First half transformation complete.
 Complete sort for second half transformation.
 Second half transformation complete.
 Spin components of T(2) and E(2):
     alpha-alpha T2 =       0.9085746587D-02 E2=     -0.2590188846D-01
     alpha-beta  T2 =       0.6015247247D-01 E2=     -0.1768614047D+00
     beta-beta   T2 =       0.9085746587D-02 E2=     -0.2590188846D-01
 ANorm=    0.1038423789D+01
 E2 =    -0.2286651816D+00 EUMP2 =    -0.33876057777094D+02
 Leave Link  804 at Sun Dec 10 07:09:14 2023, MaxMem=   536870912 cpu:               0.2 elap:               0.1
 (Enter /usr/site/hpc/x86_64/glibc-2.17/broadwell/gaussian/g16_a.03/pgi-16.5/g16/l913.exe)
 CIDS:  MDV=   536870912.
 IFCWin=0 IBDFC=1 NFBD=     0     0 NFCmp=     0     0 NFFFC=     0     0
 Using DD3R+UMP44R for 1st iteration.
 Using DD4RQ for 2nd and later iterations.
 Keep R2 and R3 ints in memory in symmetry-blocked form, NReq=856047.
 FoFCou: FMM=F IPFlag=           0 FMFlag=           0 FMFlg1=           0
         NFxFlg=           0 DoJE=F BraDBF=F KetDBF=F FulRan=T
         wScrn=  0.000000 ICntrl=       600 IOpCl=  0 I1Cent=           0 NGrid=           0
         NMat0=    1 NMatS0=    300 NMatT0=    0 NMatD0=    1 NMtDS0=    0 NMtDT0=    0
 Petite list used in FoFCou.
 CIDS: In Core Option IDoMem=           1.
 CCSD(T)
 =======
 Iterations=  50 Convergence= 0.100D-06
 Produce multiple copies of IABC intergrals
 Iteration Nr.   1
 **********************
 DD1Dir will call FoFMem   1 times, MxPair=        72
 NAB=    36 NAA=     0 NBB=     0.
 MP4(R+Q)= -0.71759696D-03
 Maximum subspace dimension=  5
 A-vector RMS=  5.7990084D-03 Max=  1.3361251D-02 conv= 1.00D-05.
 RLE energy=       -0.2347823373
 E3=       -0.55156406D-02        EUMP3=      -0.33881573418D+02
 E4(DQ)=   -0.59270880D-02        UMP4(DQ)=   -0.33887500506D+02
 E4(SDQ)=  -0.79717222D-02        UMP4(SDQ)=  -0.33889545140D+02
 VARIATIONAL ENERGIES WITH THE FIRST-ORDER WAVEFUNCTION:
 DE(Corr)= -0.23462330     E(Corr)=     -33.882015894    
 NORM(A)=   0.10419069D+01
 Iteration Nr.   2
 **********************
 DD1Dir will call FoFMem   1 times, MxPair=        72
 NAB=    36 NAA=     0 NBB=     0.
 A-vector RMS=  9.9032839D-04 Max=  2.1164506D-03 conv= 1.00D-05.
 RLE energy=       -0.2426117053
 DE(Corr)= -0.24065753     E(CORR)=     -33.888050127     Delta=-6.03D-03
 NORM(A)=   0.10457473D+01
 Iteration Nr.   3
 **********************
 DD1Dir will call FoFMem   1 times, MxPair=        72
 NAB=    36 NAA=     0 NBB=     0.
 A-vector RMS=  3.9806143D-04 Max=  1.2914122D-03 conv= 1.00D-05.
 RLE energy=       -0.2431663969
 DE(Corr)= -0.24271283     E(CORR)=     -33.890105428     Delta=-2.06D-03
 NORM(A)=   0.10463219D+01
 Iteration Nr.   4
 **********************
 DD1Dir will call FoFMem   1 times, MxPair=        72
 NAB=    36 NAA=     0 NBB=     0.
 A-vector RMS=  9.7610331D-05 Max=  2.9511346D-04 conv= 1.00D-05.
 RLE energy=       -0.2432148656
 DE(Corr)= -0.24317786     E(CORR)=     -33.890570457     Delta=-4.65D-04
 NORM(A)=   0.10464008D+01
 Iteration Nr.   5
 **********************
 DD1Dir will call FoFMem   1 times, MxPair=        72
 NAB=    36 NAA=     0 NBB=     0.
 A-vector RMS=  4.4166647D-05 Max=  1.7313159D-04 conv= 1.00D-05.
 RLE energy=       -0.2432130762
 DE(Corr)= -0.24321084     E(CORR)=     -33.890603438     Delta=-3.30D-05
 NORM(A)=   0.10464129D+01
 Iteration Nr.   6
 **********************
 DD1Dir will call FoFMem   1 times, MxPair=        72
 NAB=    36 NAA=     0 NBB=     0.
 A-vector RMS=  1.2299271D-05 Max=  5.0880022D-05 conv= 1.00D-05.
 RLE energy=       -0.2432119579
 DE(Corr)= -0.24321317     E(CORR)=     -33.890605762     Delta=-2.32D-06
 NORM(A)=   0.10464167D+01
 Iteration Nr.   7
 **********************
 DD1Dir will call FoFMem   1 times, MxPair=        72
 NAB=    36 NAA=     0 NBB=     0.
 A-vector RMS=  3.6757826D-06 Max=  1.6455014D-05 conv= 1.00D-05.
 RLE energy=       -0.2432129462
 DE(Corr)= -0.24321249     E(CORR)=     -33.890605081     Delta= 6.81D-07
 NORM(A)=   0.10464182D+01
 Iteration Nr.   8
 **********************
 DD1Dir will call FoFMem   1 times, MxPair=        72
 NAB=    36 NAA=     0 NBB=     0.
 A-vector RMS=  8.8829618D-07 Max=  4.1649269D-06 conv= 1.00D-05.
 RLE energy=       -0.2432124159
 DE(Corr)= -0.24321249     E(CORR)=     -33.890605088     Delta=-6.88D-09
 NORM(A)=   0.10464183D+01
 CI/CC converged in    8 iterations to DelEn=-6.88D-09 Conv= 1.00D-07 ErrA1= 8.88D-07 Conv= 1.00D-05
 Wavefunction amplitudes converged. E(Corr)=     -33.890605088    
 Largest amplitude= 2.94D-02
 IPart=  2 IA=    2   12.50% done.
 IPart=  3 IA=    3   24.17% done.
 IPart=  4 IA=    4   35.00% done.
 IPart=  4 IA=    5   45.00% done.
 IPart=  3 IA=    6   54.17% done.
 IPart=  2 IA=    7   62.50% done.
 IPart=  1 IA=    8   70.00% done.
 IPart=  2 IA=   10   82.50% done.
 IPart=  3 IA=   12   91.67% done.
 Time for triples=        1.21 seconds.
 T4(CCSD)= -0.31123777D-02
 T5(CCSD)=  0.53068007D-03
 CCSD(T)= -0.33893186786D+02
 Discarding MO integrals.
 Leave Link  913 at Sun Dec 10 07:09:15 2023, MaxMem=   536870912 cpu:               1.8 elap:               0.5
 (Enter /usr/site/hpc/x86_64/glibc-2.17/broadwell/gaussian/g16_a.03/pgi-16.5/g16/l601.exe)
 Copying SCF densities to generalized density rwf, IOpCl= 0 IROHF=0.

 **********************************************************************

            Population analysis using the SCF density.

 **********************************************************************

 Orbital symmetries:
       Occupied  (AG) (B1U) (B2U) (B3G) (AG) (B1U) (B3U) (B2G)
       Virtual   (AG) (B1U) (B2U) (B3G) (AG) (B3U) (B2G) (B2U)
                 (B3G) (B1U) (AG) (B1U) (B2U) (B3G) (B1U) (AG)
 The electronic state is 1-AG.
 Alpha  occ. eigenvalues --   -1.34194  -1.34185  -0.69816  -0.69804  -0.53854
 Alpha  occ. eigenvalues --   -0.53464  -0.48723  -0.48672
 Alpha virt. eigenvalues --    0.21074   0.21609   0.31495   0.31650   0.80508
 Alpha virt. eigenvalues --    0.81431   0.82266   0.87238   0.89187   0.90841
 Alpha virt. eigenvalues --    1.18529   1.18533   1.22922   1.23148   2.58326
 Alpha virt. eigenvalues --    2.58982
          Condensed to atoms (all electrons):
               1          2          3          4          5          6
     1  O    6.205377   0.260228   0.260228   0.000116   0.000003   0.000003
     2  H    0.260228   0.400635  -0.023845   0.000003  -0.000000  -0.000000
     3  H    0.260228  -0.023845   0.400635   0.000003  -0.000000  -0.000000
     4  O    0.000116   0.000003   0.000003   6.205377   0.260228   0.260228
     5  H    0.000003  -0.000000  -0.000000   0.260228   0.400635  -0.023845
     6  H    0.000003  -0.000000  -0.000000   0.260228  -0.023845   0.400635
 Mulliken charges:
               1
     1  O   -0.725956
     2  H    0.362978
     3  H    0.362978
     4  O   -0.725956
     5  H    0.362978
     6  H    0.362978
 Sum of Mulliken charges =  -0.00000
 Mulliken charges with hydrogens summed into heavy atoms:
               1
     1  O   -0.000000
     4  O   -0.000000
 Electronic spatial extent (au):  <R**2>=            295.0183
 Charge=             -0.0000 electrons
 Dipole moment (field-independent basis, Debye):
    X=             -0.0000    Y=              0.0000    Z=              0.0000  Tot=              0.0000
 Quadrupole moment (field-independent basis, Debye-Ang):
   XX=            -14.9842   YY=             -8.0893   ZZ=              9.4479
   XY=              0.0000   XZ=              0.0000   YZ=             -0.0000
 Traceless Quadrupole moment (field-independent basis, Debye-Ang):
   XX=            -10.4423   YY=             -3.5474   ZZ=             13.9897
   XY=              0.0000   XZ=              0.0000   YZ=             -0.0000
 Octapole moment (field-independent basis, Debye-Ang**2):
  XXX=             -0.0000  YYY=              0.0000  ZZZ=             -0.0000  XYY=             -0.0000
  XXY=             -0.0000  XXZ=              0.0000  XZZ=             -0.0000  YZZ=              0.0000
  YYZ=              0.0000  XYZ=             -0.0000
 Hexadecapole moment (field-independent basis, Debye-Ang**3):
 XXXX=            -12.2136 YYYY=            -12.1251 ZZZZ=           -138.5148 XXXY=             -0.0000
 XXXZ=              0.0000 YYYX=              0.0000 YYYZ=             -0.0000 ZZZX=              0.0000
 ZZZY=             -0.0000 XXYY=             -4.6317 XXZZ=            -69.8633 YYZZ=            -29.5529
 XXYZ=              0.0000 YYXZ=              0.0000 ZZXY=              0.0000
 N-N= 2.134328725367D+01 E-N=-1.244927150253D+02  KE= 2.676561153035D+01
 Symmetry AG   KE= 5.504537184999D+00
 Symmetry B1G  KE= 0.000000000000D+00
 Symmetry B2G  KE= 4.449372871764D+00
 Symmetry B3G  KE= 3.403017620869D+00
 Symmetry AU   KE= 0.000000000000D+00
 Symmetry B1U  KE= 5.569408782993D+00
 Symmetry B2U  KE= 3.400791429872D+00
 Symmetry B3U  KE= 4.438483639857D+00
 Leave Link  601 at Sun Dec 10 07:09:15 2023, MaxMem=   536870912 cpu:               0.1 elap:               0.0
 (Enter /usr/site/hpc/x86_64/glibc-2.17/broadwell/gaussian/g16_a.03/pgi-16.5/g16/l9999.exe)
 1\1\GINC-N033\SP\RCCSD(T)-FC\CEP-31G\H4O2\ROOT\10-Dec-2023\0\\#p CCSD(
 T)/CEP-31G\\H2O_H2O_2325\\0,1\O,0,0.,-0.009833,0.\H,0,-0.799571,-0.580
 965,0.\H,0,0.799571,-0.580965,0.\O,0,0.,4.070404,0.\H,0,0.799571,4.641
 536,0.\H,0,-0.799571,4.641536,0.\\Version=ES64L-G16RevA.03\State=1-AG\
 HF=-33.6473926\MP2=-33.8760578\MP3=-33.8815734\MP4D=-33.8867829\MP4DQ=
 -33.8875005\MP4SDQ=-33.8895451\CCSD=-33.8906051\CCSD(T)=-33.8931868\RM
 SD=5.888e-10\PG=D02H [C2"(O1.O1),SG(H4)]\\@


 KINETICS       FACT
 ---------  =  -------
 MECHANISM     FICTION
 Job cpu time:       0 days  0 hours  0 minutes  4.2 seconds.
 Elapsed time:       0 days  0 hours  0 minutes  1.2 seconds.
 File lengths (MBytes):  RWF=     72 Int=      0 D2E=      0 Chk=      8 Scr=      8
 Normal termination of Gaussian 16 at Sun Dec 10 07:09:15 2023.
