 Entering Gaussian System, Link 0=g16
 Input=H2O_H2O_2569.com
 Output=H2O_H2O_2569.log
 Initial command:
 /usr/site/hpc/x86_64/glibc-2.17/broadwell/gaussian/g16_a.03/pgi-16.5/g16/l1.exe "/gpfs/gpfs1/scratch/c7441090/OO Coord/Gau-1728654.inp" -scrdir="/gpfs/gpfs1/scratch/c7441090/OO Coord/"
 Entering Link 1 = /usr/site/hpc/x86_64/glibc-2.17/broadwell/gaussian/g16_a.03/pgi-16.5/g16/l1.exe PID=   1728655.
  
 Copyright (c) 1988,1990,1992,1993,1995,1998,2003,2009,2016,
            Gaussian, Inc.  All Rights Reserved.
  
 This is part of the Gaussian(R) 16 program.  It is based on
 the Gaussian(R) 09 system (copyright 2009, Gaussian, Inc.),
 the Gaussian(R) 03 system (copyright 2003, Gaussian, Inc.),
 the Gaussian(R) 98 system (copyright 1998, Gaussian, Inc.),
 the Gaussian(R) 94 system (copyright 1995, Gaussian, Inc.),
 the Gaussian 92(TM) system (copyright 1992, Gaussian, Inc.),
 the Gaussian 90(TM) system (copyright 1990, Gaussian, Inc.),
 the Gaussian 88(TM) system (copyright 1988, Gaussian, Inc.),
 the Gaussian 86(TM) system (copyright 1986, Carnegie Mellon
 University), and the Gaussian 82(TM) system (copyright 1983,
 Carnegie Mellon University). Gaussian is a federally registered
 trademark of Gaussian, Inc.
  
 This software contains proprietary and confidential information,
 including trade secrets, belonging to Gaussian, Inc.
  
 This software is provided under written license and may be
 used, copied, transmitted, or stored only in accord with that
 written license.
  
 The following legend is applicable only to US Government
 contracts under FAR:
  
                    RESTRICTED RIGHTS LEGEND
  
 Use, reproduction and disclosure by the US Government is
 subject to restrictions as set forth in subparagraphs (a)
 and (c) of the Commercial Computer Software - Restricted
 Rights clause in FAR 52.227-19.
  
 Gaussian, Inc.
 340 Quinnipiac St., Bldg. 40, Wallingford CT 06492
  
  
 ---------------------------------------------------------------
 Warning -- This program may not be used in any manner that
 competes with the business of Gaussian, Inc. or will provide
 assistance to any competitor of Gaussian, Inc.  The licensee
 of this program is prohibited from giving any competitor of
 Gaussian, Inc. access to this program.  By using this program,
 the user acknowledges that Gaussian, Inc. is engaged in the
 business of creating and licensing software in the field of
 computational chemistry and represents and warrants to the
 licensee that it is not a competitor of Gaussian, Inc. and that
 it will not use this program in any manner prohibited above.
 ---------------------------------------------------------------
  

 Cite this work as:
 Gaussian 16, Revision A.03,
 M. J. Frisch, G. W. Trucks, H. B. Schlegel, G. E. Scuseria, 
 M. A. Robb, J. R. Cheeseman, G. Scalmani, V. Barone, 
 G. A. Petersson, H. Nakatsuji, X. Li, M. Caricato, A. V. Marenich, 
 J. Bloino, B. G. Janesko, R. Gomperts, B. Mennucci, H. P. Hratchian, 
 J. V. Ortiz, A. F. Izmaylov, J. L. Sonnenberg, D. Williams-Young, 
 F. Ding, F. Lipparini, F. Egidi, J. Goings, B. Peng, A. Petrone, 
 T. Henderson, D. Ranasinghe, V. G. Zakrzewski, J. Gao, N. Rega, 
 G. Zheng, W. Liang, M. Hada, M. Ehara, K. Toyota, R. Fukuda, 
 J. Hasegawa, M. Ishida, T. Nakajima, Y. Honda, O. Kitao, H. Nakai, 
 T. Vreven, K. Throssell, J. A. Montgomery, Jr., J. E. Peralta, 
 F. Ogliaro, M. J. Bearpark, J. J. Heyd, E. N. Brothers, K. N. Kudin, 
 V. N. Staroverov, T. A. Keith, R. Kobayashi, J. Normand, 
 K. Raghavachari, A. P. Rendell, J. C. Burant, S. S. Iyengar, 
 J. Tomasi, M. Cossi, J. M. Millam, M. Klene, C. Adamo, R. Cammi, 
 J. W. Ochterski, R. L. Martin, K. Morokuma, O. Farkas, 
 J. B. Foresman, and D. J. Fox, Gaussian, Inc., Wallingford CT, 2016.
 
 ******************************************
 Gaussian 16:  ES64L-G16RevA.03 25-Dec-2016
                10-Dec-2023 
 ******************************************
 %NProcShared=4
 Will use up to    4 processors via shared memory.
 %Mem=4GB
 %Chk=H2O_H2O_2569.chk
 ------------------
 #p CCSD(T)/CEP-31G
 ------------------
 1/38=1,172=1/1;
 2/12=2,17=6,18=5,40=1/2;
 3/5=9,6=1,11=9,25=1,30=1/1,2,3;
 4//1;
 5/5=2,38=5/2;
 8/6=4,9=120000,10=1/1,4;
 9/5=7,14=2/13;
 6/7=2,8=2,9=2,10=2/1;
 99/5=1,9=1/99;
 Leave Link    1 at Sun Dec 10 06:26:00 2023, MaxMem=   536870912 cpu:               0.2 elap:               0.1
 (Enter /usr/site/hpc/x86_64/glibc-2.17/broadwell/gaussian/g16_a.03/pgi-16.5/g16/l101.exe)
 ------------
 H2O_H2O_2569
 ------------
 Symbolic Z-matrix:
 Charge =  0 Multiplicity = 1
 O                     0.       -0.00983   0. 
 H                    -0.79957  -0.58097   0. 
 H                     0.79957  -0.58097   0. 
 O                    -0.00931   4.30306   0. 
 H                    -0.29312   5.24378   0. 
 H                    -0.80715   3.7295    0. 
 
 ITRead=  0  0  0  0  0  0
 MicOpt= -1 -1 -1 -1 -1 -1
 NAtoms=      6 NQM=        6 NQMF=       0 NMMI=      0 NMMIF=      0
                NMic=       0 NMicF=      0.
                    Isotopes and Nuclear Properties:
 (Nuclear quadrupole moments (NQMom) in fm**2, nuclear magnetic moments (NMagM)
  in nuclear magnetons)

  Atom         1           2           3           4           5           6
 IAtWgt=          16           1           1          16           1           1
 AtmWgt=  15.9949146   1.0078250   1.0078250  15.9949146   1.0078250   1.0078250
 NucSpn=           0           1           1           0           1           1
 AtZEff=  -0.0000000  -0.0000000  -0.0000000  -0.0000000  -0.0000000  -0.0000000
 NQMom=    0.0000000   0.0000000   0.0000000   0.0000000   0.0000000   0.0000000
 NMagM=    0.0000000   2.7928460   2.7928460   0.0000000   2.7928460   2.7928460
 AtZNuc=   8.0000000   1.0000000   1.0000000   8.0000000   1.0000000   1.0000000
 Leave Link  101 at Sun Dec 10 06:26:00 2023, MaxMem=   536870912 cpu:               0.3 elap:               0.1
 (Enter /usr/site/hpc/x86_64/glibc-2.17/broadwell/gaussian/g16_a.03/pgi-16.5/g16/l202.exe)
                          Input orientation:                          
 ---------------------------------------------------------------------
 Center     Atomic      Atomic             Coordinates (Angstroms)
 Number     Number       Type             X           Y           Z
 ---------------------------------------------------------------------
      1          8           0        0.000000   -0.009833    0.000000
      2          1           0       -0.799571   -0.580965    0.000000
      3          1           0        0.799571   -0.580965    0.000000
      4          8           0       -0.009311    4.303058    0.000000
      5          1           0       -0.293120    5.243781    0.000000
      6          1           0       -0.807147    3.729504    0.000000
 ---------------------------------------------------------------------
                    Distance matrix (angstroms):
                    1          2          3          4          5
     1  O    0.000000
     2  H    0.982601   0.000000
     3  H    0.982601   1.599142   0.000000
     4  O    4.312901   4.947544   4.950553   0.000000
     5  H    5.261785   5.846722   5.926351   0.982602   0.000000
     6  H    3.825458   4.310476   4.600183   0.982602   1.599143
                    6
     6  H    0.000000
 Stoichiometry    H4O2
 Framework group  CS[SG(H4O2)]
 Deg. of freedom     9
 Full point group                 CS      NOp   2
 Largest Abelian subgroup         CS      NOp   2
 Largest concise Abelian subgroup C1      NOp   1
                         Standard orientation:                         
 ---------------------------------------------------------------------
 Center     Atomic      Atomic             Coordinates (Angstroms)
 Number     Number       Type             X           Y           Z
 ---------------------------------------------------------------------
      1          8           0        0.054166   -2.117813    0.000000
      2          1           0       -0.746636   -2.687217    0.000000
      3          1           0        0.852502   -2.690669    0.000000
      4          8           0        0.054166    2.195088    0.000000
      5          1           0       -0.227612    3.136422    0.000000
      6          1           0       -0.744907    1.623258    0.000000
 ---------------------------------------------------------------------
 Rotational constants (GHZ):         258.9203720           2.8719636           2.8404570
 Leave Link  202 at Sun Dec 10 06:26:00 2023, MaxMem=   536870912 cpu:               0.1 elap:               0.0
 (Enter /usr/site/hpc/x86_64/glibc-2.17/broadwell/gaussian/g16_a.03/pgi-16.5/g16/l301.exe)
 Standard basis: CEP-31G (6D, 10F)
 Ernie: Thresh=  0.10000D-02 Tol=  0.10000D-05 Strict=F.
 There are    20 symmetry adapted cartesian basis functions of A'  symmetry.
 There are     4 symmetry adapted cartesian basis functions of A"  symmetry.
 There are    20 symmetry adapted basis functions of A'  symmetry.
 There are     4 symmetry adapted basis functions of A"  symmetry.
    24 basis functions,    48 primitive gaussians,    24 cartesian basis functions
     8 alpha electrons        8 beta electrons
       nuclear repulsion energy        21.1381248722 Hartrees.
 IExCor=    0 DFT=F Ex=HF Corr=None ExCW=0 ScaHFX=  1.000000
 ScaDFX=  1.000000  1.000000  1.000000  1.000000 ScalE2=  1.000000  1.000000
 IRadAn=      5 IRanWt=     -1 IRanGd=            0 ICorTp=0 IEmpDi=  4
 NAtoms=    6 NActive=    6 NUniq=    6 SFac= 1.00D+00 NAtFMM=   60 NAOKFM=F Big=F
 Integral buffers will be    131072 words long.
 Raffenetti 1 integral format.
 Two-electron integral symmetry is turned on.
 Leave Link  301 at Sun Dec 10 06:26:00 2023, MaxMem=   536870912 cpu:               0.2 elap:               0.1
 (Enter /usr/site/hpc/x86_64/glibc-2.17/broadwell/gaussian/g16_a.03/pgi-16.5/g16/l302.exe)
 NPDir=0 NMtPBC=     1 NCelOv=     1 NCel=       1 NClECP=     1 NCelD=      1
         NCelK=      1 NCelE2=     1 NClLst=     1 CellRange=     0.0.
 One-electron integrals computed using PRISM.
 One-electron integral symmetry used in STVInt
   2 Symmetry operations used in ECPInt.
 ECPInt:  NShTT=      78 NPrTT=     318 LenC2=      79 LenP2D=     268.
 LDataN:  DoStor=T MaxTD1= 2 Len=   12
 NBasis=    24 RedAO= T EigKep=  3.81D-02  NBF=    20     4
 NBsUse=    24 1.00D-06 EigRej= -1.00D+00 NBFU=    20     4
 Leave Link  302 at Sun Dec 10 06:26:00 2023, MaxMem=   536870912 cpu:               0.3 elap:               0.1
 (Enter /usr/site/hpc/x86_64/glibc-2.17/broadwell/gaussian/g16_a.03/pgi-16.5/g16/l303.exe)
 DipDrv:  MaxL=1.
 Leave Link  303 at Sun Dec 10 06:26:00 2023, MaxMem=   536870912 cpu:               0.1 elap:               0.0
 (Enter /usr/site/hpc/x86_64/glibc-2.17/broadwell/gaussian/g16_a.03/pgi-16.5/g16/l401.exe)
 ExpMin= 1.78D-01 ExpMax= 1.92D+01 ExpMxC= 1.92D+01 IAcc=3 IRadAn=         5 AccDes= 0.00D+00
 Harris functional with IExCor=  205 and IRadAn=       5 diagonalized for initial guess.
 HarFok:  IExCor=  205 AccDes= 0.00D+00 IRadAn=         5 IDoV= 1 UseB2=F ITyADJ=14
 ICtDFT=  3500011 ScaDFX=  1.000000  1.000000  1.000000  1.000000
 FoFCou: FMM=F IPFlag=           0 FMFlag=      100000 FMFlg1=           0
         NFxFlg=           0 DoJE=T BraDBF=F KetDBF=T FulRan=T
         wScrn=  0.000000 ICntrl=       500 IOpCl=  0 I1Cent=   200000004 NGrid=           0
         NMat0=    1 NMatS0=      1 NMatT0=    0 NMatD0=    1 NMtDS0=    0 NMtDT0=    0
 Petite list used in FoFCou.
 Harris En= -34.4764512295617    
 JPrj=0 DoOrth=F DoCkMO=F.
 Initial guess orbital symmetries:
       Occupied  (A') (A') (A') (A') (A') (A') (A") (A")
       Virtual   (A') (A') (A') (A') (A') (A") (A") (A') (A') (A')
                 (A') (A') (A') (A') (A') (A')
 The electronic state of the initial guess is 1-A'.
 Leave Link  401 at Sun Dec 10 06:26:00 2023, MaxMem=   536870912 cpu:               0.4 elap:               0.1
 (Enter /usr/site/hpc/x86_64/glibc-2.17/broadwell/gaussian/g16_a.03/pgi-16.5/g16/l502.exe)
 Keep R1 ints in memory in symmetry-blocked form, NReq=852141.
 FoFCou: FMM=F IPFlag=           0 FMFlag=           0 FMFlg1=           0
         NFxFlg=           0 DoJE=F BraDBF=F KetDBF=F FulRan=T
         wScrn=  0.000000 ICntrl=       600 IOpCl=  0 I1Cent=           0 NGrid=           0
         NMat0=    1 NMatS0=    300 NMatT0=    0 NMatD0=    1 NMtDS0=    0 NMtDT0=    0
 Petite list used in FoFCou.
 Closed shell SCF:
 Using DIIS extrapolation, IDIIS=  1040.
 NGot=   536870912 LenX=   536840576 LenY=   536839559
 Requested convergence on RMS density matrix=1.00D-08 within 128 cycles.
 Requested convergence on MAX density matrix=1.00D-06.
 Requested convergence on             energy=1.00D-06.
 No special actions if energy rises.

 Cycle   1  Pass 1  IDiag  1:
 E= -33.5568830861529    
 DIIS: error= 6.87D-02 at cycle   1 NSaved=   1.
 NSaved= 1 IEnMin= 1 EnMin= -33.5568830861529     IErMin= 1 ErrMin= 6.87D-02
 ErrMax= 6.87D-02  0.00D+00 EMaxC= 1.00D-01 BMatC= 1.02D-01 BMatP= 1.02D-01
 IDIUse=3 WtCom= 3.13D-01 WtEn= 6.87D-01
 Coeff-Com:  0.100D+01
 Coeff-En:   0.100D+01
 Coeff:      0.100D+01
 Gap=     0.599 Goal=   None    Shift=    0.000
 GapD=    0.599 DampG=2.000 DampE=0.500 DampFc=1.0000 IDamp=-1.
 RMSDP=1.49D-02 MaxDP=1.17D-01              OVMax= 9.97D-02

 Cycle   2  Pass 1  IDiag  1:
 E= -33.6199003740597     Delta-E=       -0.063017287907 Rises=F Damp=F
 DIIS: error= 3.74D-02 at cycle   2 NSaved=   2.
 NSaved= 2 IEnMin= 2 EnMin= -33.6199003740597     IErMin= 2 ErrMin= 3.74D-02
 ErrMax= 3.74D-02  0.00D+00 EMaxC= 1.00D-01 BMatC= 3.84D-02 BMatP= 1.02D-01
 IDIUse=3 WtCom= 6.26D-01 WtEn= 3.74D-01
 Coeff-Com:  0.377D+00 0.623D+00
 Coeff-En:   0.109D+00 0.891D+00
 Coeff:      0.277D+00 0.723D+00
 Gap=     0.693 Goal=   None    Shift=    0.000
 RMSDP=6.43D-03 MaxDP=5.44D-02 DE=-6.30D-02 OVMax= 3.58D-02

 Cycle   3  Pass 1  IDiag  1:
 E= -33.6505763501727     Delta-E=       -0.030675976113 Rises=F Damp=F
 DIIS: error= 7.19D-03 at cycle   3 NSaved=   3.
 NSaved= 3 IEnMin= 3 EnMin= -33.6505763501727     IErMin= 3 ErrMin= 7.19D-03
 ErrMax= 7.19D-03  0.00D+00 EMaxC= 1.00D-01 BMatC= 9.13D-04 BMatP= 3.84D-02
 IDIUse=3 WtCom= 9.28D-01 WtEn= 7.19D-02
 Coeff-Com: -0.113D+00-0.146D-01 0.113D+01
 Coeff-En:   0.000D+00 0.000D+00 0.100D+01
 Coeff:     -0.105D+00-0.135D-01 0.112D+01
 Gap=     0.686 Goal=   None    Shift=    0.000
 RMSDP=1.09D-03 MaxDP=9.31D-03 DE=-3.07D-02 OVMax= 8.12D-03

 Cycle   4  Pass 1  IDiag  1:
 E= -33.6514875242015     Delta-E=       -0.000911174029 Rises=F Damp=F
 DIIS: error= 7.61D-04 at cycle   4 NSaved=   4.
 NSaved= 4 IEnMin= 4 EnMin= -33.6514875242015     IErMin= 4 ErrMin= 7.61D-04
 ErrMax= 7.61D-04  0.00D+00 EMaxC= 1.00D-01 BMatC= 6.01D-06 BMatP= 9.13D-04
 IDIUse=3 WtCom= 9.92D-01 WtEn= 7.61D-03
 Coeff-Com:  0.436D-01-0.182D-01-0.524D+00 0.150D+01
 Coeff-En:   0.000D+00 0.000D+00 0.000D+00 0.100D+01
 Coeff:      0.433D-01-0.180D-01-0.520D+00 0.149D+01
 Gap=     0.688 Goal=   None    Shift=    0.000
 RMSDP=2.37D-04 MaxDP=2.04D-03 DE=-9.11D-04 OVMax= 9.79D-04

 Cycle   5  Pass 1  IDiag  1:
 E= -33.6515008137464     Delta-E=       -0.000013289545 Rises=F Damp=F
 DIIS: error= 5.14D-05 at cycle   5 NSaved=   5.
 NSaved= 5 IEnMin= 5 EnMin= -33.6515008137464     IErMin= 5 ErrMin= 5.14D-05
 ErrMax= 5.14D-05  0.00D+00 EMaxC= 1.00D-01 BMatC= 4.06D-08 BMatP= 6.01D-06
 IDIUse=1 WtCom= 1.00D+00 WtEn= 0.00D+00
 Coeff-Com: -0.705D-02 0.325D-02 0.854D-01-0.294D+00 0.121D+01
 Coeff:     -0.705D-02 0.325D-02 0.854D-01-0.294D+00 0.121D+01
 Gap=     0.688 Goal=   None    Shift=    0.000
 RMSDP=1.63D-05 MaxDP=1.56D-04 DE=-1.33D-05 OVMax= 1.09D-04

 Cycle   6  Pass 1  IDiag  1:
 E= -33.6515009145025     Delta-E=       -0.000000100756 Rises=F Damp=F
 DIIS: error= 1.10D-05 at cycle   6 NSaved=   6.
 NSaved= 6 IEnMin= 6 EnMin= -33.6515009145025     IErMin= 6 ErrMin= 1.10D-05
 ErrMax= 1.10D-05  0.00D+00 EMaxC= 1.00D-01 BMatC= 2.31D-09 BMatP= 4.06D-08
 IDIUse=1 WtCom= 1.00D+00 WtEn= 0.00D+00
 Coeff-Com:  0.936D-03-0.307D-03-0.108D-01 0.435D-01-0.349D+00 0.132D+01
 Coeff:      0.936D-03-0.307D-03-0.108D-01 0.435D-01-0.349D+00 0.132D+01
 Gap=     0.688 Goal=   None    Shift=    0.000
 RMSDP=3.89D-06 MaxDP=4.15D-05 DE=-1.01D-07 OVMax= 3.56D-05

 Cycle   7  Pass 1  IDiag  1:
 E= -33.6515009205803     Delta-E=       -0.000000006078 Rises=F Damp=F
 DIIS: error= 2.59D-06 at cycle   7 NSaved=   7.
 NSaved= 7 IEnMin= 7 EnMin= -33.6515009205803     IErMin= 7 ErrMin= 2.59D-06
 ErrMax= 2.59D-06  0.00D+00 EMaxC= 1.00D-01 BMatC= 2.24D-10 BMatP= 2.31D-09
 IDIUse=1 WtCom= 1.00D+00 WtEn= 0.00D+00
 Coeff-Com:  0.620D-03-0.277D-03-0.742D-02 0.260D-01-0.122D+00 0.173D+00
 Coeff-Com:  0.930D+00
 Coeff:      0.620D-03-0.277D-03-0.742D-02 0.260D-01-0.122D+00 0.173D+00
 Coeff:      0.930D+00
 Gap=     0.688 Goal=   None    Shift=    0.000
 RMSDP=9.53D-07 MaxDP=9.27D-06 DE=-6.08D-09 OVMax= 9.29D-06

 Cycle   8  Pass 1  IDiag  1:
 E= -33.6515009209755     Delta-E=       -0.000000000395 Rises=F Damp=F
 DIIS: error= 9.71D-07 at cycle   8 NSaved=   8.
 NSaved= 8 IEnMin= 8 EnMin= -33.6515009209755     IErMin= 8 ErrMin= 9.71D-07
 ErrMax= 9.71D-07  0.00D+00 EMaxC= 1.00D-01 BMatC= 2.90D-11 BMatP= 2.24D-10
 IDIUse=1 WtCom= 1.00D+00 WtEn= 0.00D+00
 Coeff-Com:  0.139D-05-0.281D-04-0.107D-03-0.721D-03 0.308D-01-0.175D+00
 Coeff-Com:  0.132D+00 0.101D+01
 Coeff:      0.139D-05-0.281D-04-0.107D-03-0.721D-03 0.308D-01-0.175D+00
 Coeff:      0.132D+00 0.101D+01
 Gap=     0.688 Goal=   None    Shift=    0.000
 RMSDP=4.60D-07 MaxDP=3.44D-06 DE=-3.95D-10 OVMax= 3.64D-06

 Cycle   9  Pass 1  IDiag  1:
 E= -33.6515009210305     Delta-E=       -0.000000000055 Rises=F Damp=F
 DIIS: error= 1.85D-07 at cycle   9 NSaved=   9.
 NSaved= 9 IEnMin= 9 EnMin= -33.6515009210305     IErMin= 9 ErrMin= 1.85D-07
 ErrMax= 1.85D-07  0.00D+00 EMaxC= 1.00D-01 BMatC= 7.30D-13 BMatP= 2.90D-11
 IDIUse=1 WtCom= 1.00D+00 WtEn= 0.00D+00
 Coeff-Com:  0.296D-05 0.824D-05 0.576D-05 0.348D-03-0.117D-01 0.691D-01
 Coeff-Com: -0.789D-01-0.415D+00 0.144D+01
 Coeff:      0.296D-05 0.824D-05 0.576D-05 0.348D-03-0.117D-01 0.691D-01
 Coeff:     -0.789D-01-0.415D+00 0.144D+01
 Gap=     0.688 Goal=   None    Shift=    0.000
 RMSDP=1.30D-07 MaxDP=5.88D-07 DE=-5.50D-11 OVMax= 8.85D-07

 Cycle  10  Pass 1  IDiag  1:
 E= -33.6515009210326     Delta-E=       -0.000000000002 Rises=F Damp=F
 DIIS: error= 9.25D-09 at cycle  10 NSaved=  10.
 NSaved=10 IEnMin=10 EnMin= -33.6515009210326     IErMin=10 ErrMin= 9.25D-09
 ErrMax= 9.25D-09  0.00D+00 EMaxC= 1.00D-01 BMatC= 3.20D-15 BMatP= 7.30D-13
 IDIUse=1 WtCom= 1.00D+00 WtEn= 0.00D+00
 Coeff-Com:  0.246D-06-0.196D-05-0.116D-04-0.357D-04 0.228D-02-0.143D-01
 Coeff-Com:  0.170D-01 0.851D-01-0.349D+00 0.126D+01
 Coeff:      0.246D-06-0.196D-05-0.116D-04-0.357D-04 0.228D-02-0.143D-01
 Coeff:      0.170D-01 0.851D-01-0.349D+00 0.126D+01
 Gap=     0.688 Goal=   None    Shift=    0.000
 RMSDP=1.22D-08 MaxDP=5.61D-08 DE=-2.02D-12 OVMax= 7.26D-08

 Cycle  11  Pass 1  IDiag  1:
 E= -33.6515009210326     Delta-E=       -0.000000000000 Rises=F Damp=F
 DIIS: error= 4.69D-10 at cycle  11 NSaved=  11.
 NSaved=11 IEnMin=11 EnMin= -33.6515009210326     IErMin=11 ErrMin= 4.69D-10
 ErrMax= 4.69D-10  0.00D+00 EMaxC= 1.00D-01 BMatC= 8.50D-18 BMatP= 3.20D-15
 IDIUse=1 WtCom= 1.00D+00 WtEn= 0.00D+00
 Coeff-Com: -0.836D-07 0.327D-06 0.236D-05 0.431D-05-0.373D-03 0.237D-02
 Coeff-Com: -0.287D-02-0.142D-01 0.593D-01-0.243D+00 0.120D+01
 Coeff:     -0.836D-07 0.327D-06 0.236D-05 0.431D-05-0.373D-03 0.237D-02
 Coeff:     -0.287D-02-0.142D-01 0.593D-01-0.243D+00 0.120D+01
 Gap=     0.688 Goal=   None    Shift=    0.000
 RMSDP=4.33D-10 MaxDP=1.86D-09 DE=-1.42D-14 OVMax= 2.42D-09

 SCF Done:  E(RHF) =  -33.6515009210     A.U. after   11 cycles
            NFock= 11  Conv=0.43D-09     -V/T= 2.2570
 KE= 2.677077804437D+01 PE=-1.239847840745D+02 EE= 4.242438023687D+01
 Leave Link  502 at Sun Dec 10 06:26:00 2023, MaxMem=   536870912 cpu:               0.3 elap:               0.1
 (Enter /usr/site/hpc/x86_64/glibc-2.17/broadwell/gaussian/g16_a.03/pgi-16.5/g16/l801.exe)
 Windowed orbitals will be sorted by symmetry type.
 Range of M.O.s used for correlation:     1    24
 NBasis=    24 NAE=     8 NBE=     8 NFC=     0 NFV=     0
 NROrb=     24 NOA=     8 NOB=     8 NVA=    16 NVB=    16
 Leave Link  801 at Sun Dec 10 06:26:00 2023, MaxMem=   536870912 cpu:               0.1 elap:               0.0
 (Enter /usr/site/hpc/x86_64/glibc-2.17/broadwell/gaussian/g16_a.03/pgi-16.5/g16/l804.exe)
 Closed-shell transformation, MDV=   536870912 ITran=4 ISComp=2.
 Unit  1 TFree=       1025975 TCopy=        210600.
 Semi-Direct transformation.
 ModeAB=           2 MOrb=             8 LenV=     536742154
 LASXX=        22470 LTotXX=       22470 LenRXX=       22470
 LTotAB=       26208 MaxLAS=       57600 LenRXY=       57600
 NonZer=       61056 LenScr=      524288 LnRSAI=           0
 LnScr1=           0 LExtra=           0 Total=       604358
 MaxDsk=          -1 SrtSym=           F ITran=            4
 DoSDTr:  NPSUse=  4
 JobTyp=0 Pass  1:  I=   1 to   8.
 (rs|ai) integrals will be sorted in core.
 Complete sort for first half transformation.
 First half transformation complete.
 Complete sort for second half transformation.
 Second half transformation complete.
 Spin components of T(2) and E(2):
     alpha-alpha T2 =       0.9077131224D-02 E2=     -0.2590745928D-01
     alpha-beta  T2 =       0.5998956792D-01 E2=     -0.1766828099D+00
     beta-beta   T2 =       0.9077131224D-02 E2=     -0.2590745928D-01
 ANorm=    0.1038337050D+01
 E2 =    -0.2284977284D+00 EUMP2 =    -0.33879998649458D+02
 Leave Link  804 at Sun Dec 10 06:26:00 2023, MaxMem=   536870912 cpu:               0.2 elap:               0.1
 (Enter /usr/site/hpc/x86_64/glibc-2.17/broadwell/gaussian/g16_a.03/pgi-16.5/g16/l913.exe)
 CIDS:  MDV=   536870912.
 IFCWin=0 IBDFC=1 NFBD=     0     0 NFCmp=     0     0 NFFFC=     0     0
 Using DD3R+UMP44R for 1st iteration.
 Using DD4RQ for 2nd and later iterations.
 Keep R2 and R3 ints in memory in symmetry-blocked form, NReq=864749.
 FoFCou: FMM=F IPFlag=           0 FMFlag=           0 FMFlg1=           0
         NFxFlg=           0 DoJE=F BraDBF=F KetDBF=F FulRan=T
         wScrn=  0.000000 ICntrl=       600 IOpCl=  0 I1Cent=           0 NGrid=           0
         NMat0=    1 NMatS0=    300 NMatT0=    0 NMatD0=    1 NMtDS0=    0 NMtDT0=    0
 Petite list used in FoFCou.
 CIDS: In Core Option IDoMem=           1.
 CCSD(T)
 =======
 Iterations=  50 Convergence= 0.100D-06
 Produce multiple copies of IABC intergrals
 Iteration Nr.   1
 **********************
 DD1Dir will call FoFMem   1 times, MxPair=        72
 NAB=    36 NAA=     0 NBB=     0.
 MP4(R+Q)= -0.73701550D-03
 Maximum subspace dimension=  5
 A-vector RMS=  5.7723628D-03 Max=  1.3046030D-02 conv= 1.00D-05.
 RLE energy=       -0.2345576183
 E3=       -0.54420506D-02        EUMP3=      -0.33885440700D+02
 E4(DQ)=   -0.59152848D-02        UMP4(DQ)=   -0.33891355985D+02
 E4(SDQ)=  -0.79492632D-02        UMP4(SDQ)=  -0.33893389963D+02
 VARIATIONAL ENERGIES WITH THE FIRST-ORDER WAVEFUNCTION:
 DE(Corr)= -0.23440140     E(Corr)=     -33.885902321    
 NORM(A)=   0.10417792D+01
 Iteration Nr.   2
 **********************
 DD1Dir will call FoFMem   1 times, MxPair=        72
 NAB=    36 NAA=     0 NBB=     0.
 A-vector RMS=  9.8253848D-04 Max=  2.6455886D-03 conv= 1.00D-05.
 RLE energy=       -0.2423427844
 DE(Corr)= -0.24039930     E(CORR)=     -33.891900224     Delta=-6.00D-03
 NORM(A)=   0.10455811D+01
 Iteration Nr.   3
 **********************
 DD1Dir will call FoFMem   1 times, MxPair=        72
 NAB=    36 NAA=     0 NBB=     0.
 A-vector RMS=  3.8580164D-04 Max=  1.0945611D-03 conv= 1.00D-05.
 RLE energy=       -0.2428944417
 DE(Corr)= -0.24244520     E(CORR)=     -33.893946125     Delta=-2.05D-03
 NORM(A)=   0.10461449D+01
 Iteration Nr.   4
 **********************
 DD1Dir will call FoFMem   1 times, MxPair=        72
 NAB=    36 NAA=     0 NBB=     0.
 A-vector RMS=  9.3880323D-05 Max=  2.5821252D-04 conv= 1.00D-05.
 RLE energy=       -0.2429417509
 DE(Corr)= -0.24290561     E(CORR)=     -33.894406526     Delta=-4.60D-04
 NORM(A)=   0.10462197D+01
 Iteration Nr.   5
 **********************
 DD1Dir will call FoFMem   1 times, MxPair=        72
 NAB=    36 NAA=     0 NBB=     0.
 A-vector RMS=  4.1887917D-05 Max=  1.4351328D-04 conv= 1.00D-05.
 RLE energy=       -0.2429400826
 DE(Corr)= -0.24293794     E(CORR)=     -33.894438864     Delta=-3.23D-05
 NORM(A)=   0.10462304D+01
 Iteration Nr.   6
 **********************
 DD1Dir will call FoFMem   1 times, MxPair=        72
 NAB=    36 NAA=     0 NBB=     0.
 A-vector RMS=  1.2179735D-05 Max=  4.4880327D-05 conv= 1.00D-05.
 RLE energy=       -0.2429388627
 DE(Corr)= -0.24294017     E(CORR)=     -33.894441093     Delta=-2.23D-06
 NORM(A)=   0.10462338D+01
 Iteration Nr.   7
 **********************
 DD1Dir will call FoFMem   1 times, MxPair=        72
 NAB=    36 NAA=     0 NBB=     0.
 A-vector RMS=  3.7614871D-06 Max=  1.2017269D-05 conv= 1.00D-05.
 RLE energy=       -0.2429398664
 DE(Corr)= -0.24293956     E(CORR)=     -33.894440478     Delta= 6.16D-07
 NORM(A)=   0.10462352D+01
 Iteration Nr.   8
 **********************
 DD1Dir will call FoFMem   1 times, MxPair=        72
 NAB=    36 NAA=     0 NBB=     0.
 A-vector RMS=  1.0470549D-06 Max=  4.8141014D-06 conv= 1.00D-05.
 RLE energy=       -0.2429393957
 DE(Corr)= -0.24293951     E(CORR)=     -33.894440428     Delta= 4.96D-08
 NORM(A)=   0.10462353D+01
 CI/CC converged in    8 iterations to DelEn= 4.96D-08 Conv= 1.00D-07 ErrA1= 1.05D-06 Conv= 1.00D-05
 Wavefunction amplitudes converged. E(Corr)=     -33.894440428    
 Largest amplitude= 5.67D-02
 IPart=  4 IA=    2   12.50% done.
 IPart=  2 IA=    3   24.17% done.
 IPart=  3 IA=    4   35.00% done.
 IPart=  3 IA=    5   45.00% done.
 IPart=  4 IA=    6   54.17% done.
 IPart=  2 IA=    7   62.50% done.
 IPart=  1 IA=    8   70.00% done.
 IPart=  2 IA=   10   82.50% done.
 IPart=  1 IA=   12   91.67% done.
 Time for triples=        0.24 seconds.
 T4(CCSD)= -0.30969954D-02
 T5(CCSD)=  0.52834153D-03
 CCSD(T)= -0.33897009082D+02
 Discarding MO integrals.
 Leave Link  913 at Sun Dec 10 06:26:01 2023, MaxMem=   536870912 cpu:               0.8 elap:               0.2
 (Enter /usr/site/hpc/x86_64/glibc-2.17/broadwell/gaussian/g16_a.03/pgi-16.5/g16/l601.exe)
 Copying SCF densities to generalized density rwf, IOpCl= 0 IROHF=0.

 **********************************************************************

            Population analysis using the SCF density.

 **********************************************************************

 Orbital symmetries:
       Occupied  (A') (A') (A') (A') (A') (A') (A") (A")
       Virtual   (A') (A') (A') (A') (A") (A') (A") (A') (A') (A')
                 (A') (A') (A') (A') (A') (A')
 The electronic state is 1-A'.
 Alpha  occ. eigenvalues --   -1.35462  -1.34161  -0.71096  -0.69746  -0.55182
 Alpha  occ. eigenvalues --   -0.53856  -0.50029  -0.48730
 Alpha virt. eigenvalues --    0.20043   0.21835   0.30492   0.31863   0.80490
 Alpha virt. eigenvalues --    0.81606   0.81832   0.85486   0.86628   0.89974
 Alpha virt. eigenvalues --    1.17425   1.18842   1.21827   1.23482   2.57402
 Alpha virt. eigenvalues --    2.59036
          Condensed to atoms (all electrons):
               1          2          3          4          5          6
     1  O    6.213549   0.261008   0.265404   0.000010   0.000001   0.000146
     2  H    0.261008   0.396319  -0.023570   0.000000  -0.000000  -0.000004
     3  H    0.265404  -0.023570   0.384125   0.000000  -0.000000  -0.000002
     4  O    0.000010   0.000000   0.000000   6.213778   0.259027   0.265499
     5  H    0.000001  -0.000000  -0.000000   0.259027   0.403361  -0.023725
     6  H    0.000146  -0.000004  -0.000002   0.265499  -0.023725   0.381278
 Mulliken charges:
               1
     1  O   -0.740117
     2  H    0.366246
     3  H    0.374042
     4  O   -0.738314
     5  H    0.361336
     6  H    0.376807
 Sum of Mulliken charges =  -0.00000
 Mulliken charges with hydrogens summed into heavy atoms:
               1
     1  O    0.000171
     4  O   -0.000171
 Electronic spatial extent (au):  <R**2>=            317.5142
 Charge=             -0.0000 electrons
 Dipole moment (field-independent basis, Debye):
    X=             -2.4812    Y=             -1.8502    Z=              0.0000  Tot=              3.0951
 Quadrupole moment (field-independent basis, Debye-Ang):
   XX=             -9.9357   YY=              4.5946   ZZ=            -14.9894
   XY=             -5.0993   XZ=              0.0000   YZ=              0.0000
 Traceless Quadrupole moment (field-independent basis, Debye-Ang):
   XX=             -3.1588   YY=             11.3714   ZZ=             -8.2125
   XY=             -5.0993   XZ=              0.0000   YZ=              0.0000
 Octapole moment (field-independent basis, Debye-Ang**2):
  XXX=             -1.4902  YYY=            -13.5208  ZZZ=              0.0000  XYY=             -9.6208
  XXY=             -6.1033  XXZ=              0.0000  XZZ=             -0.4638  YZZ=             -0.3576
  YYZ=              0.0000  XYZ=              0.0000
 Hexadecapole moment (field-independent basis, Debye-Ang**3):
 XXXX=            -12.5139 YYYY=           -155.8112 ZZZZ=            -12.2225 XXXY=             -0.4215
 XXXZ=              0.0000 YYYX=            -23.4809 YYYZ=              0.0000 ZZZX=              0.0000
 ZZZY=              0.0000 XXYY=            -48.7795 XXZZ=             -4.5427 YYZZ=            -76.3570
 XXYZ=              0.0000 YYXZ=              0.0000 ZZXY=              0.6782
 N-N= 2.113812487220D+01 E-N=-1.239847840773D+02  KE= 2.677077804437D+01
 Symmetry A'   KE= 1.788770870699D+01
 Symmetry A"   KE= 8.883069337384D+00
 Leave Link  601 at Sun Dec 10 06:26:01 2023, MaxMem=   536870912 cpu:               0.1 elap:               0.0
 (Enter /usr/site/hpc/x86_64/glibc-2.17/broadwell/gaussian/g16_a.03/pgi-16.5/g16/l9999.exe)
 1\1\GINC-N045\SP\RCCSD(T)-FC\CEP-31G\H4O2\ROOT\10-Dec-2023\0\\#p CCSD(
 T)/CEP-31G\\H2O_H2O_2569\\0,1\O,0,0.,-0.009833,0.\H,0,-0.799571,-0.580
 965,0.\H,0,0.799571,-0.580965,0.\O,0,-0.009311,4.303058,0.\H,0,-0.2931
 2,5.243781,0.\H,0,-0.807147,3.729504,0.\\Version=ES64L-G16RevA.03\Stat
 e=1-A'\HF=-33.6515009\MP2=-33.8799986\MP3=-33.8854407\MP4D=-33.890619\
 MP4DQ=-33.891356\MP4SDQ=-33.89339\CCSD=-33.8944404\CCSD(T)=-33.8970091
 \RMSD=4.327e-10\PG=CS [SG(H4O2)]\\@


 THE MOLECULE ALSO HAS A BODY.  WHEN THIS BODY IS HIT, THE MOLECULE
 FEELS HURT ALL OVER -- A. KITAIGORODSKI
 Job cpu time:       0 days  0 hours  0 minutes  3.3 seconds.
 Elapsed time:       0 days  0 hours  0 minutes  1.0 seconds.
 File lengths (MBytes):  RWF=     72 Int=      0 D2E=      0 Chk=      8 Scr=      8
 Normal termination of Gaussian 16 at Sun Dec 10 06:26:01 2023.
