 Entering Gaussian System, Link 0=g16
 Input=H2O_H2O_855.com
 Output=H2O_H2O_855.log
 Initial command:
 /usr/site/hpc/x86_64/glibc-2.17/broadwell/gaussian/g16_a.03/pgi-16.5/g16/l1.exe "/gpfs/gpfs1/scratch/c7441090/OO Coord/Gau-1235583.inp" -scrdir="/gpfs/gpfs1/scratch/c7441090/OO Coord/"
 Entering Link 1 = /usr/site/hpc/x86_64/glibc-2.17/broadwell/gaussian/g16_a.03/pgi-16.5/g16/l1.exe PID=   1235584.
  
 Copyright (c) 1988,1990,1992,1993,1995,1998,2003,2009,2016,
            Gaussian, Inc.  All Rights Reserved.
  
 This is part of the Gaussian(R) 16 program.  It is based on
 the Gaussian(R) 09 system (copyright 2009, Gaussian, Inc.),
 the Gaussian(R) 03 system (copyright 2003, Gaussian, Inc.),
 the Gaussian(R) 98 system (copyright 1998, Gaussian, Inc.),
 the Gaussian(R) 94 system (copyright 1995, Gaussian, Inc.),
 the Gaussian 92(TM) system (copyright 1992, Gaussian, Inc.),
 the Gaussian 90(TM) system (copyright 1990, Gaussian, Inc.),
 the Gaussian 88(TM) system (copyright 1988, Gaussian, Inc.),
 the Gaussian 86(TM) system (copyright 1986, Carnegie Mellon
 University), and the Gaussian 82(TM) system (copyright 1983,
 Carnegie Mellon University). Gaussian is a federally registered
 trademark of Gaussian, Inc.
  
 This software contains proprietary and confidential information,
 including trade secrets, belonging to Gaussian, Inc.
  
 This software is provided under written license and may be
 used, copied, transmitted, or stored only in accord with that
 written license.
  
 The following legend is applicable only to US Government
 contracts under FAR:
  
                    RESTRICTED RIGHTS LEGEND
  
 Use, reproduction and disclosure by the US Government is
 subject to restrictions as set forth in subparagraphs (a)
 and (c) of the Commercial Computer Software - Restricted
 Rights clause in FAR 52.227-19.
  
 Gaussian, Inc.
 340 Quinnipiac St., Bldg. 40, Wallingford CT 06492
  
  
 ---------------------------------------------------------------
 Warning -- This program may not be used in any manner that
 competes with the business of Gaussian, Inc. or will provide
 assistance to any competitor of Gaussian, Inc.  The licensee
 of this program is prohibited from giving any competitor of
 Gaussian, Inc. access to this program.  By using this program,
 the user acknowledges that Gaussian, Inc. is engaged in the
 business of creating and licensing software in the field of
 computational chemistry and represents and warrants to the
 licensee that it is not a competitor of Gaussian, Inc. and that
 it will not use this program in any manner prohibited above.
 ---------------------------------------------------------------
  

 Cite this work as:
 Gaussian 16, Revision A.03,
 M. J. Frisch, G. W. Trucks, H. B. Schlegel, G. E. Scuseria, 
 M. A. Robb, J. R. Cheeseman, G. Scalmani, V. Barone, 
 G. A. Petersson, H. Nakatsuji, X. Li, M. Caricato, A. V. Marenich, 
 J. Bloino, B. G. Janesko, R. Gomperts, B. Mennucci, H. P. Hratchian, 
 J. V. Ortiz, A. F. Izmaylov, J. L. Sonnenberg, D. Williams-Young, 
 F. Ding, F. Lipparini, F. Egidi, J. Goings, B. Peng, A. Petrone, 
 T. Henderson, D. Ranasinghe, V. G. Zakrzewski, J. Gao, N. Rega, 
 G. Zheng, W. Liang, M. Hada, M. Ehara, K. Toyota, R. Fukuda, 
 J. Hasegawa, M. Ishida, T. Nakajima, Y. Honda, O. Kitao, H. Nakai, 
 T. Vreven, K. Throssell, J. A. Montgomery, Jr., J. E. Peralta, 
 F. Ogliaro, M. J. Bearpark, J. J. Heyd, E. N. Brothers, K. N. Kudin, 
 V. N. Staroverov, T. A. Keith, R. Kobayashi, J. Normand, 
 K. Raghavachari, A. P. Rendell, J. C. Burant, S. S. Iyengar, 
 J. Tomasi, M. Cossi, J. M. Millam, M. Klene, C. Adamo, R. Cammi, 
 J. W. Ochterski, R. L. Martin, K. Morokuma, O. Farkas, 
 J. B. Foresman, and D. J. Fox, Gaussian, Inc., Wallingford CT, 2016.
 
 ******************************************
 Gaussian 16:  ES64L-G16RevA.03 25-Dec-2016
                10-Dec-2023 
 ******************************************
 %NProcShared=4
 Will use up to    4 processors via shared memory.
 %Mem=4GB
 %Chk=H2O_H2O_855.chk
 ------------------
 #p CCSD(T)/CEP-31G
 ------------------
 1/38=1,172=1/1;
 2/12=2,17=6,18=5,40=1/2;
 3/5=9,6=1,11=9,25=1,30=1/1,2,3;
 4//1;
 5/5=2,38=5/2;
 8/6=4,9=120000,10=1/1,4;
 9/5=7,14=2/13;
 6/7=2,8=2,9=2,10=2/1;
 99/5=1,9=1/99;
 Leave Link    1 at Sun Dec 10 06:40:43 2023, MaxMem=   536870912 cpu:               0.2 elap:               0.1
 (Enter /usr/site/hpc/x86_64/glibc-2.17/broadwell/gaussian/g16_a.03/pgi-16.5/g16/l101.exe)
 -----------
 H2O_H2O_855
 -----------
 Symbolic Z-matrix:
 Charge =  0 Multiplicity = 1
 O                     0.       -0.00983   0. 
 H                    -0.79957  -0.58097   0. 
 H                     0.79957  -0.58097   0. 
 O                    -0.00316   2.50097   0. 
 H                     0.57039   3.2988    0. 
 H                    -0.94388   2.78477   0. 
 
 ITRead=  0  0  0  0  0  0
 MicOpt= -1 -1 -1 -1 -1 -1
 NAtoms=      6 NQM=        6 NQMF=       0 NMMI=      0 NMMIF=      0
                NMic=       0 NMicF=      0.
                    Isotopes and Nuclear Properties:
 (Nuclear quadrupole moments (NQMom) in fm**2, nuclear magnetic moments (NMagM)
  in nuclear magnetons)

  Atom         1           2           3           4           5           6
 IAtWgt=          16           1           1          16           1           1
 AtmWgt=  15.9949146   1.0078250   1.0078250  15.9949146   1.0078250   1.0078250
 NucSpn=           0           1           1           0           1           1
 AtZEff=  -0.0000000  -0.0000000  -0.0000000  -0.0000000  -0.0000000  -0.0000000
 NQMom=    0.0000000   0.0000000   0.0000000   0.0000000   0.0000000   0.0000000
 NMagM=    0.0000000   2.7928460   2.7928460   0.0000000   2.7928460   2.7928460
 AtZNuc=   8.0000000   1.0000000   1.0000000   8.0000000   1.0000000   1.0000000
 Leave Link  101 at Sun Dec 10 06:40:43 2023, MaxMem=   536870912 cpu:               0.3 elap:               0.1
 (Enter /usr/site/hpc/x86_64/glibc-2.17/broadwell/gaussian/g16_a.03/pgi-16.5/g16/l202.exe)
                          Input orientation:                          
 ---------------------------------------------------------------------
 Center     Atomic      Atomic             Coordinates (Angstroms)
 Number     Number       Type             X           Y           Z
 ---------------------------------------------------------------------
      1          8           0        0.000000   -0.009833    0.000000
      2          1           0       -0.799571   -0.580965    0.000000
      3          1           0        0.799571   -0.580965    0.000000
      4          8           0       -0.003161    2.500965    0.000000
      5          1           0        0.570393    3.298801    0.000000
      6          1           0       -0.943883    2.784773    0.000000
 ---------------------------------------------------------------------
                    Distance matrix (angstroms):
                    1          2          3          4          5
     1  O    0.000000
     2  H    0.982601   0.000000
     3  H    0.982601   1.599142   0.000000
     4  O    2.510800   3.183168   3.184756   0.000000
     5  H    3.357441   4.114533   3.886529   0.982602   0.000000
     6  H    2.949701   3.368830   3.790491   0.982601   1.599142
                    6
     6  H    0.000000
 Stoichiometry    H4O2
 Framework group  CS[SG(H4O2)]
 Deg. of freedom     9
 Full point group                 CS      NOp   2
 Largest Abelian subgroup         CS      NOp   2
 Largest concise Abelian subgroup C1      NOp   1
                         Standard orientation:                         
 ---------------------------------------------------------------------
 Center     Atomic      Atomic             Coordinates (Angstroms)
 Number     Number       Type             X           Y           Z
 ---------------------------------------------------------------------
      1          8           0        0.018362   -1.252392    0.000000
      2          1           0       -0.781927   -1.822517    0.000000
      3          1           0        0.817214   -1.824530    0.000000
      4          8           0        0.018362    1.258408    0.000000
      5          1           0        0.592920    2.055521    0.000000
      6          1           0       -0.922002    1.543400    0.000000
 ---------------------------------------------------------------------
 Rotational constants (GHZ):         201.5441705           7.9238099           7.6240659
 Leave Link  202 at Sun Dec 10 06:40:43 2023, MaxMem=   536870912 cpu:               0.1 elap:               0.0
 (Enter /usr/site/hpc/x86_64/glibc-2.17/broadwell/gaussian/g16_a.03/pgi-16.5/g16/l301.exe)
 Standard basis: CEP-31G (6D, 10F)
 Ernie: Thresh=  0.10000D-02 Tol=  0.10000D-05 Strict=F.
 There are    20 symmetry adapted cartesian basis functions of A'  symmetry.
 There are     4 symmetry adapted cartesian basis functions of A"  symmetry.
 There are    20 symmetry adapted basis functions of A'  symmetry.
 There are     4 symmetry adapted basis functions of A"  symmetry.
    24 basis functions,    48 primitive gaussians,    24 cartesian basis functions
     8 alpha electrons        8 beta electrons
       nuclear repulsion energy        25.7522792634 Hartrees.
 IExCor=    0 DFT=F Ex=HF Corr=None ExCW=0 ScaHFX=  1.000000
 ScaDFX=  1.000000  1.000000  1.000000  1.000000 ScalE2=  1.000000  1.000000
 IRadAn=      5 IRanWt=     -1 IRanGd=            0 ICorTp=0 IEmpDi=  4
 NAtoms=    6 NActive=    6 NUniq=    6 SFac= 1.00D+00 NAtFMM=   60 NAOKFM=F Big=F
 Integral buffers will be    131072 words long.
 Raffenetti 1 integral format.
 Two-electron integral symmetry is turned on.
 Leave Link  301 at Sun Dec 10 06:40:43 2023, MaxMem=   536870912 cpu:               0.2 elap:               0.1
 (Enter /usr/site/hpc/x86_64/glibc-2.17/broadwell/gaussian/g16_a.03/pgi-16.5/g16/l302.exe)
 NPDir=0 NMtPBC=     1 NCelOv=     1 NCel=       1 NClECP=     1 NCelD=      1
         NCelK=      1 NCelE2=     1 NClLst=     1 CellRange=     0.0.
 One-electron integrals computed using PRISM.
 One-electron integral symmetry used in STVInt
   2 Symmetry operations used in ECPInt.
 ECPInt:  NShTT=      78 NPrTT=     318 LenC2=      79 LenP2D=     287.
 LDataN:  DoStor=T MaxTD1= 2 Len=   12
 NBasis=    24 RedAO= T EigKep=  3.83D-02  NBF=    20     4
 NBsUse=    24 1.00D-06 EigRej= -1.00D+00 NBFU=    20     4
 Leave Link  302 at Sun Dec 10 06:40:44 2023, MaxMem=   536870912 cpu:               0.3 elap:               0.1
 (Enter /usr/site/hpc/x86_64/glibc-2.17/broadwell/gaussian/g16_a.03/pgi-16.5/g16/l303.exe)
 DipDrv:  MaxL=1.
 Leave Link  303 at Sun Dec 10 06:40:44 2023, MaxMem=   536870912 cpu:               0.1 elap:               0.0
 (Enter /usr/site/hpc/x86_64/glibc-2.17/broadwell/gaussian/g16_a.03/pgi-16.5/g16/l401.exe)
 ExpMin= 1.78D-01 ExpMax= 1.92D+01 ExpMxC= 1.92D+01 IAcc=3 IRadAn=         5 AccDes= 0.00D+00
 Harris functional with IExCor=  205 and IRadAn=       5 diagonalized for initial guess.
 HarFok:  IExCor=  205 AccDes= 0.00D+00 IRadAn=         5 IDoV= 1 UseB2=F ITyADJ=14
 ICtDFT=  3500011 ScaDFX=  1.000000  1.000000  1.000000  1.000000
 FoFCou: FMM=F IPFlag=           0 FMFlag=      100000 FMFlg1=           0
         NFxFlg=           0 DoJE=T BraDBF=F KetDBF=T FulRan=T
         wScrn=  0.000000 ICntrl=       500 IOpCl=  0 I1Cent=   200000004 NGrid=           0
         NMat0=    1 NMatS0=      1 NMatT0=    0 NMatD0=    1 NMtDS0=    0 NMtDT0=    0
 Petite list used in FoFCou.
 Harris En= -34.4762579869556    
 JPrj=0 DoOrth=F DoCkMO=F.
 Initial guess orbital symmetries:
       Occupied  (A') (A') (A') (A') (A') (A') (A") (A")
       Virtual   (A') (A') (A') (A') (A") (A') (A') (A") (A') (A')
                 (A') (A') (A') (A') (A') (A')
 The electronic state of the initial guess is 1-A'.
 Leave Link  401 at Sun Dec 10 06:40:44 2023, MaxMem=   536870912 cpu:               0.4 elap:               0.1
 (Enter /usr/site/hpc/x86_64/glibc-2.17/broadwell/gaussian/g16_a.03/pgi-16.5/g16/l502.exe)
 Keep R1 ints in memory in symmetry-blocked form, NReq=852600.
 FoFCou: FMM=F IPFlag=           0 FMFlag=           0 FMFlg1=           0
         NFxFlg=           0 DoJE=F BraDBF=F KetDBF=F FulRan=T
         wScrn=  0.000000 ICntrl=       600 IOpCl=  0 I1Cent=           0 NGrid=           0
         NMat0=    1 NMatS0=    300 NMatT0=    0 NMatD0=    1 NMtDS0=    0 NMtDT0=    0
 Petite list used in FoFCou.
 Closed shell SCF:
 Using DIIS extrapolation, IDIIS=  1040.
 NGot=   536870912 LenX=   536840576 LenY=   536839559
 Requested convergence on RMS density matrix=1.00D-08 within 128 cycles.
 Requested convergence on MAX density matrix=1.00D-06.
 Requested convergence on             energy=1.00D-06.
 No special actions if energy rises.

 Cycle   1  Pass 1  IDiag  1:
 E= -33.5266813007806    
 DIIS: error= 7.31D-02 at cycle   1 NSaved=   1.
 NSaved= 1 IEnMin= 1 EnMin= -33.5266813007806     IErMin= 1 ErrMin= 7.31D-02
 ErrMax= 7.31D-02  0.00D+00 EMaxC= 1.00D-01 BMatC= 1.11D-01 BMatP= 1.11D-01
 IDIUse=3 WtCom= 2.69D-01 WtEn= 7.31D-01
 Coeff-Com:  0.100D+01
 Coeff-En:   0.100D+01
 Coeff:      0.100D+01
 Gap=     0.566 Goal=   None    Shift=    0.000
 GapD=    0.566 DampG=2.000 DampE=0.500 DampFc=1.0000 IDamp=-1.
 RMSDP=1.66D-02 MaxDP=1.21D-01              OVMax= 1.10D-01

 Cycle   2  Pass 1  IDiag  1:
 E= -33.5969887480822     Delta-E=       -0.070307447302 Rises=F Damp=F
 DIIS: error= 3.96D-02 at cycle   2 NSaved=   2.
 NSaved= 2 IEnMin= 2 EnMin= -33.5969887480822     IErMin= 2 ErrMin= 3.96D-02
 ErrMax= 3.96D-02  0.00D+00 EMaxC= 1.00D-01 BMatC= 4.26D-02 BMatP= 1.11D-01
 IDIUse=3 WtCom= 6.04D-01 WtEn= 3.96D-01
 Coeff-Com:  0.379D+00 0.621D+00
 Coeff-En:   0.949D-01 0.905D+00
 Coeff:      0.267D+00 0.733D+00
 Gap=     0.682 Goal=   None    Shift=    0.000
 RMSDP=7.13D-03 MaxDP=5.80D-02 DE=-7.03D-02 OVMax= 3.67D-02

 Cycle   3  Pass 1  IDiag  1:
 E= -33.6304014505157     Delta-E=       -0.033412702433 Rises=F Damp=F
 DIIS: error= 8.37D-03 at cycle   3 NSaved=   3.
 NSaved= 3 IEnMin= 3 EnMin= -33.6304014505157     IErMin= 3 ErrMin= 8.37D-03
 ErrMax= 8.37D-03  0.00D+00 EMaxC= 1.00D-01 BMatC= 1.27D-03 BMatP= 4.26D-02
 IDIUse=3 WtCom= 9.16D-01 WtEn= 8.37D-02
 Coeff-Com: -0.110D+00 0.106D-01 0.110D+01
 Coeff-En:   0.000D+00 0.000D+00 0.100D+01
 Coeff:     -0.100D+00 0.971D-02 0.109D+01
 Gap=     0.673 Goal=   None    Shift=    0.000
 RMSDP=1.38D-03 MaxDP=1.07D-02 DE=-3.34D-02 OVMax= 9.51D-03

 Cycle   4  Pass 1  IDiag  1:
 E= -33.6316576148798     Delta-E=       -0.001256164364 Rises=F Damp=F
 DIIS: error= 9.51D-04 at cycle   4 NSaved=   4.
 NSaved= 4 IEnMin= 4 EnMin= -33.6316576148798     IErMin= 4 ErrMin= 9.51D-04
 ErrMax= 9.51D-04  0.00D+00 EMaxC= 1.00D-01 BMatC= 9.23D-06 BMatP= 1.27D-03
 IDIUse=3 WtCom= 9.90D-01 WtEn= 9.51D-03
 Coeff-Com:  0.387D-01-0.293D-01-0.457D+00 0.145D+01
 Coeff-En:   0.000D+00 0.000D+00 0.000D+00 0.100D+01
 Coeff:      0.384D-01-0.291D-01-0.453D+00 0.144D+01
 Gap=     0.675 Goal=   None    Shift=    0.000
 RMSDP=2.65D-04 MaxDP=2.33D-03 DE=-1.26D-03 OVMax= 1.11D-03

 Cycle   5  Pass 1  IDiag  1:
 E= -33.6316752456688     Delta-E=       -0.000017630789 Rises=F Damp=F
 DIIS: error= 8.10D-05 at cycle   5 NSaved=   5.
 NSaved= 5 IEnMin= 5 EnMin= -33.6316752456688     IErMin= 5 ErrMin= 8.10D-05
 ErrMax= 8.10D-05  0.00D+00 EMaxC= 1.00D-01 BMatC= 8.84D-08 BMatP= 9.23D-06
 IDIUse=1 WtCom= 1.00D+00 WtEn= 0.00D+00
 Coeff-Com: -0.763D-02 0.606D-02 0.882D-01-0.352D+00 0.127D+01
 Coeff:     -0.763D-02 0.606D-02 0.882D-01-0.352D+00 0.127D+01
 Gap=     0.675 Goal=   None    Shift=    0.000
 RMSDP=2.68D-05 MaxDP=2.56D-04 DE=-1.76D-05 OVMax= 2.01D-04

 Cycle   6  Pass 1  IDiag  1:
 E= -33.6316754768695     Delta-E=       -0.000000231201 Rises=F Damp=F
 DIIS: error= 1.41D-05 at cycle   6 NSaved=   6.
 NSaved= 6 IEnMin= 6 EnMin= -33.6316754768695     IErMin= 6 ErrMin= 1.41D-05
 ErrMax= 1.41D-05  0.00D+00 EMaxC= 1.00D-01 BMatC= 4.70D-09 BMatP= 8.84D-08
 IDIUse=1 WtCom= 1.00D+00 WtEn= 0.00D+00
 Coeff-Com: -0.190D-03 0.353D-03 0.355D-02-0.212D-02-0.161D+00 0.116D+01
 Coeff:     -0.190D-03 0.353D-03 0.355D-02-0.212D-02-0.161D+00 0.116D+01
 Gap=     0.675 Goal=   None    Shift=    0.000
 RMSDP=5.06D-06 MaxDP=5.63D-05 DE=-2.31D-07 OVMax= 4.44D-05

 Cycle   7  Pass 1  IDiag  1:
 E= -33.6316754870854     Delta-E=       -0.000000010216 Rises=F Damp=F
 DIIS: error= 4.39D-06 at cycle   7 NSaved=   7.
 NSaved= 7 IEnMin= 7 EnMin= -33.6316754870854     IErMin= 7 ErrMin= 4.39D-06
 ErrMax= 4.39D-06  0.00D+00 EMaxC= 1.00D-01 BMatC= 8.37D-10 BMatP= 4.70D-09
 IDIUse=1 WtCom= 1.00D+00 WtEn= 0.00D+00
 Coeff-Com:  0.831D-03-0.593D-03-0.919D-02 0.389D-01-0.174D+00 0.286D+00
 Coeff-Com:  0.858D+00
 Coeff:      0.831D-03-0.593D-03-0.919D-02 0.389D-01-0.174D+00 0.286D+00
 Coeff:      0.858D+00
 Gap=     0.675 Goal=   None    Shift=    0.000
 RMSDP=1.64D-06 MaxDP=1.63D-05 DE=-1.02D-08 OVMax= 1.39D-05

 Cycle   8  Pass 1  IDiag  1:
 E= -33.6316754883996     Delta-E=       -0.000000001314 Rises=F Damp=F
 DIIS: error= 1.43D-06 at cycle   8 NSaved=   8.
 NSaved= 8 IEnMin= 8 EnMin= -33.6316754883996     IErMin= 8 ErrMin= 1.43D-06
 ErrMax= 1.43D-06  0.00D+00 EMaxC= 1.00D-01 BMatC= 5.23D-11 BMatP= 8.37D-10
 IDIUse=1 WtCom= 1.00D+00 WtEn= 0.00D+00
 Coeff-Com:  0.173D-04-0.646D-04-0.462D-03-0.320D-03 0.301D-01-0.157D+00
 Coeff-Com: -0.115D+00 0.124D+01
 Coeff:      0.173D-04-0.646D-04-0.462D-03-0.320D-03 0.301D-01-0.157D+00
 Coeff:     -0.115D+00 0.124D+01
 Gap=     0.675 Goal=   None    Shift=    0.000
 RMSDP=9.06D-07 MaxDP=5.24D-06 DE=-1.31D-09 OVMax= 6.30D-06

 Cycle   9  Pass 1  IDiag  1:
 E= -33.6316754885498     Delta-E=       -0.000000000150 Rises=F Damp=F
 DIIS: error= 3.11D-07 at cycle   9 NSaved=   9.
 NSaved= 9 IEnMin= 9 EnMin= -33.6316754885498     IErMin= 9 ErrMin= 3.11D-07
 ErrMax= 3.11D-07  0.00D+00 EMaxC= 1.00D-01 BMatC= 1.63D-12 BMatP= 5.23D-11
 IDIUse=1 WtCom= 1.00D+00 WtEn= 0.00D+00
 Coeff-Com:  0.157D-05 0.157D-04 0.770D-04 0.271D-03-0.968D-02 0.516D-01
 Coeff-Com:  0.226D-01-0.481D+00 0.142D+01
 Coeff:      0.157D-05 0.157D-04 0.770D-04 0.271D-03-0.968D-02 0.516D-01
 Coeff:      0.226D-01-0.481D+00 0.142D+01
 Gap=     0.675 Goal=   None    Shift=    0.000
 RMSDP=2.26D-07 MaxDP=1.03D-06 DE=-1.50D-10 OVMax= 1.47D-06

 Cycle  10  Pass 1  IDiag  1:
 E= -33.6316754885551     Delta-E=       -0.000000000005 Rises=F Damp=F
 DIIS: error= 1.72D-08 at cycle  10 NSaved=  10.
 NSaved=10 IEnMin=10 EnMin= -33.6316754885551     IErMin=10 ErrMin= 1.72D-08
 ErrMax= 1.72D-08  0.00D+00 EMaxC= 1.00D-01 BMatC= 5.46D-15 BMatP= 1.63D-12
 IDIUse=1 WtCom= 1.00D+00 WtEn= 0.00D+00
 Coeff-Com:  0.174D-06-0.287D-05-0.177D-04-0.192D-04 0.150D-02-0.851D-02
 Coeff-Com: -0.327D-02 0.803D-01-0.283D+00 0.121D+01
 Coeff:      0.174D-06-0.287D-05-0.177D-04-0.192D-04 0.150D-02-0.851D-02
 Coeff:     -0.327D-02 0.803D-01-0.283D+00 0.121D+01
 Gap=     0.675 Goal=   None    Shift=    0.000
 RMSDP=1.39D-08 MaxDP=7.28D-08 DE=-5.27D-12 OVMax= 9.14D-08

 Cycle  11  Pass 1  IDiag  1:
 E= -33.6316754885551     Delta-E=        0.000000000000 Rises=F Damp=F
 DIIS: error= 1.09D-09 at cycle  11 NSaved=  11.
 NSaved=11 IEnMin=10 EnMin= -33.6316754885551     IErMin=11 ErrMin= 1.09D-09
 ErrMax= 1.09D-09  0.00D+00 EMaxC= 1.00D-01 BMatC= 3.76D-17 BMatP= 5.46D-15
 IDIUse=1 WtCom= 1.00D+00 WtEn= 0.00D+00
 Coeff-Com: -0.127D-06 0.689D-06 0.495D-05 0.580D-06-0.331D-03 0.193D-02
 Coeff-Com:  0.679D-03-0.183D-01 0.668D-01-0.321D+00 0.127D+01
 Coeff:     -0.127D-06 0.689D-06 0.495D-05 0.580D-06-0.331D-03 0.193D-02
 Coeff:      0.679D-03-0.183D-01 0.668D-01-0.321D+00 0.127D+01
 Gap=     0.675 Goal=   None    Shift=    0.000
 RMSDP=7.78D-10 MaxDP=4.04D-09 DE= 1.42D-14 OVMax= 4.60D-09

 SCF Done:  E(RHF) =  -33.6316754886     A.U. after   11 cycles
            NFock= 11  Conv=0.78D-09     -V/T= 2.2568
 KE= 2.676068301853D+01 PE=-1.335728937163D+02 EE= 4.742825594585D+01
 Leave Link  502 at Sun Dec 10 06:40:44 2023, MaxMem=   536870912 cpu:               0.3 elap:               0.1
 (Enter /usr/site/hpc/x86_64/glibc-2.17/broadwell/gaussian/g16_a.03/pgi-16.5/g16/l801.exe)
 Windowed orbitals will be sorted by symmetry type.
 Range of M.O.s used for correlation:     1    24
 NBasis=    24 NAE=     8 NBE=     8 NFC=     0 NFV=     0
 NROrb=     24 NOA=     8 NOB=     8 NVA=    16 NVB=    16
 Leave Link  801 at Sun Dec 10 06:40:44 2023, MaxMem=   536870912 cpu:               0.1 elap:               0.0
 (Enter /usr/site/hpc/x86_64/glibc-2.17/broadwell/gaussian/g16_a.03/pgi-16.5/g16/l804.exe)
 Closed-shell transformation, MDV=   536870912 ITran=4 ISComp=2.
 Unit  1 TFree=       1025975 TCopy=        210600.
 Semi-Direct transformation.
 ModeAB=           2 MOrb=             8 LenV=     536741681
 LASXX=        22470 LTotXX=       22470 LenRXX=       22470
 LTotAB=       26208 MaxLAS=       57600 LenRXY=       57600
 NonZer=       62208 LenScr=      524288 LnRSAI=           0
 LnScr1=           0 LExtra=           0 Total=       604358
 MaxDsk=          -1 SrtSym=           F ITran=            4
 DoSDTr:  NPSUse=  4
 JobTyp=0 Pass  1:  I=   1 to   8.
 (rs|ai) integrals will be sorted in core.
 Complete sort for first half transformation.
 First half transformation complete.
 Complete sort for second half transformation.
 Second half transformation complete.
 Spin components of T(2) and E(2):
     alpha-alpha T2 =       0.9130040737D-02 E2=     -0.2616772398D-01
     alpha-beta  T2 =       0.6031746699D-01 E2=     -0.1776708082D+00
     beta-beta   T2 =       0.9130040737D-02 E2=     -0.2616772398D-01
 ANorm=    0.1038545882D+01
 E2 =    -0.2300062562D+00 EUMP2 =    -0.33861681744744D+02
 Leave Link  804 at Sun Dec 10 06:40:44 2023, MaxMem=   536870912 cpu:               0.2 elap:               0.1
 (Enter /usr/site/hpc/x86_64/glibc-2.17/broadwell/gaussian/g16_a.03/pgi-16.5/g16/l913.exe)
 CIDS:  MDV=   536870912.
 IFCWin=0 IBDFC=1 NFBD=     0     0 NFCmp=     0     0 NFFFC=     0     0
 Using DD3R+UMP44R for 1st iteration.
 Using DD4RQ for 2nd and later iterations.
 Keep R2 and R3 ints in memory in symmetry-blocked form, NReq=865208.
 FoFCou: FMM=F IPFlag=           0 FMFlag=           0 FMFlg1=           0
         NFxFlg=           0 DoJE=F BraDBF=F KetDBF=F FulRan=T
         wScrn=  0.000000 ICntrl=       600 IOpCl=  0 I1Cent=           0 NGrid=           0
         NMat0=    1 NMatS0=    300 NMatT0=    0 NMatD0=    1 NMtDS0=    0 NMtDT0=    0
 Petite list used in FoFCou.
 CIDS: In Core Option IDoMem=           1.
 CCSD(T)
 =======
 Iterations=  50 Convergence= 0.100D-06
 Produce multiple copies of IABC intergrals
 Iteration Nr.   1
 **********************
 DD1Dir will call FoFMem   1 times, MxPair=        72
 NAB=    36 NAA=     0 NBB=     0.
 MP4(R+Q)= -0.56436522D-03
 Maximum subspace dimension=  5
 A-vector RMS=  6.0198382D-03 Max=  1.4387575D-02 conv= 1.00D-05.
 RLE energy=       -0.2361403520
 E3=       -0.56762278D-02        EUMP3=      -0.33867357972D+02
 E4(DQ)=   -0.58305897D-02        UMP4(DQ)=   -0.33873188562D+02
 E4(SDQ)=  -0.79453363D-02        UMP4(SDQ)=  -0.33875303309D+02
 VARIATIONAL ENERGIES WITH THE FIRST-ORDER WAVEFUNCTION:
 DE(Corr)= -0.23598133     E(Corr)=     -33.867656814    
 NORM(A)=   0.10421452D+01
 Iteration Nr.   2
 **********************
 DD1Dir will call FoFMem   1 times, MxPair=        72
 NAB=    36 NAA=     0 NBB=     0.
 A-vector RMS=  1.0419963D-03 Max=  2.0697567D-03 conv= 1.00D-05.
 RLE energy=       -0.2441014243
 DE(Corr)= -0.24212302     E(CORR)=     -33.873798513     Delta=-6.14D-03
 NORM(A)=   0.10461529D+01
 Iteration Nr.   3
 **********************
 DD1Dir will call FoFMem   1 times, MxPair=        72
 NAB=    36 NAA=     0 NBB=     0.
 A-vector RMS=  5.1440454D-04 Max=  2.1932749D-03 conv= 1.00D-05.
 RLE energy=       -0.2446666401
 DE(Corr)= -0.24418698     E(CORR)=     -33.875862472     Delta=-2.06D-03
 NORM(A)=   0.10468030D+01
 Iteration Nr.   4
 **********************
 DD1Dir will call FoFMem   1 times, MxPair=        72
 NAB=    36 NAA=     0 NBB=     0.
 A-vector RMS=  1.2775896D-04 Max=  4.4564930D-04 conv= 1.00D-05.
 RLE energy=       -0.2447222020
 DE(Corr)= -0.24468025     E(CORR)=     -33.876355737     Delta=-4.93D-04
 NORM(A)=   0.10469105D+01
 Iteration Nr.   5
 **********************
 DD1Dir will call FoFMem   1 times, MxPair=        72
 NAB=    36 NAA=     0 NBB=     0.
 A-vector RMS=  6.2659865D-05 Max=  2.9249745D-04 conv= 1.00D-05.
 RLE energy=       -0.2447213298
 DE(Corr)= -0.24471713     E(CORR)=     -33.876392618     Delta=-3.69D-05
 NORM(A)=   0.10469329D+01
 Iteration Nr.   6
 **********************
 DD1Dir will call FoFMem   1 times, MxPair=        72
 NAB=    36 NAA=     0 NBB=     0.
 A-vector RMS=  2.0056204D-05 Max=  8.5916302D-05 conv= 1.00D-05.
 RLE energy=       -0.2447163187
 DE(Corr)= -0.24472050     E(CORR)=     -33.876395992     Delta=-3.37D-06
 NORM(A)=   0.10469382D+01
 Iteration Nr.   7
 **********************
 DD1Dir will call FoFMem   1 times, MxPair=        72
 NAB=    36 NAA=     0 NBB=     0.
 A-vector RMS=  6.2750267D-06 Max=  2.6354188D-05 conv= 1.00D-05.
 RLE energy=       -0.2447187451
 DE(Corr)= -0.24471971     E(CORR)=     -33.876395198     Delta= 7.93D-07
 NORM(A)=   0.10469411D+01
 Iteration Nr.   8
 **********************
 DD1Dir will call FoFMem   1 times, MxPair=        72
 NAB=    36 NAA=     0 NBB=     0.
 A-vector RMS=  2.0551298D-06 Max=  9.0491648D-06 conv= 1.00D-05.
 RLE energy=       -0.2447189444
 DE(Corr)= -0.24471913     E(CORR)=     -33.876394617     Delta= 5.82D-07
 NORM(A)=   0.10469420D+01
 Iteration Nr.   9
 **********************
 DD1Dir will call FoFMem   1 times, MxPair=        72
 NAB=    36 NAA=     0 NBB=     0.
 A-vector RMS=  4.7601501D-07 Max=  1.9067773D-06 conv= 1.00D-05.
 RLE energy=       -0.2447193279
 DE(Corr)= -0.24471934     E(CORR)=     -33.876394831     Delta=-2.14D-07
 NORM(A)=   0.10469424D+01
 Iteration Nr.  10
 **********************
 DD1Dir will call FoFMem   1 times, MxPair=        72
 NAB=    36 NAA=     0 NBB=     0.
 A-vector RMS=  1.6776049D-07 Max=  7.1290075D-07 conv= 1.00D-05.
 RLE energy=       -0.2447194907
 DE(Corr)= -0.24471945     E(CORR)=     -33.876394939     Delta=-1.08D-07
 NORM(A)=   0.10469425D+01
 Iteration Nr.  11
 **********************
 DD1Dir will call FoFMem   1 times, MxPair=        72
 NAB=    36 NAA=     0 NBB=     0.
 A-vector RMS=  5.4404853D-08 Max=  1.8454299D-07 conv= 1.00D-05.
 RLE energy=       -0.2447195429
 DE(Corr)= -0.24471952     E(CORR)=     -33.876395013     Delta=-7.37D-08
 NORM(A)=   0.10469426D+01
 CI/CC converged in   11 iterations to DelEn=-7.37D-08 Conv= 1.00D-07 ErrA1= 5.44D-08 Conv= 1.00D-05
 Wavefunction amplitudes converged. E(Corr)=     -33.876395013    
 Largest amplitude= 3.17D-02
 IPart=  4 IA=    2   12.50% done.
 IPart=  2 IA=    3   24.17% done.
 IPart=  3 IA=    4   35.00% done.
 IPart=  3 IA=    5   45.00% done.
 IPart=  2 IA=    6   54.17% done.
 IPart=  1 IA=    7   62.50% done.
 IPart=  4 IA=    8   70.00% done.
 IPart=  1 IA=   10   82.50% done.
 IPart=  4 IA=   12   91.67% done.
 Time for triples=        0.25 seconds.
 T4(CCSD)= -0.32670147D-02
 T5(CCSD)=  0.55130457D-03
 CCSD(T)= -0.33879110723D+02
 Discarding MO integrals.
 Leave Link  913 at Sun Dec 10 06:40:44 2023, MaxMem=   536870912 cpu:               1.0 elap:               0.3
 (Enter /usr/site/hpc/x86_64/glibc-2.17/broadwell/gaussian/g16_a.03/pgi-16.5/g16/l601.exe)
 Copying SCF densities to generalized density rwf, IOpCl= 0 IROHF=0.

 **********************************************************************

            Population analysis using the SCF density.

 **********************************************************************

 Orbital symmetries:
       Occupied  (A') (A') (A') (A') (A') (A') (A") (A")
       Virtual   (A') (A') (A') (A') (A") (A') (A') (A") (A') (A')
                 (A') (A') (A') (A') (A') (A')
 The electronic state is 1-A'.
 Alpha  occ. eigenvalues --   -1.32888  -1.32129  -0.68422  -0.67809  -0.54767
 Alpha  occ. eigenvalues --   -0.48014  -0.47602  -0.46155
 Alpha virt. eigenvalues --    0.21343   0.24214   0.32566   0.32871   0.79384
 Alpha virt. eigenvalues --    0.79751   0.88468   0.88727   1.02691   1.11461
 Alpha virt. eigenvalues --    1.19606   1.22067   1.24217   1.25450   2.55623
 Alpha virt. eigenvalues --    2.78837
          Condensed to atoms (all electrons):
               1          2          3          4          5          6
     1  O    6.249856   0.250895   0.259716  -0.059498   0.001096   0.002758
     2  H    0.250895   0.426025  -0.024347   0.001630  -0.000012  -0.000076
     3  H    0.259716  -0.024347   0.405322   0.001944  -0.000015  -0.000065
     4  O   -0.059498   0.001630   0.001944   6.245567   0.250871   0.257507
     5  H    0.001096  -0.000012  -0.000015   0.250871   0.423555  -0.024163
     6  H    0.002758  -0.000076  -0.000065   0.257507  -0.024163   0.413192
 Mulliken charges:
               1
     1  O   -0.704824
     2  H    0.345884
     3  H    0.357446
     4  O   -0.698021
     5  H    0.348667
     6  H    0.350848
 Sum of Mulliken charges =   0.00000
 Mulliken charges with hydrogens summed into heavy atoms:
               1
     1  O   -0.001494
     4  O    0.001494
 Electronic spatial extent (au):  <R**2>=            141.1534
 Charge=              0.0000 electrons
 Dipole moment (field-independent basis, Debye):
    X=             -0.7844    Y=             -0.1454    Z=              0.0000  Tot=              0.7978
 Quadrupole moment (field-independent basis, Debye-Ang):
   XX=             -8.4437   YY=              0.0379   ZZ=            -14.9947
   XY=             -0.6105   XZ=              0.0000   YZ=              0.0000
 Traceless Quadrupole moment (field-independent basis, Debye-Ang):
   XX=             -0.6436   YY=              7.8381   ZZ=             -7.1945
   XY=             -0.6105   XZ=              0.0000   YZ=              0.0000
 Octapole moment (field-independent basis, Debye-Ang**2):
  XXX=             -1.1157  YYY=              0.2592  ZZZ=              0.0000  XYY=              0.7959
  XXY=             -0.6329  XXZ=              0.0000  XZZ=             -0.1381  YZZ=             -0.0265
  YYZ=              0.0000  XYZ=              0.0000
 Hexadecapole moment (field-independent basis, Debye-Ang**3):
 XXXX=            -12.3443 YYYY=            -92.4099 ZZZZ=            -12.2339 XXXY=             -1.3384
 XXXZ=              0.0000 YYYX=              3.2032 YYYZ=              0.0000 ZZZX=              0.0000
 ZZZY=              0.0000 XXYY=            -13.8605 XXZZ=             -4.6652 YYZZ=            -30.2896
 XXYZ=              0.0000 YYXZ=              0.0000 ZZXY=              0.0950
 N-N= 2.575227926341D+01 E-N=-1.335728937277D+02  KE= 2.676068301853D+01
 Symmetry A'   KE= 1.788618808827D+01
 Symmetry A"   KE= 8.874494930259D+00
 Leave Link  601 at Sun Dec 10 06:40:44 2023, MaxMem=   536870912 cpu:               0.1 elap:               0.0
 (Enter /usr/site/hpc/x86_64/glibc-2.17/broadwell/gaussian/g16_a.03/pgi-16.5/g16/l9999.exe)
 1\1\GINC-N033\SP\RCCSD(T)-FC\CEP-31G\H4O2\ROOT\10-Dec-2023\0\\#p CCSD(
 T)/CEP-31G\\H2O_H2O_855\\0,1\O,0,0.,-0.009833,0.\H,0,-0.799571,-0.5809
 65,0.\H,0,0.799571,-0.580965,0.\O,0,-0.003161,2.500965,0.\H,0,0.570393
 ,3.298801,0.\H,0,-0.943883,2.784773,0.\\Version=ES64L-G16RevA.03\State
 =1-A'\HF=-33.6316755\MP2=-33.8616817\MP3=-33.867358\MP4D=-33.8726242\M
 P4DQ=-33.8731886\MP4SDQ=-33.8753033\CCSD=-33.876395\CCSD(T)=-33.879110
 7\RMSD=7.784e-10\PG=CS [SG(H4O2)]\\@


 THERE ARE PEOPLE SO ADDICTED TO EXAGERATING THEY
 CAN'T TELL THE TRUTH WITHOUT LYING. -- FORTUNE COOKIE
 Job cpu time:       0 days  0 hours  0 minutes  3.4 seconds.
 Elapsed time:       0 days  0 hours  0 minutes  1.0 seconds.
 File lengths (MBytes):  RWF=     72 Int=      0 D2E=      0 Chk=      8 Scr=      8
 Normal termination of Gaussian 16 at Sun Dec 10 06:40:44 2023.
