 Entering Gaussian System, Link 0=g16
 Input=H2O_H2O_1848.com
 Output=H2O_H2O_1848.log
 Initial command:
 /usr/site/hpc/x86_64/glibc-2.17/broadwell/gaussian/g16_a.03/pgi-16.5/g16/l1.exe "/gpfs/gpfs1/scratch/c7441090/OO Coord/Gau-1324057.inp" -scrdir="/gpfs/gpfs1/scratch/c7441090/OO Coord/"
 Entering Link 1 = /usr/site/hpc/x86_64/glibc-2.17/broadwell/gaussian/g16_a.03/pgi-16.5/g16/l1.exe PID=   1324058.
  
 Copyright (c) 1988,1990,1992,1993,1995,1998,2003,2009,2016,
            Gaussian, Inc.  All Rights Reserved.
  
 This is part of the Gaussian(R) 16 program.  It is based on
 the Gaussian(R) 09 system (copyright 2009, Gaussian, Inc.),
 the Gaussian(R) 03 system (copyright 2003, Gaussian, Inc.),
 the Gaussian(R) 98 system (copyright 1998, Gaussian, Inc.),
 the Gaussian(R) 94 system (copyright 1995, Gaussian, Inc.),
 the Gaussian 92(TM) system (copyright 1992, Gaussian, Inc.),
 the Gaussian 90(TM) system (copyright 1990, Gaussian, Inc.),
 the Gaussian 88(TM) system (copyright 1988, Gaussian, Inc.),
 the Gaussian 86(TM) system (copyright 1986, Carnegie Mellon
 University), and the Gaussian 82(TM) system (copyright 1983,
 Carnegie Mellon University). Gaussian is a federally registered
 trademark of Gaussian, Inc.
  
 This software contains proprietary and confidential information,
 including trade secrets, belonging to Gaussian, Inc.
  
 This software is provided under written license and may be
 used, copied, transmitted, or stored only in accord with that
 written license.
  
 The following legend is applicable only to US Government
 contracts under FAR:
  
                    RESTRICTED RIGHTS LEGEND
  
 Use, reproduction and disclosure by the US Government is
 subject to restrictions as set forth in subparagraphs (a)
 and (c) of the Commercial Computer Software - Restricted
 Rights clause in FAR 52.227-19.
  
 Gaussian, Inc.
 340 Quinnipiac St., Bldg. 40, Wallingford CT 06492
  
  
 ---------------------------------------------------------------
 Warning -- This program may not be used in any manner that
 competes with the business of Gaussian, Inc. or will provide
 assistance to any competitor of Gaussian, Inc.  The licensee
 of this program is prohibited from giving any competitor of
 Gaussian, Inc. access to this program.  By using this program,
 the user acknowledges that Gaussian, Inc. is engaged in the
 business of creating and licensing software in the field of
 computational chemistry and represents and warrants to the
 licensee that it is not a competitor of Gaussian, Inc. and that
 it will not use this program in any manner prohibited above.
 ---------------------------------------------------------------
  

 Cite this work as:
 Gaussian 16, Revision A.03,
 M. J. Frisch, G. W. Trucks, H. B. Schlegel, G. E. Scuseria, 
 M. A. Robb, J. R. Cheeseman, G. Scalmani, V. Barone, 
 G. A. Petersson, H. Nakatsuji, X. Li, M. Caricato, A. V. Marenich, 
 J. Bloino, B. G. Janesko, R. Gomperts, B. Mennucci, H. P. Hratchian, 
 J. V. Ortiz, A. F. Izmaylov, J. L. Sonnenberg, D. Williams-Young, 
 F. Ding, F. Lipparini, F. Egidi, J. Goings, B. Peng, A. Petrone, 
 T. Henderson, D. Ranasinghe, V. G. Zakrzewski, J. Gao, N. Rega, 
 G. Zheng, W. Liang, M. Hada, M. Ehara, K. Toyota, R. Fukuda, 
 J. Hasegawa, M. Ishida, T. Nakajima, Y. Honda, O. Kitao, H. Nakai, 
 T. Vreven, K. Throssell, J. A. Montgomery, Jr., J. E. Peralta, 
 F. Ogliaro, M. J. Bearpark, J. J. Heyd, E. N. Brothers, K. N. Kudin, 
 V. N. Staroverov, T. A. Keith, R. Kobayashi, J. Normand, 
 K. Raghavachari, A. P. Rendell, J. C. Burant, S. S. Iyengar, 
 J. Tomasi, M. Cossi, J. M. Millam, M. Klene, C. Adamo, R. Cammi, 
 J. W. Ochterski, R. L. Martin, K. Morokuma, O. Farkas, 
 J. B. Foresman, and D. J. Fox, Gaussian, Inc., Wallingford CT, 2016.
 
 ******************************************
 Gaussian 16:  ES64L-G16RevA.03 25-Dec-2016
                10-Dec-2023 
 ******************************************
 %NProcShared=4
 Will use up to    4 processors via shared memory.
 %Mem=4GB
 %Chk=H2O_H2O_1848.chk
 ------------------
 #p CCSD(T)/CEP-31G
 ------------------
 1/38=1,172=1/1;
 2/12=2,17=6,18=5,40=1/2;
 3/5=9,6=1,11=9,25=1,30=1/1,2,3;
 4//1;
 5/5=2,38=5/2;
 8/6=4,9=120000,10=1/1,4;
 9/5=7,14=2/13;
 6/7=2,8=2,9=2,10=2/1;
 99/5=1,9=1/99;
 Leave Link    1 at Sun Dec 10 06:59:12 2023, MaxMem=   536870912 cpu:               0.2 elap:               0.1
 (Enter /usr/site/hpc/x86_64/glibc-2.17/broadwell/gaussian/g16_a.03/pgi-16.5/g16/l101.exe)
 ------------
 H2O_H2O_1848
 ------------
 Symbolic Z-matrix:
 Charge =  0 Multiplicity = 1
 O                     0.       -0.00983   0. 
 H                    -0.79957  -0.58097   0. 
 H                     0.79957  -0.58097   0. 
 O                    -0.00981   3.52938   0. 
 H                    -0.52743   4.36459   0. 
 H                    -0.63202   2.76887   0. 
 
 ITRead=  0  0  0  0  0  0
 MicOpt= -1 -1 -1 -1 -1 -1
 NAtoms=      6 NQM=        6 NQMF=       0 NMMI=      0 NMMIF=      0
                NMic=       0 NMicF=      0.
                    Isotopes and Nuclear Properties:
 (Nuclear quadrupole moments (NQMom) in fm**2, nuclear magnetic moments (NMagM)
  in nuclear magnetons)

  Atom         1           2           3           4           5           6
 IAtWgt=          16           1           1          16           1           1
 AtmWgt=  15.9949146   1.0078250   1.0078250  15.9949146   1.0078250   1.0078250
 NucSpn=           0           1           1           0           1           1
 AtZEff=  -0.0000000  -0.0000000  -0.0000000  -0.0000000  -0.0000000  -0.0000000
 NQMom=    0.0000000   0.0000000   0.0000000   0.0000000   0.0000000   0.0000000
 NMagM=    0.0000000   2.7928460   2.7928460   0.0000000   2.7928460   2.7928460
 AtZNuc=   8.0000000   1.0000000   1.0000000   8.0000000   1.0000000   1.0000000
 Leave Link  101 at Sun Dec 10 06:59:12 2023, MaxMem=   536870912 cpu:               0.3 elap:               0.1
 (Enter /usr/site/hpc/x86_64/glibc-2.17/broadwell/gaussian/g16_a.03/pgi-16.5/g16/l202.exe)
                          Input orientation:                          
 ---------------------------------------------------------------------
 Center     Atomic      Atomic             Coordinates (Angstroms)
 Number     Number       Type             X           Y           Z
 ---------------------------------------------------------------------
      1          8           0        0.000000   -0.009833    0.000000
      2          1           0       -0.799571   -0.580965    0.000000
      3          1           0        0.799571   -0.580965    0.000000
      4          8           0       -0.009812    3.529378    0.000000
      5          1           0       -0.527427    4.364591    0.000000
      6          1           0       -0.632016    2.768872    0.000000
 ---------------------------------------------------------------------
                    Distance matrix (angstroms):
                    1          2          3          4          5
     1  O    0.000000
     2  H    0.982601   0.000000
     3  H    0.982601   1.599142   0.000000
     4  O    3.539225   4.185527   4.189274   0.000000
     5  H    4.406105   4.953038   5.120493   0.982602   0.000000
     6  H    2.849675   3.354025   3.642918   0.982602   1.599143
                    6
     6  H    0.000000
 Stoichiometry    H4O2
 Framework group  CS[SG(H4O2)]
 Deg. of freedom     9
 Full point group                 CS      NOp   2
 Largest Abelian subgroup         CS      NOp   2
 Largest concise Abelian subgroup C1      NOp   1
                         Standard orientation:                         
 ---------------------------------------------------------------------
 Center     Atomic      Atomic             Coordinates (Angstroms)
 Number     Number       Type             X           Y           Z
 ---------------------------------------------------------------------
      1          8           0        0.057139   -1.716393    0.000000
      2          1           0       -0.744013   -2.285306    0.000000
      3          1           0        0.855123   -2.289739    0.000000
      4          8           0        0.057139    1.822832    0.000000
      5          1           0       -0.458159    2.659477    0.000000
      6          1           0       -0.567171    1.064054    0.000000
 ---------------------------------------------------------------------
 Rotational constants (GHZ):         269.1895844           4.2433408           4.1774894
 Leave Link  202 at Sun Dec 10 06:59:12 2023, MaxMem=   536870912 cpu:               0.1 elap:               0.0
 (Enter /usr/site/hpc/x86_64/glibc-2.17/broadwell/gaussian/g16_a.03/pgi-16.5/g16/l301.exe)
 Standard basis: CEP-31G (6D, 10F)
 Ernie: Thresh=  0.10000D-02 Tol=  0.10000D-05 Strict=F.
 There are    20 symmetry adapted cartesian basis functions of A'  symmetry.
 There are     4 symmetry adapted cartesian basis functions of A"  symmetry.
 There are    20 symmetry adapted basis functions of A'  symmetry.
 There are     4 symmetry adapted basis functions of A"  symmetry.
    24 basis functions,    48 primitive gaussians,    24 cartesian basis functions
     8 alpha electrons        8 beta electrons
       nuclear repulsion energy        22.8340906354 Hartrees.
 IExCor=    0 DFT=F Ex=HF Corr=None ExCW=0 ScaHFX=  1.000000
 ScaDFX=  1.000000  1.000000  1.000000  1.000000 ScalE2=  1.000000  1.000000
 IRadAn=      5 IRanWt=     -1 IRanGd=            0 ICorTp=0 IEmpDi=  4
 NAtoms=    6 NActive=    6 NUniq=    6 SFac= 1.00D+00 NAtFMM=   60 NAOKFM=F Big=F
 Integral buffers will be    131072 words long.
 Raffenetti 1 integral format.
 Two-electron integral symmetry is turned on.
 Leave Link  301 at Sun Dec 10 06:59:12 2023, MaxMem=   536870912 cpu:               0.2 elap:               0.1
 (Enter /usr/site/hpc/x86_64/glibc-2.17/broadwell/gaussian/g16_a.03/pgi-16.5/g16/l302.exe)
 NPDir=0 NMtPBC=     1 NCelOv=     1 NCel=       1 NClECP=     1 NCelD=      1
         NCelK=      1 NCelE2=     1 NClLst=     1 CellRange=     0.0.
 One-electron integrals computed using PRISM.
 One-electron integral symmetry used in STVInt
   2 Symmetry operations used in ECPInt.
 ECPInt:  NShTT=      78 NPrTT=     318 LenC2=      79 LenP2D=     278.
 LDataN:  DoStor=T MaxTD1= 2 Len=   12
 NBasis=    24 RedAO= T EigKep=  3.58D-02  NBF=    20     4
 NBsUse=    24 1.00D-06 EigRej= -1.00D+00 NBFU=    20     4
 Leave Link  302 at Sun Dec 10 06:59:12 2023, MaxMem=   536870912 cpu:               0.3 elap:               0.1
 (Enter /usr/site/hpc/x86_64/glibc-2.17/broadwell/gaussian/g16_a.03/pgi-16.5/g16/l303.exe)
 DipDrv:  MaxL=1.
 Leave Link  303 at Sun Dec 10 06:59:12 2023, MaxMem=   536870912 cpu:               0.1 elap:               0.0
 (Enter /usr/site/hpc/x86_64/glibc-2.17/broadwell/gaussian/g16_a.03/pgi-16.5/g16/l401.exe)
 ExpMin= 1.78D-01 ExpMax= 1.92D+01 ExpMxC= 1.92D+01 IAcc=3 IRadAn=         5 AccDes= 0.00D+00
 Harris functional with IExCor=  205 and IRadAn=       5 diagonalized for initial guess.
 HarFok:  IExCor=  205 AccDes= 0.00D+00 IRadAn=         5 IDoV= 1 UseB2=F ITyADJ=14
 ICtDFT=  3500011 ScaDFX=  1.000000  1.000000  1.000000  1.000000
 FoFCou: FMM=F IPFlag=           0 FMFlag=      100000 FMFlg1=           0
         NFxFlg=           0 DoJE=T BraDBF=F KetDBF=T FulRan=T
         wScrn=  0.000000 ICntrl=       500 IOpCl=  0 I1Cent=   200000004 NGrid=           0
         NMat0=    1 NMatS0=      1 NMatT0=    0 NMatD0=    1 NMtDS0=    0 NMtDT0=    0
 Petite list used in FoFCou.
 Harris En= -34.4775585685798    
 JPrj=0 DoOrth=F DoCkMO=F.
 Initial guess orbital symmetries:
       Occupied  (A') (A') (A') (A') (A') (A') (A") (A")
       Virtual   (A') (A') (A') (A') (A') (A") (A") (A') (A') (A')
                 (A') (A') (A') (A') (A') (A')
 The electronic state of the initial guess is 1-A'.
 Leave Link  401 at Sun Dec 10 06:59:12 2023, MaxMem=   536870912 cpu:               0.4 elap:               0.1
 (Enter /usr/site/hpc/x86_64/glibc-2.17/broadwell/gaussian/g16_a.03/pgi-16.5/g16/l502.exe)
 Keep R1 ints in memory in symmetry-blocked form, NReq=852403.
 FoFCou: FMM=F IPFlag=           0 FMFlag=           0 FMFlg1=           0
         NFxFlg=           0 DoJE=F BraDBF=F KetDBF=F FulRan=T
         wScrn=  0.000000 ICntrl=       600 IOpCl=  0 I1Cent=           0 NGrid=           0
         NMat0=    1 NMatS0=    300 NMatT0=    0 NMatD0=    1 NMtDS0=    0 NMtDT0=    0
 Petite list used in FoFCou.
 Closed shell SCF:
 Using DIIS extrapolation, IDIIS=  1040.
 NGot=   536870912 LenX=   536840576 LenY=   536839559
 Requested convergence on RMS density matrix=1.00D-08 within 128 cycles.
 Requested convergence on MAX density matrix=1.00D-06.
 Requested convergence on             energy=1.00D-06.
 No special actions if energy rises.

 Cycle   1  Pass 1  IDiag  1:
 E= -33.5611603073533    
 DIIS: error= 6.69D-02 at cycle   1 NSaved=   1.
 NSaved= 1 IEnMin= 1 EnMin= -33.5611603073533     IErMin= 1 ErrMin= 6.69D-02
 ErrMax= 6.69D-02  0.00D+00 EMaxC= 1.00D-01 BMatC= 1.01D-01 BMatP= 1.01D-01
 IDIUse=3 WtCom= 3.31D-01 WtEn= 6.69D-01
 Coeff-Com:  0.100D+01
 Coeff-En:   0.100D+01
 Coeff:      0.100D+01
 Gap=     0.591 Goal=   None    Shift=    0.000
 GapD=    0.591 DampG=2.000 DampE=0.500 DampFc=1.0000 IDamp=-1.
 RMSDP=1.48D-02 MaxDP=1.17D-01              OVMax= 9.95D-02

 Cycle   2  Pass 1  IDiag  1:
 E= -33.6230532860636     Delta-E=       -0.061892978710 Rises=F Damp=F
 DIIS: error= 3.69D-02 at cycle   2 NSaved=   2.
 NSaved= 2 IEnMin= 2 EnMin= -33.6230532860636     IErMin= 2 ErrMin= 3.69D-02
 ErrMax= 3.69D-02  0.00D+00 EMaxC= 1.00D-01 BMatC= 3.74D-02 BMatP= 1.01D-01
 IDIUse=3 WtCom= 6.31D-01 WtEn= 3.69D-01
 Coeff-Com:  0.376D+00 0.624D+00
 Coeff-En:   0.106D+00 0.894D+00
 Coeff:      0.277D+00 0.723D+00
 Gap=     0.675 Goal=   None    Shift=    0.000
 RMSDP=6.35D-03 MaxDP=5.41D-02 DE=-6.19D-02 OVMax= 3.55D-02

 Cycle   3  Pass 1  IDiag  1:
 E= -33.6529621669378     Delta-E=       -0.029908880874 Rises=F Damp=F
 DIIS: error= 7.00D-03 at cycle   3 NSaved=   3.
 NSaved= 3 IEnMin= 3 EnMin= -33.6529621669378     IErMin= 3 ErrMin= 7.00D-03
 ErrMax= 7.00D-03  0.00D+00 EMaxC= 1.00D-01 BMatC= 8.90D-04 BMatP= 3.74D-02
 IDIUse=3 WtCom= 9.30D-01 WtEn= 7.00D-02
 Coeff-Com: -0.112D+00-0.131D-01 0.112D+01
 Coeff-En:   0.000D+00 0.000D+00 0.100D+01
 Coeff:     -0.104D+00-0.122D-01 0.112D+01
 Gap=     0.668 Goal=   None    Shift=    0.000
 RMSDP=1.07D-03 MaxDP=9.21D-03 DE=-2.99D-02 OVMax= 7.98D-03

 Cycle   4  Pass 1  IDiag  1:
 E= -33.6538450180093     Delta-E=       -0.000882851071 Rises=F Damp=F
 DIIS: error= 7.33D-04 at cycle   4 NSaved=   4.
 NSaved= 4 IEnMin= 4 EnMin= -33.6538450180093     IErMin= 4 ErrMin= 7.33D-04
 ErrMax= 7.33D-04  0.00D+00 EMaxC= 1.00D-01 BMatC= 5.74D-06 BMatP= 8.90D-04
 IDIUse=3 WtCom= 9.93D-01 WtEn= 7.33D-03
 Coeff-Com:  0.426D-01-0.184D-01-0.518D+00 0.149D+01
 Coeff-En:   0.000D+00 0.000D+00 0.000D+00 0.100D+01
 Coeff:      0.423D-01-0.183D-01-0.514D+00 0.149D+01
 Gap=     0.670 Goal=   None    Shift=    0.000
 RMSDP=2.34D-04 MaxDP=1.98D-03 DE=-8.83D-04 OVMax= 1.00D-03

 Cycle   5  Pass 1  IDiag  1:
 E= -33.6538578265638     Delta-E=       -0.000012808554 Rises=F Damp=F
 DIIS: error= 5.32D-05 at cycle   5 NSaved=   5.
 NSaved= 5 IEnMin= 5 EnMin= -33.6538578265638     IErMin= 5 ErrMin= 5.32D-05
 ErrMax= 5.32D-05  0.00D+00 EMaxC= 1.00D-01 BMatC= 4.04D-08 BMatP= 5.74D-06
 IDIUse=1 WtCom= 1.00D+00 WtEn= 0.00D+00
 Coeff-Com: -0.717D-02 0.333D-02 0.876D-01-0.304D+00 0.122D+01
 Coeff:     -0.717D-02 0.333D-02 0.876D-01-0.304D+00 0.122D+01
 Gap=     0.670 Goal=   None    Shift=    0.000
 RMSDP=1.70D-05 MaxDP=1.64D-04 DE=-1.28D-05 OVMax= 1.08D-04

 Cycle   6  Pass 1  IDiag  1:
 E= -33.6538579277918     Delta-E=       -0.000000101228 Rises=F Damp=F
 DIIS: error= 1.01D-05 at cycle   6 NSaved=   6.
 NSaved= 6 IEnMin= 6 EnMin= -33.6538579277918     IErMin= 6 ErrMin= 1.01D-05
 ErrMax= 1.01D-05  0.00D+00 EMaxC= 1.00D-01 BMatC= 1.99D-09 BMatP= 4.04D-08
 IDIUse=1 WtCom= 1.00D+00 WtEn= 0.00D+00
 Coeff-Com:  0.128D-02-0.455D-03-0.150D-01 0.578D-01-0.385D+00 0.134D+01
 Coeff:      0.128D-02-0.455D-03-0.150D-01 0.578D-01-0.385D+00 0.134D+01
 Gap=     0.670 Goal=   None    Shift=    0.000
 RMSDP=3.84D-06 MaxDP=3.90D-05 DE=-1.01D-07 OVMax= 3.44D-05

 Cycle   7  Pass 1  IDiag  1:
 E= -33.6538579333176     Delta-E=       -0.000000005526 Rises=F Damp=F
 DIIS: error= 2.42D-06 at cycle   7 NSaved=   7.
 NSaved= 7 IEnMin= 7 EnMin= -33.6538579333176     IErMin= 7 ErrMin= 2.42D-06
 ErrMax= 2.42D-06  0.00D+00 EMaxC= 1.00D-01 BMatC= 1.16D-10 BMatP= 1.99D-09
 IDIUse=1 WtCom= 1.00D+00 WtEn= 0.00D+00
 Coeff-Com:  0.236D-03-0.155D-03-0.304D-02 0.933D-02-0.261D-02-0.228D+00
 Coeff-Com:  0.122D+01
 Coeff:      0.236D-03-0.155D-03-0.304D-02 0.933D-02-0.261D-02-0.228D+00
 Coeff:      0.122D+01
 Gap=     0.670 Goal=   None    Shift=    0.000
 RMSDP=9.61D-07 MaxDP=9.00D-06 DE=-5.53D-09 OVMax= 8.05D-06

 Cycle   8  Pass 1  IDiag  1:
 E= -33.6538579336032     Delta-E=       -0.000000000286 Rises=F Damp=F
 DIIS: error= 8.52D-07 at cycle   8 NSaved=   8.
 NSaved= 8 IEnMin= 8 EnMin= -33.6538579336032     IErMin= 8 ErrMin= 8.52D-07
 ErrMax= 8.52D-07  0.00D+00 EMaxC= 1.00D-01 BMatC= 1.55D-11 BMatP= 1.16D-10
 IDIUse=1 WtCom= 1.00D+00 WtEn= 0.00D+00
 Coeff-Com:  0.564D-05-0.285D-04-0.157D-03-0.290D-03 0.230D-01-0.157D+00
 Coeff-Com:  0.354D+00 0.781D+00
 Coeff:      0.564D-05-0.285D-04-0.157D-03-0.290D-03 0.230D-01-0.157D+00
 Coeff:      0.354D+00 0.781D+00
 Gap=     0.670 Goal=   None    Shift=    0.000
 RMSDP=2.31D-07 MaxDP=1.95D-06 DE=-2.86D-10 OVMax= 2.05D-06

 Cycle   9  Pass 1  IDiag  1:
 E= -33.6538579336243     Delta-E=       -0.000000000021 Rises=F Damp=F
 DIIS: error= 1.71D-07 at cycle   9 NSaved=   9.
 NSaved= 9 IEnMin= 9 EnMin= -33.6538579336243     IErMin= 9 ErrMin= 1.71D-07
 ErrMax= 1.71D-07  0.00D+00 EMaxC= 1.00D-01 BMatC= 7.32D-13 BMatP= 1.55D-11
 IDIUse=1 WtCom= 1.00D+00 WtEn= 0.00D+00
 Coeff-Com:  0.268D-05 0.857D-05 0.106D-04 0.223D-03-0.912D-02 0.660D-01
 Coeff-Com: -0.196D+00-0.204D+00 0.134D+01
 Coeff:      0.268D-05 0.857D-05 0.106D-04 0.223D-03-0.912D-02 0.660D-01
 Coeff:     -0.196D+00-0.204D+00 0.134D+01
 Gap=     0.670 Goal=   None    Shift=    0.000
 RMSDP=1.19D-07 MaxDP=5.53D-07 DE=-2.11D-11 OVMax= 7.97D-07

 Cycle  10  Pass 1  IDiag  1:
 E= -33.6538579336261     Delta-E=       -0.000000000002 Rises=F Damp=F
 DIIS: error= 1.03D-08 at cycle  10 NSaved=  10.
 NSaved=10 IEnMin=10 EnMin= -33.6538579336261     IErMin=10 ErrMin= 1.03D-08
 ErrMax= 1.03D-08  0.00D+00 EMaxC= 1.00D-01 BMatC= 5.33D-15 BMatP= 7.32D-13
 IDIUse=1 WtCom= 1.00D+00 WtEn= 0.00D+00
 Coeff-Com:  0.417D-06-0.198D-05-0.134D-04 0.111D-05 0.156D-02-0.126D-01
 Coeff-Com:  0.398D-01 0.326D-01-0.325D+00 0.126D+01
 Coeff:      0.417D-06-0.198D-05-0.134D-04 0.111D-05 0.156D-02-0.126D-01
 Coeff:      0.398D-01 0.326D-01-0.325D+00 0.126D+01
 Gap=     0.670 Goal=   None    Shift=    0.000
 RMSDP=1.42D-08 MaxDP=7.24D-08 DE=-1.85D-12 OVMax= 8.95D-08

 Cycle  11  Pass 1  IDiag  1:
 E= -33.6538579336262     Delta-E=       -0.000000000000 Rises=F Damp=F
 DIIS: error= 7.04D-10 at cycle  11 NSaved=  11.
 NSaved=11 IEnMin=11 EnMin= -33.6538579336262     IErMin=11 ErrMin= 7.04D-10
 ErrMax= 7.04D-10  0.00D+00 EMaxC= 1.00D-01 BMatC= 2.47D-17 BMatP= 5.33D-15
 IDIUse=1 WtCom= 1.00D+00 WtEn= 0.00D+00
 Coeff-Com: -0.997D-07 0.387D-06 0.277D-05-0.951D-06-0.308D-03 0.252D-02
 Coeff-Com: -0.804D-02-0.647D-02 0.663D-01-0.293D+00 0.124D+01
 Coeff:     -0.997D-07 0.387D-06 0.277D-05-0.951D-06-0.308D-03 0.252D-02
 Coeff:     -0.804D-02-0.647D-02 0.663D-01-0.293D+00 0.124D+01
 Gap=     0.670 Goal=   None    Shift=    0.000
 RMSDP=7.71D-10 MaxDP=3.38D-09 DE=-2.84D-14 OVMax= 4.75D-09

 SCF Done:  E(RHF) =  -33.6538579336     A.U. after   11 cycles
            NFock= 11  Conv=0.77D-09     -V/T= 2.2569
 KE= 2.677455088903D+01 PE=-1.273960393560D+02 EE= 4.413353989801D+01
 Leave Link  502 at Sun Dec 10 06:59:12 2023, MaxMem=   536870912 cpu:               0.3 elap:               0.1
 (Enter /usr/site/hpc/x86_64/glibc-2.17/broadwell/gaussian/g16_a.03/pgi-16.5/g16/l801.exe)
 Windowed orbitals will be sorted by symmetry type.
 Range of M.O.s used for correlation:     1    24
 NBasis=    24 NAE=     8 NBE=     8 NFC=     0 NFV=     0
 NROrb=     24 NOA=     8 NOB=     8 NVA=    16 NVB=    16
 Leave Link  801 at Sun Dec 10 06:59:12 2023, MaxMem=   536870912 cpu:               0.1 elap:               0.0
 (Enter /usr/site/hpc/x86_64/glibc-2.17/broadwell/gaussian/g16_a.03/pgi-16.5/g16/l804.exe)
 Closed-shell transformation, MDV=   536870912 ITran=4 ISComp=2.
 Unit  1 TFree=       1025975 TCopy=        210600.
 Semi-Direct transformation.
 ModeAB=           2 MOrb=             8 LenV=     536741907
 LASXX=        22470 LTotXX=       22470 LenRXX=       22470
 LTotAB=       26208 MaxLAS=       57600 LenRXY=       57600
 NonZer=       62016 LenScr=      524288 LnRSAI=           0
 LnScr1=           0 LExtra=           0 Total=       604358
 MaxDsk=          -1 SrtSym=           F ITran=            4
 DoSDTr:  NPSUse=  4
 JobTyp=0 Pass  1:  I=   1 to   8.
 (rs|ai) integrals will be sorted in core.
 Complete sort for first half transformation.
 First half transformation complete.
 Complete sort for second half transformation.
 Second half transformation complete.
 Spin components of T(2) and E(2):
     alpha-alpha T2 =       0.9089502663D-02 E2=     -0.2597123008D-01
     alpha-beta  T2 =       0.5993414774D-01 E2=     -0.1767767777D+00
     beta-beta   T2 =       0.9089502663D-02 E2=     -0.2597123008D-01
 ANorm=    0.1038322278D+01
 E2 =    -0.2287192379D+00 EUMP2 =    -0.33882577171521D+02
 Leave Link  804 at Sun Dec 10 06:59:12 2023, MaxMem=   536870912 cpu:               0.2 elap:               0.1
 (Enter /usr/site/hpc/x86_64/glibc-2.17/broadwell/gaussian/g16_a.03/pgi-16.5/g16/l913.exe)
 CIDS:  MDV=   536870912.
 IFCWin=0 IBDFC=1 NFBD=     0     0 NFCmp=     0     0 NFFFC=     0     0
 Using DD3R+UMP44R for 1st iteration.
 Using DD4RQ for 2nd and later iterations.
 Keep R2 and R3 ints in memory in symmetry-blocked form, NReq=865011.
 FoFCou: FMM=F IPFlag=           0 FMFlag=           0 FMFlg1=           0
         NFxFlg=           0 DoJE=F BraDBF=F KetDBF=F FulRan=T
         wScrn=  0.000000 ICntrl=       600 IOpCl=  0 I1Cent=           0 NGrid=           0
         NMat0=    1 NMatS0=    300 NMatT0=    0 NMatD0=    1 NMtDS0=    0 NMtDT0=    0
 Petite list used in FoFCou.
 CIDS: In Core Option IDoMem=           1.
 CCSD(T)
 =======
 Iterations=  50 Convergence= 0.100D-06
 Produce multiple copies of IABC intergrals
 Iteration Nr.   1
 **********************
 DD1Dir will call FoFMem   1 times, MxPair=        72
 NAB=    36 NAA=     0 NBB=     0.
 MP4(R+Q)= -0.73386424D-03
 Maximum subspace dimension=  5
 A-vector RMS=  5.8313850D-03 Max=  1.2488744D-02 conv= 1.00D-05.
 RLE energy=       -0.2347114346
 E3=       -0.53830759D-02        EUMP3=      -0.33887960247D+02
 E4(DQ)=   -0.59012196D-02        UMP4(DQ)=   -0.33893861467D+02
 E4(SDQ)=  -0.79662315D-02        UMP4(SDQ)=  -0.33895926479D+02
 VARIATIONAL ENERGIES WITH THE FIRST-ORDER WAVEFUNCTION:
 DE(Corr)= -0.23455880     E(Corr)=     -33.888416733    
 NORM(A)=   0.10417525D+01
 Iteration Nr.   2
 **********************
 DD1Dir will call FoFMem   1 times, MxPair=        72
 NAB=    36 NAA=     0 NBB=     0.
 A-vector RMS=  9.7659280D-04 Max=  2.6100167D-03 conv= 1.00D-05.
 RLE energy=       -0.2425047371
 DE(Corr)= -0.24057034     E(CORR)=     -33.894428270     Delta=-6.01D-03
 NORM(A)=   0.10455566D+01
 Iteration Nr.   3
 **********************
 DD1Dir will call FoFMem   1 times, MxPair=        72
 NAB=    36 NAA=     0 NBB=     0.
 A-vector RMS=  3.8657085D-04 Max=  1.0025610D-03 conv= 1.00D-05.
 RLE energy=       -0.2430569952
 DE(Corr)= -0.24260561     E(CORR)=     -33.896463540     Delta=-2.04D-03
 NORM(A)=   0.10461203D+01
 Iteration Nr.   4
 **********************
 DD1Dir will call FoFMem   1 times, MxPair=        72
 NAB=    36 NAA=     0 NBB=     0.
 A-vector RMS=  9.3719179D-05 Max=  2.5592616D-04 conv= 1.00D-05.
 RLE energy=       -0.2431048531
 DE(Corr)= -0.24306897     E(CORR)=     -33.896926901     Delta=-4.63D-04
 NORM(A)=   0.10461930D+01
 Iteration Nr.   5
 **********************
 DD1Dir will call FoFMem   1 times, MxPair=        72
 NAB=    36 NAA=     0 NBB=     0.
 A-vector RMS=  4.0250167D-05 Max=  1.2793371D-04 conv= 1.00D-05.
 RLE energy=       -0.2431037446
 DE(Corr)= -0.24310122     E(CORR)=     -33.896959153     Delta=-3.23D-05
 NORM(A)=   0.10462027D+01
 Iteration Nr.   6
 **********************
 DD1Dir will call FoFMem   1 times, MxPair=        72
 NAB=    36 NAA=     0 NBB=     0.
 A-vector RMS=  1.3803485D-05 Max=  5.0468529D-05 conv= 1.00D-05.
 RLE energy=       -0.2431013656
 DE(Corr)= -0.24310364     E(CORR)=     -33.896961571     Delta=-2.42D-06
 NORM(A)=   0.10462053D+01
 Iteration Nr.   7
 **********************
 DD1Dir will call FoFMem   1 times, MxPair=        72
 NAB=    36 NAA=     0 NBB=     0.
 A-vector RMS=  4.3736116D-06 Max=  1.3684028D-05 conv= 1.00D-05.
 RLE energy=       -0.2431029432
 DE(Corr)= -0.24310312     E(CORR)=     -33.896961050     Delta= 5.21D-07
 NORM(A)=   0.10462069D+01
 Iteration Nr.   8
 **********************
 DD1Dir will call FoFMem   1 times, MxPair=        72
 NAB=    36 NAA=     0 NBB=     0.
 A-vector RMS=  1.4591818D-06 Max=  4.8170921D-06 conv= 1.00D-05.
 RLE energy=       -0.2431027351
 DE(Corr)= -0.24310288     E(CORR)=     -33.896960811     Delta= 2.39D-07
 NORM(A)=   0.10462073D+01
 Iteration Nr.   9
 **********************
 DD1Dir will call FoFMem   1 times, MxPair=        72
 NAB=    36 NAA=     0 NBB=     0.
 A-vector RMS=  3.4225554D-07 Max=  1.4389702D-06 conv= 1.00D-05.
 RLE energy=       -0.2431029528
 DE(Corr)= -0.24310298     E(CORR)=     -33.896960913     Delta=-1.02D-07
 NORM(A)=   0.10462075D+01
 Iteration Nr.  10
 **********************
 DD1Dir will call FoFMem   1 times, MxPair=        72
 NAB=    36 NAA=     0 NBB=     0.
 A-vector RMS=  1.0610194D-07 Max=  4.1415467D-07 conv= 1.00D-05.
 RLE energy=       -0.2431030491
 DE(Corr)= -0.24310303     E(CORR)=     -33.896960963     Delta=-5.08D-08
 NORM(A)=   0.10462076D+01
 CI/CC converged in   10 iterations to DelEn=-5.08D-08 Conv= 1.00D-07 ErrA1= 1.06D-07 Conv= 1.00D-05
 Wavefunction amplitudes converged. E(Corr)=     -33.896960963    
 Largest amplitude= 4.96D-02
 IPart=  3 IA=    2   12.50% done.
 IPart=  2 IA=    3   24.17% done.
 IPart=  4 IA=    4   35.00% done.
 IPart=  2 IA=    5   45.00% done.
 IPart=  4 IA=    6   54.17% done.
 IPart=  3 IA=    7   62.50% done.
 IPart=  1 IA=    8   70.00% done.
 IPart=  1 IA=   10   82.50% done.
 IPart=  3 IA=   12   91.67% done.
 Time for triples=        0.25 seconds.
 T4(CCSD)= -0.31347499D-02
 T5(CCSD)=  0.53628351D-03
 CCSD(T)= -0.33899559430D+02
 Discarding MO integrals.
 Leave Link  913 at Sun Dec 10 06:59:13 2023, MaxMem=   536870912 cpu:               0.9 elap:               0.3
 (Enter /usr/site/hpc/x86_64/glibc-2.17/broadwell/gaussian/g16_a.03/pgi-16.5/g16/l601.exe)
 Copying SCF densities to generalized density rwf, IOpCl= 0 IROHF=0.

 **********************************************************************

            Population analysis using the SCF density.

 **********************************************************************

 Orbital symmetries:
       Occupied  (A') (A') (A') (A') (A') (A') (A") (A")
       Virtual   (A') (A') (A') (A') (A') (A") (A") (A') (A') (A')
                 (A') (A') (A') (A') (A') (A')
 The electronic state is 1-A'.
 Alpha  occ. eigenvalues --   -1.36114  -1.33309  -0.71758  -0.68870  -0.55975
 Alpha  occ. eigenvalues --   -0.53074  -0.50713  -0.47908
 Alpha virt. eigenvalues --    0.19079   0.23524   0.29917   0.33393   0.78137
 Alpha virt. eigenvalues --    0.79312   0.83153   0.85904   0.86996   0.98492
 Alpha virt. eigenvalues --    1.16797   1.20171   1.21369   1.27767   2.54249
 Alpha virt. eigenvalues --    2.68377
          Condensed to atoms (all electrons):
               1          2          3          4          5          6
     1  O    6.218455   0.260251   0.268706  -0.000350   0.000030   0.000919
     2  H    0.260251   0.395325  -0.023293   0.000014  -0.000001  -0.000042
     3  H    0.268706  -0.023293   0.372877   0.000009  -0.000000  -0.000009
     4  O   -0.000350   0.000014   0.000009   6.222608   0.256207   0.267706
     5  H    0.000030  -0.000001  -0.000000   0.256207   0.411990  -0.023305
     6  H    0.000919  -0.000042  -0.000009   0.267706  -0.023305   0.365062
 Mulliken charges:
               1
     1  O   -0.748010
     2  H    0.367746
     3  H    0.381711
     4  O   -0.746194
     5  H    0.355080
     6  H    0.389668
 Sum of Mulliken charges =  -0.00000
 Mulliken charges with hydrogens summed into heavy atoms:
               1
     1  O    0.001447
     4  O   -0.001447
 Electronic spatial extent (au):  <R**2>=            226.6798
 Charge=             -0.0000 electrons
 Dipole moment (field-independent basis, Debye):
    X=             -2.5928    Y=             -2.6324    Z=              0.0000  Tot=              3.6949
 Quadrupole moment (field-independent basis, Debye-Ang):
   XX=            -10.1354   YY=             -0.5114   ZZ=            -14.9945
   XY=             -4.9149   XZ=              0.0000   YZ=              0.0000
 Traceless Quadrupole moment (field-independent basis, Debye-Ang):
   XX=             -1.5883   YY=              8.0357   ZZ=             -6.4474
   XY=             -4.9149   XZ=              0.0000   YZ=              0.0000
 Octapole moment (field-independent basis, Debye-Ang**2):
  XXX=             -1.2332  YYY=            -14.5647  ZZZ=              0.0000  XYY=             -8.8021
  XXY=             -5.5942  XXZ=              0.0000  XZZ=             -0.4830  YZZ=             -0.5248
  YYZ=              0.0000  XYZ=              0.0000
 Hexadecapole moment (field-independent basis, Debye-Ang**3):
 XXXX=            -12.7676 YYYY=           -143.6925 ZZZZ=            -12.2323 XXXY=             -0.1682
 XXXZ=              0.0000 YYYX=            -20.9881 YYYZ=              0.0000 ZZZX=              0.0000
 ZZZY=              0.0000 XXYY=            -32.9584 XXZZ=             -4.5332 YYZZ=            -52.9425
 XXYZ=              0.0000 YYXZ=              0.0000 ZZXY=              0.5925
 N-N= 2.283409063536D+01 E-N=-1.273960393563D+02  KE= 2.677455088903D+01
 Symmetry A'   KE= 1.789642168054D+01
 Symmetry A"   KE= 8.878129208484D+00
 Leave Link  601 at Sun Dec 10 06:59:13 2023, MaxMem=   536870912 cpu:               0.1 elap:               0.0
 (Enter /usr/site/hpc/x86_64/glibc-2.17/broadwell/gaussian/g16_a.03/pgi-16.5/g16/l9999.exe)
 1\1\GINC-N033\SP\RCCSD(T)-FC\CEP-31G\H4O2\ROOT\10-Dec-2023\0\\#p CCSD(
 T)/CEP-31G\\H2O_H2O_1848\\0,1\O,0,0.,-0.009833,0.\H,0,-0.799571,-0.580
 965,0.\H,0,0.799571,-0.580965,0.\O,0,-0.009812,3.529378,0.\H,0,-0.5274
 27,4.364591,0.\H,0,-0.632016,2.768872,0.\\Version=ES64L-G16RevA.03\Sta
 te=1-A'\HF=-33.6538579\MP2=-33.8825772\MP3=-33.8879602\MP4D=-33.893127
 6\MP4DQ=-33.8938615\MP4SDQ=-33.8959265\CCSD=-33.896961\CCSD(T)=-33.899
 5594\RMSD=7.714e-10\PG=CS [SG(H4O2)]\\@


 ...THE PHYSICISTS HAVE MADE THEIR UNIVERSE, AND IF YOU DO NOT LIKE
 IT, YOU MUST MAKE YOUR OWN.
                               -- E. R. HARRISON IN "COSMOLOGY" (1980)
 Job cpu time:       0 days  0 hours  0 minutes  3.3 seconds.
 Elapsed time:       0 days  0 hours  0 minutes  1.0 seconds.
 File lengths (MBytes):  RWF=     72 Int=      0 D2E=      0 Chk=      8 Scr=      8
 Normal termination of Gaussian 16 at Sun Dec 10 06:59:13 2023.
