 Entering Gaussian System, Link 0=g16
 Input=N2_N2_160.com
 Output=N2_N2_160.log
 Initial command:
 /usr/site/hpc/x86_64/glibc-2.17/broadwell/gaussian/g16_a.03/pgi-16.5/g16/l1.exe "/gpfs/gpfs1/scratch/c7441090/Neutral/N2+N2/Gau-1472996.inp" -scrdir="/gpfs/gpfs1/scratch/c7441090/Neutral/N2+N2/"
 Entering Link 1 = /usr/site/hpc/x86_64/glibc-2.17/broadwell/gaussian/g16_a.03/pgi-16.5/g16/l1.exe PID=   1472997.
  
 Copyright (c) 1988,1990,1992,1993,1995,1998,2003,2009,2016,
            Gaussian, Inc.  All Rights Reserved.
  
 This is part of the Gaussian(R) 16 program.  It is based on
 the Gaussian(R) 09 system (copyright 2009, Gaussian, Inc.),
 the Gaussian(R) 03 system (copyright 2003, Gaussian, Inc.),
 the Gaussian(R) 98 system (copyright 1998, Gaussian, Inc.),
 the Gaussian(R) 94 system (copyright 1995, Gaussian, Inc.),
 the Gaussian 92(TM) system (copyright 1992, Gaussian, Inc.),
 the Gaussian 90(TM) system (copyright 1990, Gaussian, Inc.),
 the Gaussian 88(TM) system (copyright 1988, Gaussian, Inc.),
 the Gaussian 86(TM) system (copyright 1986, Carnegie Mellon
 University), and the Gaussian 82(TM) system (copyright 1983,
 Carnegie Mellon University). Gaussian is a federally registered
 trademark of Gaussian, Inc.
  
 This software contains proprietary and confidential information,
 including trade secrets, belonging to Gaussian, Inc.
  
 This software is provided under written license and may be
 used, copied, transmitted, or stored only in accord with that
 written license.
  
 The following legend is applicable only to US Government
 contracts under FAR:
  
                    RESTRICTED RIGHTS LEGEND
  
 Use, reproduction and disclosure by the US Government is
 subject to restrictions as set forth in subparagraphs (a)
 and (c) of the Commercial Computer Software - Restricted
 Rights clause in FAR 52.227-19.
  
 Gaussian, Inc.
 340 Quinnipiac St., Bldg. 40, Wallingford CT 06492
  
  
 ---------------------------------------------------------------
 Warning -- This program may not be used in any manner that
 competes with the business of Gaussian, Inc. or will provide
 assistance to any competitor of Gaussian, Inc.  The licensee
 of this program is prohibited from giving any competitor of
 Gaussian, Inc. access to this program.  By using this program,
 the user acknowledges that Gaussian, Inc. is engaged in the
 business of creating and licensing software in the field of
 computational chemistry and represents and warrants to the
 licensee that it is not a competitor of Gaussian, Inc. and that
 it will not use this program in any manner prohibited above.
 ---------------------------------------------------------------
  

 Cite this work as:
 Gaussian 16, Revision A.03,
 M. J. Frisch, G. W. Trucks, H. B. Schlegel, G. E. Scuseria, 
 M. A. Robb, J. R. Cheeseman, G. Scalmani, V. Barone, 
 G. A. Petersson, H. Nakatsuji, X. Li, M. Caricato, A. V. Marenich, 
 J. Bloino, B. G. Janesko, R. Gomperts, B. Mennucci, H. P. Hratchian, 
 J. V. Ortiz, A. F. Izmaylov, J. L. Sonnenberg, D. Williams-Young, 
 F. Ding, F. Lipparini, F. Egidi, J. Goings, B. Peng, A. Petrone, 
 T. Henderson, D. Ranasinghe, V. G. Zakrzewski, J. Gao, N. Rega, 
 G. Zheng, W. Liang, M. Hada, M. Ehara, K. Toyota, R. Fukuda, 
 J. Hasegawa, M. Ishida, T. Nakajima, Y. Honda, O. Kitao, H. Nakai, 
 T. Vreven, K. Throssell, J. A. Montgomery, Jr., J. E. Peralta, 
 F. Ogliaro, M. J. Bearpark, J. J. Heyd, E. N. Brothers, K. N. Kudin, 
 V. N. Staroverov, T. A. Keith, R. Kobayashi, J. Normand, 
 K. Raghavachari, A. P. Rendell, J. C. Burant, S. S. Iyengar, 
 J. Tomasi, M. Cossi, J. M. Millam, M. Klene, C. Adamo, R. Cammi, 
 J. W. Ochterski, R. L. Martin, K. Morokuma, O. Farkas, 
 J. B. Foresman, and D. J. Fox, Gaussian, Inc., Wallingford CT, 2016.
 
 ******************************************
 Gaussian 16:  ES64L-G16RevA.03 25-Dec-2016
                 9-Feb-2024 
 ******************************************
 %NProcShared=4
 Will use up to    4 processors via shared memory.
 %Mem=4GB
 %Chk=N2_N2_160.chk
 ------------------
 #p CCSD(T)/cc-pVTZ
 ------------------
 1/38=1,172=1/1;
 2/12=2,17=6,18=5,40=1/2;
 3/5=16,6=1,11=9,25=1,30=1/1,2,3;
 4//1;
 5/5=2,38=5/2;
 8/6=4,9=120000,10=1/1,4;
 9/5=7,14=2/13;
 6/7=2,8=2,9=2,10=2/1;
 99/5=1,9=1/99;
 Leave Link    1 at Fri Feb  9 19:09:42 2024, MaxMem=   536870912 cpu:               0.2 elap:               0.1
 (Enter /usr/site/hpc/x86_64/glibc-2.17/broadwell/gaussian/g16_a.03/pgi-16.5/g16/l101.exe)
 ---------
 N2_N2_160
 ---------
 Symbolic Z-matrix:
 Charge =  0 Multiplicity = 1
 N                    -1.09      0.        0. 
 N                     0.        0.        0. 
 N                     2.20617   2.20617   0. 
 N                     2.97692   2.97692   0. 
 
 ITRead=  0  0  0  0
 MicOpt= -1 -1 -1 -1
 NAtoms=      4 NQM=        4 NQMF=       0 NMMI=      0 NMMIF=      0
                NMic=       0 NMicF=      0.
                    Isotopes and Nuclear Properties:
 (Nuclear quadrupole moments (NQMom) in fm**2, nuclear magnetic moments (NMagM)
  in nuclear magnetons)

  Atom         1           2           3           4
 IAtWgt=          14          14          14          14
 AtmWgt=  14.0030740  14.0030740  14.0030740  14.0030740
 NucSpn=           2           2           2           2
 AtZEff=  -0.0000000  -0.0000000  -0.0000000  -0.0000000
 NQMom=    2.0440000   2.0440000   2.0440000   2.0440000
 NMagM=    0.4037610   0.4037610   0.4037610   0.4037610
 AtZNuc=   7.0000000   7.0000000   7.0000000   7.0000000
 Leave Link  101 at Fri Feb  9 19:09:42 2024, MaxMem=   536870912 cpu:               0.3 elap:               0.1
 (Enter /usr/site/hpc/x86_64/glibc-2.17/broadwell/gaussian/g16_a.03/pgi-16.5/g16/l202.exe)
                          Input orientation:                          
 ---------------------------------------------------------------------
 Center     Atomic      Atomic             Coordinates (Angstroms)
 Number     Number       Type             X           Y           Z
 ---------------------------------------------------------------------
      1          7           0       -1.090000    0.000000    0.000000
      2          7           0        0.000000    0.000000    0.000000
      3          7           0        2.206173    2.206173    0.000000
      4          7           0        2.976920    2.976920    0.000000
 ---------------------------------------------------------------------
                    Distance matrix (angstroms):
                    1          2          3          4
     1  N    0.000000
     2  N    1.090000   0.000000
     3  N    3.966353   3.120000   0.000000
     4  N    5.040029   4.210001   1.090001   0.000000
 Stoichiometry    N4
 Framework group  CS[SG(N4)]
 Deg. of freedom     5
 Full point group                 CS      NOp   2
 Largest Abelian subgroup         CS      NOp   2
 Largest concise Abelian subgroup C1      NOp   1
                         Standard orientation:                         
 ---------------------------------------------------------------------
 Center     Atomic      Atomic             Coordinates (Angstroms)
 Number     Number       Type             X           Y           Z
 ---------------------------------------------------------------------
      1          7           0        0.578060   -2.410560    0.000000
      2          7           0       -0.192687   -1.639814    0.000000
      3          7           0       -0.192687    1.480186   -0.000000
      4          7           0       -0.192687    2.570187   -0.000000
 ---------------------------------------------------------------------
 Rotational constants (GHZ):         148.4469537           2.0624345           2.0341729
 Leave Link  202 at Fri Feb  9 19:09:42 2024, MaxMem=   536870912 cpu:               0.0 elap:               0.0
 (Enter /usr/site/hpc/x86_64/glibc-2.17/broadwell/gaussian/g16_a.03/pgi-16.5/g16/l301.exe)
 Standard basis: CC-pVTZ (5D, 7F)
 Ernie: Thresh=  0.10000D-02 Tol=  0.10000D-05 Strict=F.
 Ernie:  12 primitive shells out of 104 were deleted.
 There are    96 symmetry adapted cartesian basis functions of A'  symmetry.
 There are    44 symmetry adapted cartesian basis functions of A"  symmetry.
 There are    80 symmetry adapted basis functions of A'  symmetry.
 There are    40 symmetry adapted basis functions of A"  symmetry.
   120 basis functions,   208 primitive gaussians,   140 cartesian basis functions
    14 alpha electrons       14 beta electrons
       nuclear repulsion energy        73.7294080675 Hartrees.
 IExCor=    0 DFT=F Ex=HF Corr=None ExCW=0 ScaHFX=  1.000000
 ScaDFX=  1.000000  1.000000  1.000000  1.000000 ScalE2=  1.000000  1.000000
 IRadAn=      5 IRanWt=     -1 IRanGd=            0 ICorTp=0 IEmpDi=  4
 NAtoms=    4 NActive=    4 NUniq=    4 SFac= 1.00D+00 NAtFMM=   60 NAOKFM=F Big=F
 Integral buffers will be    131072 words long.
 Raffenetti 1 integral format.
 Two-electron integral symmetry is turned on.
 Leave Link  301 at Fri Feb  9 19:09:43 2024, MaxMem=   536870912 cpu:               0.2 elap:               0.1
 (Enter /usr/site/hpc/x86_64/glibc-2.17/broadwell/gaussian/g16_a.03/pgi-16.5/g16/l302.exe)
 NPDir=0 NMtPBC=     1 NCelOv=     1 NCel=       1 NClECP=     1 NCelD=      1
         NCelK=      1 NCelE2=     1 NClLst=     1 CellRange=     0.0.
 One-electron integrals computed using PRISM.
 One-electron integral symmetry used in STVInt
 NBasis=   120 RedAO= T EigKep=  8.33D-04  NBF=    80    40
 NBsUse=   120 1.00D-06 EigRej= -1.00D+00 NBFU=    80    40
 Leave Link  302 at Fri Feb  9 19:09:43 2024, MaxMem=   536870912 cpu:               0.4 elap:               0.1
 (Enter /usr/site/hpc/x86_64/glibc-2.17/broadwell/gaussian/g16_a.03/pgi-16.5/g16/l303.exe)
 DipDrv:  MaxL=1.
 Leave Link  303 at Fri Feb  9 19:09:43 2024, MaxMem=   536870912 cpu:               0.1 elap:               0.0
 (Enter /usr/site/hpc/x86_64/glibc-2.17/broadwell/gaussian/g16_a.03/pgi-16.5/g16/l401.exe)
 ExpMin= 1.72D-01 ExpMax= 1.14D+04 ExpMxC= 3.89D+02 IAcc=3 IRadAn=         5 AccDes= 0.00D+00
 Harris functional with IExCor=  205 and IRadAn=       5 diagonalized for initial guess.
 HarFok:  IExCor=  205 AccDes= 0.00D+00 IRadAn=         5 IDoV= 1 UseB2=F ITyADJ=14
 ICtDFT=  3500011 ScaDFX=  1.000000  1.000000  1.000000  1.000000
 FoFCou: FMM=F IPFlag=           0 FMFlag=      100000 FMFlg1=           0
         NFxFlg=           0 DoJE=T BraDBF=F KetDBF=T FulRan=T
         wScrn=  0.000000 ICntrl=       500 IOpCl=  0 I1Cent=   200000004 NGrid=           0
         NMat0=    1 NMatS0=      1 NMatT0=    0 NMatD0=    1 NMtDS0=    0 NMtDT0=    0
 Petite list used in FoFCou.
 Harris En= -217.924565136371    
 JPrj=0 DoOrth=F DoCkMO=F.
 Initial guess orbital symmetries:
       Occupied  (A') (A') (A') (A') (A') (A') (A') (A') (A') (A")
                 (A') (A") (A') (A')
       Virtual   (A") (A') (A') (A") (A') (A') (A') (A") (A') (A")
                 (A') (A') (A') (A") (A') (A') (A") (A') (A') (A')
                 (A') (A") (A") (A') (A') (A') (A") (A") (A') (A')
                 (A") (A') (A") (A') (A') (A") (A') (A") (A') (A')
                 (A') (A') (A") (A') (A") (A') (A') (A') (A") (A')
                 (A") (A') (A') (A') (A") (A') (A") (A') (A") (A")
                 (A') (A') (A") (A') (A") (A') (A') (A') (A") (A')
                 (A") (A') (A") (A') (A") (A') (A') (A") (A") (A')
                 (A") (A') (A") (A') (A') (A') (A") (A') (A') (A")
                 (A") (A') (A") (A') (A') (A') (A') (A') (A') (A")
                 (A") (A') (A') (A') (A') (A')
 The electronic state of the initial guess is 1-A'.
 Leave Link  401 at Fri Feb  9 19:09:43 2024, MaxMem=   536870912 cpu:               0.7 elap:               0.2
 (Enter /usr/site/hpc/x86_64/glibc-2.17/broadwell/gaussian/g16_a.03/pgi-16.5/g16/l502.exe)
 Keep R1 ints in memory in symmetry-blocked form, NReq=39739991.
 FoFCou: FMM=F IPFlag=           0 FMFlag=           0 FMFlg1=           0
         NFxFlg=           0 DoJE=F BraDBF=F KetDBF=F FulRan=T
         wScrn=  0.000000 ICntrl=       600 IOpCl=  0 I1Cent=           0 NGrid=           0
         NMat0=    1 NMatS0=   7260 NMatT0=    0 NMatD0=    1 NMtDS0=    0 NMtDT0=    0
 Petite list used in FoFCou.
 Closed shell SCF:
 Using DIIS extrapolation, IDIIS=  1040.
 NGot=   536870912 LenX=   523447786 LenY=   523427745
 Requested convergence on RMS density matrix=1.00D-08 within 128 cycles.
 Requested convergence on MAX density matrix=1.00D-06.
 Requested convergence on             energy=1.00D-06.
 No special actions if energy rises.

 Cycle   1  Pass 1  IDiag  1:
 E= -217.893426095046    
 DIIS: error= 4.74D-02 at cycle   1 NSaved=   1.
 NSaved= 1 IEnMin= 1 EnMin= -217.893426095046     IErMin= 1 ErrMin= 4.74D-02
 ErrMax= 4.74D-02  0.00D+00 EMaxC= 1.00D-01 BMatC= 2.97D-01 BMatP= 2.97D-01
 IDIUse=3 WtCom= 5.26D-01 WtEn= 4.74D-01
 Coeff-Com:  0.100D+01
 Coeff-En:   0.100D+01
 Coeff:      0.100D+01
 Gap=     0.787 Goal=   None    Shift=    0.000
 GapD=    0.787 DampG=2.000 DampE=0.500 DampFc=1.0000 IDamp=-1.
 RMSDP=1.57D-03 MaxDP=2.69D-02              OVMax= 4.61D-02

 Cycle   2  Pass 1  IDiag  1:
 E= -217.965735811915     Delta-E=       -0.072309716869 Rises=F Damp=F
 DIIS: error= 5.77D-03 at cycle   2 NSaved=   2.
 NSaved= 2 IEnMin= 2 EnMin= -217.965735811915     IErMin= 2 ErrMin= 5.77D-03
 ErrMax= 5.77D-03  0.00D+00 EMaxC= 1.00D-01 BMatC= 4.05D-03 BMatP= 2.97D-01
 IDIUse=3 WtCom= 9.42D-01 WtEn= 5.77D-02
 Coeff-Com: -0.398D-01 0.104D+01
 Coeff-En:   0.000D+00 0.100D+01
 Coeff:     -0.375D-01 0.104D+01
 Gap=     0.774 Goal=   None    Shift=    0.000
 RMSDP=4.46D-04 MaxDP=1.55D-02 DE=-7.23D-02 OVMax= 1.40D-02

 Cycle   3  Pass 1  IDiag  1:
 E= -217.968186510222     Delta-E=       -0.002450698307 Rises=F Damp=F
 DIIS: error= 1.98D-03 at cycle   3 NSaved=   3.
 NSaved= 3 IEnMin= 3 EnMin= -217.968186510222     IErMin= 3 ErrMin= 1.98D-03
 ErrMax= 1.98D-03  0.00D+00 EMaxC= 1.00D-01 BMatC= 2.37D-04 BMatP= 4.05D-03
 IDIUse=3 WtCom= 9.80D-01 WtEn= 1.98D-02
 Coeff-Com: -0.158D-01 0.165D+00 0.851D+00
 Coeff-En:   0.000D+00 0.000D+00 0.100D+01
 Coeff:     -0.155D-01 0.162D+00 0.854D+00
 Gap=     0.769 Goal=   None    Shift=    0.000
 RMSDP=6.33D-05 MaxDP=7.07D-04 DE=-2.45D-03 OVMax= 3.06D-03

 Cycle   4  Pass 1  IDiag  1:
 E= -217.968380731012     Delta-E=       -0.000194220791 Rises=F Damp=F
 DIIS: error= 4.47D-04 at cycle   4 NSaved=   4.
 NSaved= 4 IEnMin= 4 EnMin= -217.968380731012     IErMin= 4 ErrMin= 4.47D-04
 ErrMax= 4.47D-04  0.00D+00 EMaxC= 1.00D-01 BMatC= 9.37D-06 BMatP= 2.37D-04
 IDIUse=3 WtCom= 9.96D-01 WtEn= 4.47D-03
 Coeff-Com:  0.376D-02-0.593D-01-0.168D+00 0.122D+01
 Coeff-En:   0.000D+00 0.000D+00 0.000D+00 0.100D+01
 Coeff:      0.374D-02-0.590D-01-0.167D+00 0.122D+01
 Gap=     0.769 Goal=   None    Shift=    0.000
 RMSDP=3.48D-05 MaxDP=1.00D-03 DE=-1.94D-04 OVMax= 1.06D-03

 Cycle   5  Pass 1  IDiag  1:
 E= -217.968392471641     Delta-E=       -0.000011740629 Rises=F Damp=F
 DIIS: error= 2.05D-04 at cycle   5 NSaved=   5.
 NSaved= 5 IEnMin= 5 EnMin= -217.968392471641     IErMin= 5 ErrMin= 2.05D-04
 ErrMax= 2.05D-04  0.00D+00 EMaxC= 1.00D-01 BMatC= 1.92D-06 BMatP= 9.37D-06
 IDIUse=3 WtCom= 9.98D-01 WtEn= 2.05D-03
 Coeff-Com:  0.205D-02-0.292D-01-0.928D-01 0.450D+00 0.670D+00
 Coeff-En:   0.000D+00 0.000D+00 0.000D+00 0.000D+00 0.100D+01
 Coeff:      0.204D-02-0.292D-01-0.926D-01 0.449D+00 0.670D+00
 Gap=     0.769 Goal=   None    Shift=    0.000
 RMSDP=6.47D-06 MaxDP=1.77D-04 DE=-1.17D-05 OVMax= 4.26D-04

 Cycle   6  Pass 1  IDiag  1:
 E= -217.968393849940     Delta-E=       -0.000001378299 Rises=F Damp=F
 DIIS: error= 4.87D-05 at cycle   6 NSaved=   6.
 NSaved= 6 IEnMin= 6 EnMin= -217.968393849940     IErMin= 6 ErrMin= 4.87D-05
 ErrMax= 4.87D-05  0.00D+00 EMaxC= 1.00D-01 BMatC= 1.34D-07 BMatP= 1.92D-06
 IDIUse=1 WtCom= 1.00D+00 WtEn= 0.00D+00
 Coeff-Com: -0.620D-05 0.588D-03 0.383D-02-0.480D-01 0.181D+00 0.863D+00
 Coeff:     -0.620D-05 0.588D-03 0.383D-02-0.480D-01 0.181D+00 0.863D+00
 Gap=     0.769 Goal=   None    Shift=    0.000
 RMSDP=1.79D-06 MaxDP=4.99D-05 DE=-1.38D-06 OVMax= 1.01D-04

 Cycle   7  Pass 1  IDiag  1:
 E= -217.968393955724     Delta-E=       -0.000000105784 Rises=F Damp=F
 DIIS: error= 4.55D-06 at cycle   7 NSaved=   7.
 NSaved= 7 IEnMin= 7 EnMin= -217.968393955724     IErMin= 7 ErrMin= 4.55D-06
 ErrMax= 4.55D-06  0.00D+00 EMaxC= 1.00D-01 BMatC= 1.30D-09 BMatP= 1.34D-07
 IDIUse=1 WtCom= 1.00D+00 WtEn= 0.00D+00
 Coeff-Com: -0.311D-04 0.534D-03 0.185D-02-0.952D-02-0.221D-01-0.351D-01
 Coeff-Com:  0.106D+01
 Coeff:     -0.311D-04 0.534D-03 0.185D-02-0.952D-02-0.221D-01-0.351D-01
 Coeff:      0.106D+01
 Gap=     0.769 Goal=   None    Shift=    0.000
 RMSDP=3.95D-07 MaxDP=8.43D-06 DE=-1.06D-07 OVMax= 1.51D-05

 Cycle   8  Pass 1  IDiag  1:
 E= -217.968393957634     Delta-E=       -0.000000001910 Rises=F Damp=F
 DIIS: error= 3.12D-06 at cycle   8 NSaved=   8.
 NSaved= 8 IEnMin= 8 EnMin= -217.968393957634     IErMin= 8 ErrMin= 3.12D-06
 ErrMax= 3.12D-06  0.00D+00 EMaxC= 1.00D-01 BMatC= 5.12D-10 BMatP= 1.30D-09
 IDIUse=1 WtCom= 1.00D+00 WtEn= 0.00D+00
 Coeff-Com: -0.126D-04 0.185D-03 0.487D-03-0.672D-03-0.216D-01-0.740D-01
 Coeff-Com:  0.447D+00 0.648D+00
 Coeff:     -0.126D-04 0.185D-03 0.487D-03-0.672D-03-0.216D-01-0.740D-01
 Coeff:      0.447D+00 0.648D+00
 Gap=     0.769 Goal=   None    Shift=    0.000
 RMSDP=1.15D-07 MaxDP=3.65D-06 DE=-1.91D-09 OVMax= 7.50D-06

 Cycle   9  Pass 1  IDiag  1:
 E= -217.968393958236     Delta-E=       -0.000000000602 Rises=F Damp=F
 DIIS: error= 1.52D-06 at cycle   9 NSaved=   9.
 NSaved= 9 IEnMin= 9 EnMin= -217.968393958236     IErMin= 9 ErrMin= 1.52D-06
 ErrMax= 1.52D-06  0.00D+00 EMaxC= 1.00D-01 BMatC= 6.69D-11 BMatP= 5.12D-10
 IDIUse=1 WtCom= 1.00D+00 WtEn= 0.00D+00
 Coeff-Com:  0.101D-04-0.174D-03-0.608D-03 0.265D-02 0.113D-01 0.283D-01
 Coeff-Com: -0.357D+00-0.195D+00 0.151D+01
 Coeff:      0.101D-04-0.174D-03-0.608D-03 0.265D-02 0.113D-01 0.283D-01
 Coeff:     -0.357D+00-0.195D+00 0.151D+01
 Gap=     0.769 Goal=   None    Shift=    0.000
 RMSDP=1.04D-07 MaxDP=2.70D-06 DE=-6.02D-10 OVMax= 9.95D-06

 Cycle  10  Pass 1  IDiag  1:
 E= -217.968393958559     Delta-E=       -0.000000000323 Rises=F Damp=F
 DIIS: error= 7.97D-07 at cycle  10 NSaved=  10.
 NSaved=10 IEnMin=10 EnMin= -217.968393958559     IErMin=10 ErrMin= 7.97D-07
 ErrMax= 7.97D-07  0.00D+00 EMaxC= 1.00D-01 BMatC= 1.19D-11 BMatP= 6.69D-11
 IDIUse=1 WtCom= 1.00D+00 WtEn= 0.00D+00
 Coeff-Com: -0.389D-05 0.768D-04 0.335D-03-0.180D-02-0.299D-02-0.247D-02
 Coeff-Com:  0.144D+00-0.127D-01-0.104D+01 0.192D+01
 Coeff:     -0.389D-05 0.768D-04 0.335D-03-0.180D-02-0.299D-02-0.247D-02
 Coeff:      0.144D+00-0.127D-01-0.104D+01 0.192D+01
 Gap=     0.769 Goal=   None    Shift=    0.000
 RMSDP=6.80D-08 MaxDP=1.91D-06 DE=-3.23D-10 OVMax= 7.29D-06

 Cycle  11  Pass 1  IDiag  1:
 E= -217.968393958637     Delta-E=       -0.000000000078 Rises=F Damp=F
 DIIS: error= 9.65D-08 at cycle  11 NSaved=  11.
 NSaved=11 IEnMin=11 EnMin= -217.968393958637     IErMin=11 ErrMin= 9.65D-08
 ErrMax= 9.65D-08  0.00D+00 EMaxC= 1.00D-01 BMatC= 3.06D-13 BMatP= 1.19D-11
 IDIUse=1 WtCom= 1.00D+00 WtEn= 0.00D+00
 Coeff-Com:  0.182D-07-0.231D-05-0.217D-04 0.156D-03-0.208D-03-0.138D-02
 Coeff-Com: -0.315D-02 0.161D-01 0.993D-01-0.356D+00 0.124D+01
 Coeff:      0.182D-07-0.231D-05-0.217D-04 0.156D-03-0.208D-03-0.138D-02
 Coeff:     -0.315D-02 0.161D-01 0.993D-01-0.356D+00 0.124D+01
 Gap=     0.769 Goal=   None    Shift=    0.000
 RMSDP=1.07D-08 MaxDP=2.80D-07 DE=-7.78D-11 OVMax= 7.52D-07

 Cycle  12  Pass 1  IDiag  1:
 E= -217.968393958638     Delta-E=       -0.000000000001 Rises=F Damp=F
 DIIS: error= 3.05D-08 at cycle  12 NSaved=  12.
 NSaved=12 IEnMin=12 EnMin= -217.968393958638     IErMin=12 ErrMin= 3.05D-08
 ErrMax= 3.05D-08  0.00D+00 EMaxC= 1.00D-01 BMatC= 2.62D-14 BMatP= 3.06D-13
 IDIUse=1 WtCom= 1.00D+00 WtEn= 0.00D+00
 Coeff-Com:  0.193D-06-0.378D-05-0.166D-04 0.816D-04 0.207D-03 0.372D-03
 Coeff-Com: -0.808D-02-0.166D-02 0.461D-01-0.590D-01-0.211D+00 0.123D+01
 Coeff:      0.193D-06-0.378D-05-0.166D-04 0.816D-04 0.207D-03 0.372D-03
 Coeff:     -0.808D-02-0.166D-02 0.461D-01-0.590D-01-0.211D+00 0.123D+01
 Gap=     0.769 Goal=   None    Shift=    0.000
 RMSDP=2.26D-09 MaxDP=4.36D-08 DE=-1.08D-12 OVMax= 1.38D-07

 SCF Done:  E(RHF) =  -217.968393959     A.U. after   12 cycles
            NFock= 12  Conv=0.23D-08     -V/T= 2.0014
 KE= 2.176558379097D+02 PE=-6.592352019241D+02 EE= 1.498815619883D+02
 Leave Link  502 at Fri Feb  9 19:09:44 2024, MaxMem=   536870912 cpu:               4.5 elap:               1.2
 (Enter /usr/site/hpc/x86_64/glibc-2.17/broadwell/gaussian/g16_a.03/pgi-16.5/g16/l801.exe)
 Windowed orbitals will be sorted by symmetry type.
 ExpMin= 1.72D-01 ExpMax= 1.14D+04 ExpMxC= 3.89D+02 IAcc=3 IRadAn=         5 AccDes= 0.00D+00
 HarFok:  IExCor=  205 AccDes= 0.00D+00 IRadAn=         5 IDoV=-2 UseB2=F ITyADJ=14
 ICtDFT= 12500011 ScaDFX=  1.000000  1.000000  1.000000  1.000000
 Largest valence mixing into a core orbital is  2.04D-04
 Largest core mixing into a valence orbital is  4.65D-05
 Range of M.O.s used for correlation:     5   120
 NBasis=   120 NAE=    14 NBE=    14 NFC=     4 NFV=     0
 NROrb=    116 NOA=    10 NOB=    10 NVA=   106 NVB=   106

 **** Warning!!: The largest alpha MO coefficient is  0.10934109D+02

 Leave Link  801 at Fri Feb  9 19:09:44 2024, MaxMem=   536870912 cpu:               0.3 elap:               0.1
 (Enter /usr/site/hpc/x86_64/glibc-2.17/broadwell/gaussian/g16_a.03/pgi-16.5/g16/l804.exe)
 Closed-shell transformation, MDV=   536870912 ITran=4 ISComp=2.
 Unit  1 TFree=        821735 TCopy=        418917.
 Semi-Direct transformation.
 ModeAB=           4 MOrb=            10 LenV=     536352954
 LASXX=      3716564 LTotXX=     3716564 LenRXX=     7540198
 LTotAB=     3823634 MaxLAS=    10261360 LenRXY=           0
 NonZer=    11256762 LenScr=    17301504 LnRSAI=    10261360
 LnScr1=    15728640 LExtra=           0 Total=     50831702
 MaxDsk=          -1 SrtSym=           T ITran=            4
 DoSDTr:  NPSUse=  4
 JobTyp=0 Pass  1:  I=   1 to  10.
 (rs|ai) integrals will be sorted in core.
 Complete sort for first half transformation.
 First half transformation complete.
 Begin second half transformation for I=  10.
 Complete sort for second half transformation.
 Second half transformation complete.
 Spin components of T(2) and E(2):
     alpha-alpha T2 =       0.3080285343D-01 E2=     -0.9542141688D-01
     alpha-beta  T2 =       0.1713367476D+00 E2=     -0.5534214339D+00
     beta-beta   T2 =       0.3080285343D-01 E2=     -0.9542141688D-01
 ANorm=    0.1110379419D+01
 E2 =    -0.7442642677D+00 EUMP2 =    -0.21871265822630D+03
 Leave Link  804 at Fri Feb  9 19:09:46 2024, MaxMem=   536870912 cpu:               5.5 elap:               1.4
 (Enter /usr/site/hpc/x86_64/glibc-2.17/broadwell/gaussian/g16_a.03/pgi-16.5/g16/l913.exe)
 CIDS:  MDV=   536870912.
 Frozen-core window:  NFC=   4 NFV=   0.
 IFCWin=0 IBDFC=1 NFBD=     0     0 NFCmp=     0     0 NFFFC=     0     0
 Using DD3R+UMP44R for 1st iteration.
 Using DD4RQ for 2nd and later iterations.
 Keep R2 and R3 ints in memory in symmetry-blocked form, NReq=40118191.
 FoFCou: FMM=F IPFlag=           0 FMFlag=           0 FMFlg1=           0
         NFxFlg=           0 DoJE=F BraDBF=F KetDBF=F FulRan=T
         wScrn=  0.000000 ICntrl=       600 IOpCl=  0 I1Cent=           0 NGrid=           0
         NMat0=    1 NMatS0=   7260 NMatT0=    0 NMatD0=    1 NMtDS0=    0 NMtDT0=    0
 Petite list used in FoFCou.
 CIDS: In Core Option IDoMem=           1.
 CCSD(T)
 =======
 Iterations=  50 Convergence= 0.100D-06
 Produce multiple copies of IABC intergrals
 Iteration Nr.   1
 **********************
 DD1Dir will call FoFMem   1 times, MxPair=       110
 NAB=    55 NAA=     0 NBB=     0.
 MP4(R+Q)=  0.18928946D-01
 Maximum subspace dimension=  5
 A-vector RMS=  3.4293364D-03 Max=  1.6414872D-02 conv= 1.00D-05.
 RLE energy=       -0.7123240347
 E3=        0.13941024D-01        EUMP3=      -0.21869871720D+03
 E4(DQ)=   -0.48741014D-02        UMP4(DQ)=   -0.21870359130D+03
 E4(SDQ)=  -0.15690254D-01        UMP4(SDQ)=  -0.21871440746D+03
 VARIATIONAL ENERGIES WITH THE FIRST-ORDER WAVEFUNCTION:
 DE(Corr)= -0.71089218     E(Corr)=     -218.67928613    
 NORM(A)=   0.11024960D+01
 Iteration Nr.   2
 **********************
 DD1Dir will call FoFMem   1 times, MxPair=       110
 NAB=    55 NAA=     0 NBB=     0.
 A-vector RMS=  3.4684316D-04 Max=  5.8861431D-03 conv= 1.00D-05.
 RLE energy=       -0.7402105747
 DE(Corr)= -0.73973907     E(CORR)=     -218.70813303     Delta=-2.88D-02
 NORM(A)=   0.11128352D+01
 Iteration Nr.   3
 **********************
 DD1Dir will call FoFMem   1 times, MxPair=       110
 NAB=    55 NAA=     0 NBB=     0.
 A-vector RMS=  2.4516054D-04 Max=  1.4916989D-03 conv= 1.00D-05.
 RLE energy=       -0.7411379672
 DE(Corr)= -0.73941177     E(CORR)=     -218.70780572     Delta= 3.27D-04
 NORM(A)=   0.11150508D+01
 Iteration Nr.   4
 **********************
 DD1Dir will call FoFMem   1 times, MxPair=       110
 NAB=    55 NAA=     0 NBB=     0.
 A-vector RMS=  3.0769322D-05 Max=  5.3406745D-04 conv= 1.00D-05.
 RLE energy=       -0.7416201097
 DE(Corr)= -0.74143282     E(CORR)=     -218.70982678     Delta=-2.02D-03
 NORM(A)=   0.11156476D+01
 Iteration Nr.   5
 **********************
 DD1Dir will call FoFMem   1 times, MxPair=       110
 NAB=    55 NAA=     0 NBB=     0.
 A-vector RMS=  9.3408879D-06 Max=  9.5008281D-05 conv= 1.00D-05.
 RLE energy=       -0.7416372936
 DE(Corr)= -0.74160810     E(CORR)=     -218.71000206     Delta=-1.75D-04
 NORM(A)=   0.11157065D+01
 Iteration Nr.   6
 **********************
 DD1Dir will call FoFMem   1 times, MxPair=       110
 NAB=    55 NAA=     0 NBB=     0.
 A-vector RMS=  3.8413609D-06 Max=  2.3495900D-05 conv= 1.00D-05.
 RLE energy=       -0.7416148684
 DE(Corr)= -0.74162445     E(CORR)=     -218.71001841     Delta=-1.63D-05
 NORM(A)=   0.11156965D+01
 Iteration Nr.   7
 **********************
 DD1Dir will call FoFMem   1 times, MxPair=       110
 NAB=    55 NAA=     0 NBB=     0.
 A-vector RMS=  1.6022135D-06 Max=  1.1208490D-05 conv= 1.00D-05.
 RLE energy=       -0.7416264306
 DE(Corr)= -0.74162572     E(CORR)=     -218.71001968     Delta=-1.27D-06
 NORM(A)=   0.11156999D+01
 Iteration Nr.   8
 **********************
 DD1Dir will call FoFMem   1 times, MxPair=       110
 NAB=    55 NAA=     0 NBB=     0.
 A-vector RMS=  6.8631232D-07 Max=  7.0424073D-06 conv= 1.00D-05.
 RLE energy=       -0.7416242588
 DE(Corr)= -0.74162429     E(CORR)=     -218.71001825     Delta= 1.43D-06
 NORM(A)=   0.11156994D+01
 Iteration Nr.   9
 **********************
 DD1Dir will call FoFMem   1 times, MxPair=       110
 NAB=    55 NAA=     0 NBB=     0.
 A-vector RMS=  1.4690411D-07 Max=  1.1729108D-06 conv= 1.00D-05.
 RLE energy=       -0.7416248992
 DE(Corr)= -0.74162504     E(CORR)=     -218.71001900     Delta=-7.50D-07
 NORM(A)=   0.11156996D+01
 Iteration Nr.  10
 **********************
 DD1Dir will call FoFMem   1 times, MxPair=       110
 NAB=    55 NAA=     0 NBB=     0.
 A-vector RMS=  6.3072814D-08 Max=  5.5706278D-07 conv= 1.00D-05.
 RLE energy=       -0.7416250169
 DE(Corr)= -0.74162499     E(CORR)=     -218.71001895     Delta= 5.10D-08
 NORM(A)=   0.11156997D+01
 CI/CC converged in   10 iterations to DelEn= 5.10D-08 Conv= 1.00D-07 ErrA1= 6.31D-08 Conv= 1.00D-05
 Wavefunction amplitudes converged. E(Corr)=     -218.71001895    
 Largest amplitude= 6.35D-02
 IPart=  2 IA=    7   11.05% done.
 IPart=  2 IA=   13   21.46% done.
 IPart=  2 IA=   19   31.21% done.
 IPart=  4 IA=   25   40.32% done.
 IPart=  4 IA=   32   50.13% done.
 IPart=  2 IA=   40   60.27% done.
 IPart=  4 IA=   49   70.30% done.
 IPart=  1 IA=   60   80.58% done.
 IPart=  4 IA=   74   90.51% done.
 Time for triples=       79.61 seconds.
 T4(CCSD)= -0.38144180D-01
 T5(CCSD)=  0.16149553D-02
 CCSD(T)= -0.21874654817D+03
 Discarding MO integrals.
 Leave Link  913 at Fri Feb  9 19:10:14 2024, MaxMem=   536870912 cpu:             112.1 elap:              28.3
 (Enter /usr/site/hpc/x86_64/glibc-2.17/broadwell/gaussian/g16_a.03/pgi-16.5/g16/l601.exe)
 Copying SCF densities to generalized density rwf, IOpCl= 0 IROHF=0.

 **********************************************************************

            Population analysis using the SCF density.

 **********************************************************************

 Orbital symmetries:
       Occupied  (A') (A') (A') (A') (A') (A') (A') (A') (A') (A')
                 (A") (A') (A") (A')
       Virtual   (A") (A') (A') (A") (A') (A') (A') (A') (A") (A")
                 (A') (A') (A') (A") (A') (A') (A") (A') (A') (A')
                 (A") (A') (A") (A') (A') (A') (A") (A") (A') (A')
                 (A") (A') (A") (A') (A') (A") (A') (A') (A") (A')
                 (A') (A') (A") (A') (A") (A') (A') (A') (A") (A')
                 (A") (A') (A') (A') (A") (A') (A") (A') (A") (A')
                 (A") (A') (A") (A") (A') (A') (A') (A') (A") (A')
                 (A") (A') (A") (A') (A") (A') (A') (A") (A") (A')
                 (A") (A') (A") (A') (A') (A') (A") (A') (A") (A')
                 (A") (A') (A") (A') (A') (A') (A') (A') (A") (A')
                 (A") (A') (A') (A') (A') (A')
 The electronic state is 1-A'.
 Alpha  occ. eigenvalues --  -15.67770 -15.67560 -15.67397 -15.67190  -1.47436
 Alpha  occ. eigenvalues --   -1.47228  -0.77904  -0.76775  -0.63888  -0.62426
 Alpha  occ. eigenvalues --   -0.61479  -0.61455  -0.61222  -0.61082
 Alpha virt. eigenvalues --    0.15858   0.16298   0.17204   0.17597   0.41875
 Alpha virt. eigenvalues --    0.46008   0.52570   0.53899   0.54403   0.57742
 Alpha virt. eigenvalues --    0.58445   0.63767   0.67004   0.70546   0.70684
 Alpha virt. eigenvalues --    0.75766   0.78093   0.88600   0.93267   0.98291
 Alpha virt. eigenvalues --    1.04855   1.04856   1.05185   1.05711   1.11297
 Alpha virt. eigenvalues --    1.18320   1.34943   1.35163   1.35439   1.39168
 Alpha virt. eigenvalues --    1.51646   1.51657   1.52009   1.54102   1.93633
 Alpha virt. eigenvalues --    1.94255   1.94514   1.94728   1.94875   1.98468
 Alpha virt. eigenvalues --    2.28728   2.31770   3.15861   3.16439   3.17783
 Alpha virt. eigenvalues --    3.18561   3.30756   3.35185   3.50302   3.52573
 Alpha virt. eigenvalues --    3.54170   3.56323   3.76459   3.78298   3.83234
 Alpha virt. eigenvalues --    3.83237   3.83502   3.84313   3.95517   3.95517
 Alpha virt. eigenvalues --    3.95729   3.95759   3.99494   4.00154   4.00325
 Alpha virt. eigenvalues --    4.02873   4.41009   4.43988   4.45476   4.45476
 Alpha virt. eigenvalues --    4.45688   4.45859   4.77473   4.77474   4.77710
 Alpha virt. eigenvalues --    4.78073   4.87491   4.87581   4.88023   4.88614
 Alpha virt. eigenvalues --    4.91036   4.91041   4.91365   4.92231   5.05321
 Alpha virt. eigenvalues --    5.06425   5.32790   5.32790   5.33003   5.33012
 Alpha virt. eigenvalues --    5.43234   5.43308   5.43496   5.43992   5.55274
 Alpha virt. eigenvalues --    5.58300   6.22028   6.22950   6.89458   6.89477
 Alpha virt. eigenvalues --    6.90015   6.90251   7.07575   7.10001  17.07201
 Alpha virt. eigenvalues --   17.21828
          Condensed to atoms (all electrons):
               1          2          3          4
     1  N    6.208812   0.785467   0.000081  -0.000031
     2  N    0.785467   6.223808  -0.003355   0.000052
     3  N    0.000081  -0.003355   6.234777   0.774903
     4  N   -0.000031   0.000052   0.774903   6.218367
 Mulliken charges:
               1
     1  N    0.005670
     2  N   -0.005972
     3  N   -0.006406
     4  N    0.006708
 Sum of Mulliken charges =  -0.00000
 Mulliken charges with hydrogens summed into heavy atoms:
               1
     1  N    0.005670
     2  N   -0.005972
     3  N   -0.006406
     4  N    0.006708
 Electronic spatial extent (au):  <R**2>=            491.4773
 Charge=             -0.0000 electrons
 Dipole moment (field-independent basis, Debye):
    X=             -0.0259    Y=              0.0264    Z=             -0.0000  Tot=              0.0370
 Quadrupole moment (field-independent basis, Debye-Ang):
   XX=            -21.2083   YY=            -22.8121   ZZ=            -20.4996
   XY=              0.7161   XZ=             -0.0000   YZ=             -0.0000
 Traceless Quadrupole moment (field-independent basis, Debye-Ang):
   XX=              0.2984   YY=             -1.3054   ZZ=              1.0071
   XY=              0.7161   XZ=             -0.0000   YZ=             -0.0000
 Octapole moment (field-independent basis, Debye-Ang**2):
  XXX=             -0.4515  YYY=             -3.9936  ZZZ=             -0.0000  XYY=             -2.7642
  XXY=              1.7400  XXZ=             -0.0000  XZZ=             -0.0101  YZZ=              0.0120
  YYZ=             -0.0000  XYZ=              0.0000
 Hexadecapole moment (field-independent basis, Debye-Ang**3):
 XXXX=            -32.3480 YYYY=           -607.5590 ZZZZ=            -17.1599 XXXY=             30.5248
 XXXZ=             -0.0000 YYYX=             40.7931 YYYZ=              0.0000 ZZZX=             -0.0000
 ZZZY=              0.0000 XXYY=           -101.9644 XXZZ=             -8.1059 YYZZ=            -94.7450
 XXYZ=              0.0000 YYXZ=             -0.0000 ZZXY=              9.6296
 N-N= 7.372940806746D+01 E-N=-6.592352018173D+02  KE= 2.176558379097D+02
 Symmetry A'   KE= 2.111530353632D+02
 Symmetry A"   KE= 6.502802546449D+00
 Leave Link  601 at Fri Feb  9 19:10:14 2024, MaxMem=   536870912 cpu:               0.1 elap:               0.1
 (Enter /usr/site/hpc/x86_64/glibc-2.17/broadwell/gaussian/g16_a.03/pgi-16.5/g16/l9999.exe)
 1\1\GINC-N030\SP\RCCSD(T)-FC\CC-pVTZ\N4\ROOT\09-Feb-2024\0\\#p CCSD(T)
 /cc-pVTZ\\N2_N2_160\\0,1\N,0,-1.09,0.,0.\N,0,0.,0.,0.\N,0,2.206173,2.2
 06173,0.\N,0,2.97692,2.97692,0.\\Version=ES64L-G16RevA.03\State=1-A'\H
 F=-217.968394\MP2=-218.7126582\MP3=-218.6987172\MP4D=-218.7225202\MP4D
 Q=-218.7035913\MP4SDQ=-218.7144075\CCSD=-218.7100189\CCSD(T)=-218.7465
 482\RMSD=2.258e-09\PG=CS [SG(N4)]\\@


 "THE ACADEMIC HIERARCHY"


 THE PRESIDENT:
   LEAPS TALL BUILDINGS IN A SINGLE BOUND,
     IS MORE POWERFUL THAN A LOCOMOTIVE,
       IS FASTER THAN A SPEEDING BULLET,
         WALKS ON WATER,
           GIVES POLICY TO GOD.

 THE VICE PRESIDENT FOR ACADEMIC AFFAIRS:
   LEAPS SHORT BUILDINGS IN A SINGLE BOUND,
     IS MORE POWERFUL THAN A SWITCH ENGINE,
       IS JUST AS FAST AS A SPEEDING BULLET,
         WALKS ON WATER IF SEA IS CALM,
           TALKS WITH GOD.

 PROFESSOR:
   LEAPS SHORT BUILDINGS WITH A RUNNING START AND FAVORABLE WINDS,
     IS ALMOST AS POWERFUL AS A SWITCH ENGINE,
       CAN FIRE A SPEEDING BULLET,
         WALKS ON WATER IN AN INDOOR SWIMMING POOL,
          TALKS WITH GOD IF SPECIAL REQUEST IS APPROVED.

 ASSOCIATE PROFESSOR:
   BARELY CLEARS A QUONSET HUT,
     LOSES TUG OF WAR WITH LOCOMOTIVE,
       MISFIRES FREQUENTLY,
         SWIMS WELL,
           IS OCCASIONALLY ADDRESSED BY GOD.

 ASSISTANT PROFESSOR:
   MAKES HIGH MARKS ON WALLS WHEN TRYING TO LEAP TALL BUILDINGS,
     IS RUN OVER BY LOCOMOTIVES,
       CAN SOMETIMES HANDLE A GUN WITHOUT INFLICTING SELF INJURY,
         DOG PADDLES,
           TALKS TO ANIMALS.

 GRADUATE STUDENT:
   RUNS INTO BUILDINGS,
     RECOGNIZES LOCOMOTIVES TWO OUT OF THREE TIMES,
       IS NOT ISSUED AMMUNITION,
         CAN STAY AFLOAT WITH A LIFE JACKET,
           TALKS TO WALLS.

 UNDERGRADUATE AND WORK STUDY STUDENT:
   FALLS OVER DOORSTEP WHEN TRYING TO ENTER BUILDINGS,
     SAYS, "LOOK AT THE CHOO-CHOO,"
       WETS HIMSELF WITH A WATER PISTOL,
        PLAYS IN MUD PUDDLES,
          MUMBLES TO HIMSELF.

 DEPARTMENT SECRETARY:
   LIFTS TALL BUILDINGS AND WALKS UNDER THEM,
     KICKS LOCOMOTIVES OFF THE TRACKS,
       CATCHES SPEEDING BULLETS IN HER TEETH AND EATS THEM,
         FREEZES WATER WITH A SINGLE GLANCE,
           IS GOD.
 Job cpu time:       0 days  0 hours  2 minutes  4.4 seconds.
 Elapsed time:       0 days  0 hours  0 minutes 31.6 seconds.
 File lengths (MBytes):  RWF=    464 Int=      0 D2E=      0 Chk=      8 Scr=      8
 Normal termination of Gaussian 16 at Fri Feb  9 19:10:14 2024.
