 Entering Gaussian System, Link 0=g16
 Input=H2O_H2O_175.com
 Output=H2O_H2O_175.log
 Initial command:
 /usr/site/hpc/x86_64/glibc-2.17/broadwell/gaussian/g16_a.03/pgi-16.5/g16/l1.exe "/gpfs/gpfs1/scratch/c7441284/ForceFieldModel/FittingData2/Gau-4099660.inp" -scrdir="/gpfs/gpfs1/scratch/c7441284/ForceFieldModel/FittingData2/"
 Entering Link 1 = /usr/site/hpc/x86_64/glibc-2.17/broadwell/gaussian/g16_a.03/pgi-16.5/g16/l1.exe PID=   4099661.
  
 Copyright (c) 1988,1990,1992,1993,1995,1998,2003,2009,2016,
            Gaussian, Inc.  All Rights Reserved.
  
 This is part of the Gaussian(R) 16 program.  It is based on
 the Gaussian(R) 09 system (copyright 2009, Gaussian, Inc.),
 the Gaussian(R) 03 system (copyright 2003, Gaussian, Inc.),
 the Gaussian(R) 98 system (copyright 1998, Gaussian, Inc.),
 the Gaussian(R) 94 system (copyright 1995, Gaussian, Inc.),
 the Gaussian 92(TM) system (copyright 1992, Gaussian, Inc.),
 the Gaussian 90(TM) system (copyright 1990, Gaussian, Inc.),
 the Gaussian 88(TM) system (copyright 1988, Gaussian, Inc.),
 the Gaussian 86(TM) system (copyright 1986, Carnegie Mellon
 University), and the Gaussian 82(TM) system (copyright 1983,
 Carnegie Mellon University). Gaussian is a federally registered
 trademark of Gaussian, Inc.
  
 This software contains proprietary and confidential information,
 including trade secrets, belonging to Gaussian, Inc.
  
 This software is provided under written license and may be
 used, copied, transmitted, or stored only in accord with that
 written license.
  
 The following legend is applicable only to US Government
 contracts under FAR:
  
                    RESTRICTED RIGHTS LEGEND
  
 Use, reproduction and disclosure by the US Government is
 subject to restrictions as set forth in subparagraphs (a)
 and (c) of the Commercial Computer Software - Restricted
 Rights clause in FAR 52.227-19.
  
 Gaussian, Inc.
 340 Quinnipiac St., Bldg. 40, Wallingford CT 06492
  
  
 ---------------------------------------------------------------
 Warning -- This program may not be used in any manner that
 competes with the business of Gaussian, Inc. or will provide
 assistance to any competitor of Gaussian, Inc.  The licensee
 of this program is prohibited from giving any competitor of
 Gaussian, Inc. access to this program.  By using this program,
 the user acknowledges that Gaussian, Inc. is engaged in the
 business of creating and licensing software in the field of
 computational chemistry and represents and warrants to the
 licensee that it is not a competitor of Gaussian, Inc. and that
 it will not use this program in any manner prohibited above.
 ---------------------------------------------------------------
  

 Cite this work as:
 Gaussian 16, Revision A.03,
 M. J. Frisch, G. W. Trucks, H. B. Schlegel, G. E. Scuseria, 
 M. A. Robb, J. R. Cheeseman, G. Scalmani, V. Barone, 
 G. A. Petersson, H. Nakatsuji, X. Li, M. Caricato, A. V. Marenich, 
 J. Bloino, B. G. Janesko, R. Gomperts, B. Mennucci, H. P. Hratchian, 
 J. V. Ortiz, A. F. Izmaylov, J. L. Sonnenberg, D. Williams-Young, 
 F. Ding, F. Lipparini, F. Egidi, J. Goings, B. Peng, A. Petrone, 
 T. Henderson, D. Ranasinghe, V. G. Zakrzewski, J. Gao, N. Rega, 
 G. Zheng, W. Liang, M. Hada, M. Ehara, K. Toyota, R. Fukuda, 
 J. Hasegawa, M. Ishida, T. Nakajima, Y. Honda, O. Kitao, H. Nakai, 
 T. Vreven, K. Throssell, J. A. Montgomery, Jr., J. E. Peralta, 
 F. Ogliaro, M. J. Bearpark, J. J. Heyd, E. N. Brothers, K. N. Kudin, 
 V. N. Staroverov, T. A. Keith, R. Kobayashi, J. Normand, 
 K. Raghavachari, A. P. Rendell, J. C. Burant, S. S. Iyengar, 
 J. Tomasi, M. Cossi, J. M. Millam, M. Klene, C. Adamo, R. Cammi, 
 J. W. Ochterski, R. L. Martin, K. Morokuma, O. Farkas, 
 J. B. Foresman, and D. J. Fox, Gaussian, Inc., Wallingford CT, 2016.
 
 ******************************************
 Gaussian 16:  ES64L-G16RevA.03 25-Dec-2016
                26-Aug-2022 
 ******************************************
 %NProcShared=4
 Will use up to    4 processors via shared memory.
 %Mem=4GB
 %Chk=H2O_H2O_175.chk
 ------------------
 #p CCSD(T)/cc-pVTZ
 ------------------
 1/38=1,172=1/1;
 2/12=2,17=6,18=5,40=1/2;
 3/5=16,6=1,11=9,25=1,30=1/1,2,3;
 4//1;
 5/5=2,38=5/2;
 8/6=4,9=120000,10=1/1,4;
 9/5=7,14=2/13;
 6/7=2,8=2,9=2,10=2/1;
 99/5=1,9=1/99;
 Leave Link    1 at Fri Aug 26 16:22:40 2022, MaxMem=   536870912 cpu:               0.3 elap:               0.1
 (Enter /usr/site/hpc/x86_64/glibc-2.17/broadwell/gaussian/g16_a.03/pgi-16.5/g16/l101.exe)
 -----------
 H2O_H2O_175
 -----------
 Symbolic Z-matrix:
 Charge =  0 Multiplicity = 1
 O                     0.       -0.00983   0. 
 H                    -0.79957  -0.58097   0. 
 H                     0.79957  -0.58097   0. 
 O                    -1.77439  -1.27727   0. 
 H                    -2.57396  -1.84841   0. 
 H                    -0.97482  -1.84841   0. 
 
 ITRead=  0  0  0  0  0  0
 MicOpt= -1 -1 -1 -1 -1 -1
 NAtoms=      6 NQM=        6 NQMF=       0 NMMI=      0 NMMIF=      0
                NMic=       0 NMicF=      0.
                    Isotopes and Nuclear Properties:
 (Nuclear quadrupole moments (NQMom) in fm**2, nuclear magnetic moments (NMagM)
  in nuclear magnetons)

  Atom         1           2           3           4           5           6
 IAtWgt=          16           1           1          16           1           1
 AtmWgt=  15.9949146   1.0078250   1.0078250  15.9949146   1.0078250   1.0078250
 NucSpn=           0           1           1           0           1           1
 AtZEff=  -0.0000000  -0.0000000  -0.0000000  -0.0000000  -0.0000000  -0.0000000
 NQMom=    0.0000000   0.0000000   0.0000000   0.0000000   0.0000000   0.0000000
 NMagM=    0.0000000   2.7928460   2.7928460   0.0000000   2.7928460   2.7928460
 AtZNuc=   8.0000000   1.0000000   1.0000000   8.0000000   1.0000000   1.0000000
 Leave Link  101 at Fri Aug 26 16:22:41 2022, MaxMem=   536870912 cpu:               0.7 elap:               0.2
 (Enter /usr/site/hpc/x86_64/glibc-2.17/broadwell/gaussian/g16_a.03/pgi-16.5/g16/l202.exe)
                          Input orientation:                          
 ---------------------------------------------------------------------
 Center     Atomic      Atomic             Coordinates (Angstroms)
 Number     Number       Type             X           Y           Z
 ---------------------------------------------------------------------
      1          8           0        0.000000   -0.009833    0.000000
      2          1           0       -0.799571   -0.580965    0.000000
      3          1           0        0.799571   -0.580965    0.000000
      4          8           0       -1.774387   -1.277274    0.000000
      5          1           0       -2.573959   -1.848406    0.000000
      6          1           0       -0.974816   -1.848406    0.000000
 ---------------------------------------------------------------------
                    Distance matrix (angstroms):
                    1          2          3          4          5
     1  O    0.000000
     2  H    0.982601   0.000000
     3  H    0.982601   1.599142   0.000000
     4  O    2.180563   1.197962   2.666478   0.000000
     5  H    3.163165   2.180564   3.603763   0.982602   0.000000
     6  H    2.081013   1.279499   2.180563   0.982601   1.599143
                    6
     6  H    0.000000
 Stoichiometry    H4O2
 Framework group  CS[SG(H4O2)]
 Deg. of freedom     9
 Full point group                 CS      NOp   2
 Largest Abelian subgroup         CS      NOp   2
 Largest concise Abelian subgroup C1      NOp   1
                         Standard orientation:                         
 ---------------------------------------------------------------------
 Center     Atomic      Atomic             Coordinates (Angstroms)
 Number     Number       Type             X           Y           Z
 ---------------------------------------------------------------------
      1          8           0        0.092949   -1.156675    0.000000
      2          1           0        0.092949   -0.174074    0.000000
      3          1           0       -0.836544   -1.475342    0.000000
      4          8           0        0.092949    1.023888    0.000000
      5          1           0        0.092950    2.006490    0.000000
      6          1           0       -0.836544    0.705222    0.000000
 ---------------------------------------------------------------------
 Rotational constants (GHZ):         309.3420012          11.2480972          10.8534509
 Leave Link  202 at Fri Aug 26 16:22:41 2022, MaxMem=   536870912 cpu:               0.0 elap:               0.0
 (Enter /usr/site/hpc/x86_64/glibc-2.17/broadwell/gaussian/g16_a.03/pgi-16.5/g16/l301.exe)
 Standard basis: CC-pVTZ (5D, 7F)
 Ernie: Thresh=  0.10000D-02 Tol=  0.10000D-05 Strict=F.
 Ernie:  6 primitive shells out of 84 were deleted.
 There are    92 symmetry adapted cartesian basis functions of A'  symmetry.
 There are    38 symmetry adapted cartesian basis functions of A"  symmetry.
 There are    80 symmetry adapted basis functions of A'  symmetry.
 There are    36 symmetry adapted basis functions of A"  symmetry.
   116 basis functions,   172 primitive gaussians,   130 cartesian basis functions
    10 alpha electrons       10 beta electrons
       nuclear repulsion energy        42.9667255889 Hartrees.
 IExCor=    0 DFT=F Ex=HF Corr=None ExCW=0 ScaHFX=  1.000000
 ScaDFX=  1.000000  1.000000  1.000000  1.000000 ScalE2=  1.000000  1.000000
 IRadAn=      5 IRanWt=     -1 IRanGd=            0 ICorTp=0 IEmpDi=  4
 NAtoms=    6 NActive=    6 NUniq=    6 SFac= 1.00D+00 NAtFMM=   60 NAOKFM=F Big=F
 Integral buffers will be    131072 words long.
 Raffenetti 1 integral format.
 Two-electron integral symmetry is turned on.
 Leave Link  301 at Fri Aug 26 16:22:41 2022, MaxMem=   536870912 cpu:               0.2 elap:               0.0
 (Enter /usr/site/hpc/x86_64/glibc-2.17/broadwell/gaussian/g16_a.03/pgi-16.5/g16/l302.exe)
 NPDir=0 NMtPBC=     1 NCelOv=     1 NCel=       1 NClECP=     1 NCelD=      1
         NCelK=      1 NCelE2=     1 NClLst=     1 CellRange=     0.0.
 One-electron integrals computed using PRISM.
 One-electron integral symmetry used in STVInt
 NBasis=   116 RedAO= T EigKep=  1.73D-03  NBF=    80    36
 NBsUse=   116 1.00D-06 EigRej= -1.00D+00 NBFU=    80    36
 Leave Link  302 at Fri Aug 26 16:22:41 2022, MaxMem=   536870912 cpu:               0.5 elap:               0.1
 (Enter /usr/site/hpc/x86_64/glibc-2.17/broadwell/gaussian/g16_a.03/pgi-16.5/g16/l303.exe)
 DipDrv:  MaxL=1.
 Leave Link  303 at Fri Aug 26 16:22:41 2022, MaxMem=   536870912 cpu:               0.1 elap:               0.0
 (Enter /usr/site/hpc/x86_64/glibc-2.17/broadwell/gaussian/g16_a.03/pgi-16.5/g16/l401.exe)
 ExpMin= 1.03D-01 ExpMax= 1.53D+04 ExpMxC= 5.22D+02 IAcc=3 IRadAn=         5 AccDes= 0.00D+00
 Harris functional with IExCor=  205 and IRadAn=       5 diagonalized for initial guess.
 HarFok:  IExCor=  205 AccDes= 0.00D+00 IRadAn=         5 IDoV= 1 UseB2=F ITyADJ=14
 ICtDFT=  3500011 ScaDFX=  1.000000  1.000000  1.000000  1.000000
 FoFCou: FMM=F IPFlag=           0 FMFlag=      100000 FMFlg1=           0
         NFxFlg=           0 DoJE=T BraDBF=F KetDBF=T FulRan=T
         wScrn=  0.000000 ICntrl=       500 IOpCl=  0 I1Cent=   200000004 NGrid=           0
         NMat0=    1 NMatS0=      1 NMatT0=    0 NMatD0=    1 NMtDS0=    0 NMtDT0=    0
 Petite list used in FoFCou.
 Harris En= -152.271595085054    
 JPrj=0 DoOrth=F DoCkMO=F.
 Initial guess orbital symmetries:
       Occupied  (A') (A') (A') (A') (A') (A') (A') (A') (A") (A")
       Virtual   (A') (A') (A') (A') (A') (A') (A') (A") (A') (A')
                 (A') (A") (A') (A") (A') (A") (A') (A") (A') (A')
                 (A") (A') (A') (A') (A') (A') (A') (A") (A") (A")
                 (A') (A') (A') (A') (A') (A') (A") (A') (A') (A')
                 (A') (A") (A') (A') (A") (A") (A') (A") (A') (A")
                 (A') (A") (A') (A") (A') (A') (A") (A') (A") (A')
                 (A") (A') (A') (A") (A') (A") (A") (A') (A') (A')
                 (A') (A') (A") (A') (A') (A') (A') (A') (A') (A")
                 (A") (A') (A') (A') (A") (A") (A") (A") (A') (A")
                 (A") (A') (A') (A") (A') (A') (A') (A') (A') (A")
                 (A') (A') (A') (A') (A') (A')
 The electronic state of the initial guess is 1-A'.
 Leave Link  401 at Fri Aug 26 16:22:41 2022, MaxMem=   536870912 cpu:               0.8 elap:               0.2
 (Enter /usr/site/hpc/x86_64/glibc-2.17/broadwell/gaussian/g16_a.03/pgi-16.5/g16/l502.exe)
 Keep R1 ints in memory in symmetry-blocked form, NReq=34823457.
 FoFCou: FMM=F IPFlag=           0 FMFlag=           0 FMFlg1=           0
         NFxFlg=           0 DoJE=F BraDBF=F KetDBF=F FulRan=T
         wScrn=  0.000000 ICntrl=       600 IOpCl=  0 I1Cent=           0 NGrid=           0
         NMat0=    1 NMatS0=   6786 NMatT0=    0 NMatD0=    1 NMtDS0=    0 NMtDT0=    0
 Petite list used in FoFCou.
 Closed shell SCF:
 Using DIIS extrapolation, IDIIS=  1040.
 NGot=   536870912 LenX=   525040673 LenY=   525023332
 Requested convergence on RMS density matrix=1.00D-08 within 128 cycles.
 Requested convergence on MAX density matrix=1.00D-06.
 Requested convergence on             energy=1.00D-06.
 No special actions if energy rises.

 Cycle   1  Pass 1  IDiag  1:
 E= -151.861771745590    
 DIIS: error= 6.90D-02 at cycle   1 NSaved=   1.
 NSaved= 1 IEnMin= 1 EnMin= -151.861771745590     IErMin= 1 ErrMin= 6.90D-02
 ErrMax= 6.90D-02  0.00D+00 EMaxC= 1.00D-01 BMatC= 4.05D-01 BMatP= 4.05D-01
 IDIUse=3 WtCom= 3.10D-01 WtEn= 6.90D-01
 Coeff-Com:  0.100D+01
 Coeff-En:   0.100D+01
 Coeff:      0.100D+01
 Gap=     0.430 Goal=   None    Shift=    0.000
 GapD=    0.430 DampG=2.000 DampE=0.500 DampFc=1.0000 IDamp=-1.
 RMSDP=3.42D-03 MaxDP=9.79D-02              OVMax= 1.45D-01

 Cycle   2  Pass 1  IDiag  1:
 E= -151.979949514833     Delta-E=       -0.118177769243 Rises=F Damp=F
 DIIS: error= 4.06D-02 at cycle   2 NSaved=   2.
 NSaved= 2 IEnMin= 2 EnMin= -151.979949514833     IErMin= 2 ErrMin= 4.06D-02
 ErrMax= 4.06D-02  0.00D+00 EMaxC= 1.00D-01 BMatC= 1.06D-01 BMatP= 4.05D-01
 IDIUse=3 WtCom= 5.94D-01 WtEn= 4.06D-01
 Coeff-Com:  0.309D+00 0.691D+00
 Coeff-En:   0.127D+00 0.873D+00
 Coeff:      0.235D+00 0.765D+00
 Gap=     0.588 Goal=   None    Shift=    0.000
 RMSDP=1.85D-03 MaxDP=5.30D-02 DE=-1.18D-01 OVMax= 7.03D-02

 Cycle   3  Pass 1  IDiag  1:
 E= -152.040956015213     Delta-E=       -0.061006500380 Rises=F Damp=F
 DIIS: error= 1.05D-02 at cycle   3 NSaved=   3.
 NSaved= 3 IEnMin= 3 EnMin= -152.040956015213     IErMin= 3 ErrMin= 1.05D-02
 ErrMax= 1.05D-02  0.00D+00 EMaxC= 1.00D-01 BMatC= 7.10D-03 BMatP= 1.06D-01
 IDIUse=3 WtCom= 8.95D-01 WtEn= 1.05D-01
 Coeff-Com: -0.318D-01 0.172D+00 0.859D+00
 Coeff-En:   0.000D+00 0.000D+00 0.100D+01
 Coeff:     -0.284D-01 0.154D+00 0.874D+00
 Gap=     0.549 Goal=   None    Shift=    0.000
 RMSDP=3.12D-04 MaxDP=9.02D-03 DE=-6.10D-02 OVMax= 1.67D-02

 Cycle   4  Pass 1  IDiag  1:
 E= -152.045320078744     Delta-E=       -0.004364063531 Rises=F Damp=F
 DIIS: error= 8.90D-04 at cycle   4 NSaved=   4.
 NSaved= 4 IEnMin= 4 EnMin= -152.045320078744     IErMin= 4 ErrMin= 8.90D-04
 ErrMax= 8.90D-04  0.00D+00 EMaxC= 1.00D-01 BMatC= 5.48D-05 BMatP= 7.10D-03
 IDIUse=3 WtCom= 9.91D-01 WtEn= 8.90D-03
 Coeff-Com: -0.132D-03-0.271D-01-0.441D-01 0.107D+01
 Coeff-En:   0.000D+00 0.000D+00 0.000D+00 0.100D+01
 Coeff:     -0.131D-03-0.269D-01-0.437D-01 0.107D+01
 Gap=     0.554 Goal=   None    Shift=    0.000
 RMSDP=6.97D-05 MaxDP=1.35D-03 DE=-4.36D-03 OVMax= 2.61D-03

 Cycle   5  Pass 1  IDiag  1:
 E= -152.045379866080     Delta-E=       -0.000059787336 Rises=F Damp=F
 DIIS: error= 2.95D-04 at cycle   5 NSaved=   5.
 NSaved= 5 IEnMin= 5 EnMin= -152.045379866080     IErMin= 5 ErrMin= 2.95D-04
 ErrMax= 2.95D-04  0.00D+00 EMaxC= 1.00D-01 BMatC= 8.58D-06 BMatP= 5.48D-05
 IDIUse=3 WtCom= 9.97D-01 WtEn= 2.95D-03
 Coeff-Com:  0.393D-02-0.297D-01-0.118D+00 0.298D+00 0.846D+00
 Coeff-En:   0.000D+00 0.000D+00 0.000D+00 0.000D+00 0.100D+01
 Coeff:      0.392D-02-0.296D-01-0.118D+00 0.297D+00 0.847D+00
 Gap=     0.554 Goal=   None    Shift=    0.000
 RMSDP=2.49D-05 MaxDP=4.14D-04 DE=-5.98D-05 OVMax= 1.01D-03

 Cycle   6  Pass 1  IDiag  1:
 E= -152.045388920457     Delta-E=       -0.000009054377 Rises=F Damp=F
 DIIS: error= 9.89D-05 at cycle   6 NSaved=   6.
 NSaved= 6 IEnMin= 6 EnMin= -152.045388920457     IErMin= 6 ErrMin= 9.89D-05
 ErrMax= 9.89D-05  0.00D+00 EMaxC= 1.00D-01 BMatC= 4.27D-07 BMatP= 8.58D-06
 IDIUse=1 WtCom= 1.00D+00 WtEn= 0.00D+00
 Coeff-Com: -0.817D-04 0.265D-02 0.957D-02-0.105D+00-0.249D-01 0.112D+01
 Coeff:     -0.817D-04 0.265D-02 0.957D-02-0.105D+00-0.249D-01 0.112D+01
 Gap=     0.554 Goal=   None    Shift=    0.000
 RMSDP=7.62D-06 MaxDP=1.63D-04 DE=-9.05D-06 OVMax= 3.67D-04

 Cycle   7  Pass 1  IDiag  1:
 E= -152.045389612950     Delta-E=       -0.000000692494 Rises=F Damp=F
 DIIS: error= 9.21D-06 at cycle   7 NSaved=   7.
 NSaved= 7 IEnMin= 7 EnMin= -152.045389612950     IErMin= 7 ErrMin= 9.21D-06
 ErrMax= 9.21D-06  0.00D+00 EMaxC= 1.00D-01 BMatC= 1.08D-08 BMatP= 4.27D-07
 IDIUse=1 WtCom= 1.00D+00 WtEn= 0.00D+00
 Coeff-Com: -0.127D-03 0.674D-03 0.264D-02 0.520D-02-0.337D-01-0.178D+00
 Coeff-Com:  0.120D+01
 Coeff:     -0.127D-03 0.674D-03 0.264D-02 0.520D-02-0.337D-01-0.178D+00
 Coeff:      0.120D+01
 Gap=     0.554 Goal=   None    Shift=    0.000
 RMSDP=1.81D-06 MaxDP=3.53D-05 DE=-6.92D-07 OVMax= 8.90D-05

 Cycle   8  Pass 1  IDiag  1:
 E= -152.045389639864     Delta-E=       -0.000000026913 Rises=F Damp=F
 DIIS: error= 2.23D-06 at cycle   8 NSaved=   8.
 NSaved= 8 IEnMin= 8 EnMin= -152.045389639864     IErMin= 8 ErrMin= 2.23D-06
 ErrMax= 2.23D-06  0.00D+00 EMaxC= 1.00D-01 BMatC= 6.18D-10 BMatP= 1.08D-08
 IDIUse=1 WtCom= 1.00D+00 WtEn= 0.00D+00
 Coeff-Com:  0.877D-05-0.194D-03-0.725D-03 0.669D-02 0.280D-02-0.625D-01
 Coeff-Com: -0.566D-02 0.106D+01
 Coeff:      0.877D-05-0.194D-03-0.725D-03 0.669D-02 0.280D-02-0.625D-01
 Coeff:     -0.566D-02 0.106D+01
 Gap=     0.554 Goal=   None    Shift=    0.000
 RMSDP=3.27D-07 MaxDP=6.06D-06 DE=-2.69D-08 OVMax= 1.76D-05

 Cycle   9  Pass 1  IDiag  1:
 E= -152.045389640943     Delta-E=       -0.000000001080 Rises=F Damp=F
 DIIS: error= 8.24D-07 at cycle   9 NSaved=   9.
 NSaved= 9 IEnMin= 9 EnMin= -152.045389640943     IErMin= 9 ErrMin= 8.24D-07
 ErrMax= 8.24D-07  0.00D+00 EMaxC= 1.00D-01 BMatC= 4.05D-11 BMatP= 6.18D-10
 IDIUse=1 WtCom= 1.00D+00 WtEn= 0.00D+00
 Coeff-Com:  0.638D-05-0.136D-04-0.436D-04-0.144D-02 0.174D-02 0.187D-01
 Coeff-Com: -0.493D-01-0.248D+00 0.128D+01
 Coeff:      0.638D-05-0.136D-04-0.436D-04-0.144D-02 0.174D-02 0.187D-01
 Coeff:     -0.493D-01-0.248D+00 0.128D+01
 Gap=     0.554 Goal=   None    Shift=    0.000
 RMSDP=9.34D-08 MaxDP=1.46D-06 DE=-1.08D-09 OVMax= 6.22D-06

 Cycle  10  Pass 1  IDiag  1:
 E= -152.045389641043     Delta-E=       -0.000000000100 Rises=F Damp=F
 DIIS: error= 1.67D-07 at cycle  10 NSaved=  10.
 NSaved=10 IEnMin=10 EnMin= -152.045389641043     IErMin=10 ErrMin= 1.67D-07
 ErrMax= 1.67D-07  0.00D+00 EMaxC= 1.00D-01 BMatC= 2.28D-12 BMatP= 4.05D-11
 IDIUse=1 WtCom= 1.00D+00 WtEn= 0.00D+00
 Coeff-Com: -0.156D-05 0.121D-04 0.438D-04-0.784D-04-0.413D-03-0.514D-03
 Coeff-Com:  0.782D-02 0.449D-02-0.276D+00 0.126D+01
 Coeff:     -0.156D-05 0.121D-04 0.438D-04-0.784D-04-0.413D-03-0.514D-03
 Coeff:      0.782D-02 0.449D-02-0.276D+00 0.126D+01
 Gap=     0.554 Goal=   None    Shift=    0.000
 RMSDP=2.31D-08 MaxDP=3.87D-07 DE=-1.00D-10 OVMax= 1.77D-06

 Cycle  11  Pass 1  IDiag  1:
 E= -152.045389641050     Delta-E=       -0.000000000007 Rises=F Damp=F
 DIIS: error= 3.38D-08 at cycle  11 NSaved=  11.
 NSaved=11 IEnMin=11 EnMin= -152.045389641050     IErMin=11 ErrMin= 3.38D-08
 ErrMax= 3.38D-08  0.00D+00 EMaxC= 1.00D-01 BMatC= 1.33D-13 BMatP= 2.28D-12
 IDIUse=1 WtCom= 1.00D+00 WtEn= 0.00D+00
 Coeff-Com: -0.102D-06-0.953D-06-0.452D-05 0.869D-04-0.849D-05-0.782D-03
 Coeff-Com:  0.807D-03 0.146D-01-0.277D-01-0.237D+00 0.125D+01
 Coeff:     -0.102D-06-0.953D-06-0.452D-05 0.869D-04-0.849D-05-0.782D-03
 Coeff:      0.807D-03 0.146D-01-0.277D-01-0.237D+00 0.125D+01
 Gap=     0.554 Goal=   None    Shift=    0.000
 RMSDP=5.39D-09 MaxDP=9.44D-08 DE=-6.76D-12 OVMax= 4.28D-07

 SCF Done:  E(RHF) =  -152.045389641     A.U. after   11 cycles
            NFock= 11  Conv=0.54D-08     -V/T= 1.9991
 KE= 1.521784563733D+02 PE=-4.473774080940D+02 EE= 1.001868364907D+02
 Leave Link  502 at Fri Aug 26 16:22:42 2022, MaxMem=   536870912 cpu:               4.5 elap:               1.2
 (Enter /usr/site/hpc/x86_64/glibc-2.17/broadwell/gaussian/g16_a.03/pgi-16.5/g16/l801.exe)
 Windowed orbitals will be sorted by symmetry type.
 ExpMin= 1.03D-01 ExpMax= 1.53D+04 ExpMxC= 5.22D+02 IAcc=3 IRadAn=         5 AccDes= 0.00D+00
 HarFok:  IExCor=  205 AccDes= 0.00D+00 IRadAn=         5 IDoV=-2 UseB2=F ITyADJ=14
 ICtDFT= 12500011 ScaDFX=  1.000000  1.000000  1.000000  1.000000
 Largest valence mixing into a core orbital is  1.10D-04
 Largest core mixing into a valence orbital is  1.74D-05
 Range of M.O.s used for correlation:     3   116
 NBasis=   116 NAE=    10 NBE=    10 NFC=     2 NFV=     0
 NROrb=    114 NOA=     8 NOB=     8 NVA=   106 NVB=   106
 Leave Link  801 at Fri Aug 26 16:22:42 2022, MaxMem=   536870912 cpu:               0.3 elap:               0.1
 (Enter /usr/site/hpc/x86_64/glibc-2.17/broadwell/gaussian/g16_a.03/pgi-16.5/g16/l804.exe)
 Closed-shell transformation, MDV=   536870912 ITran=4 ISComp=2.
 Unit  1 TFree=        834515 TCopy=        406125.
 Semi-Direct transformation.
 ModeAB=           2 MOrb=             8 LenV=     536359112
 LASXX=      2873146 LTotXX=     2873146 LenRXX=     2873146
 LTotAB=     2958132 MaxLAS=     7765680 LenRXY=     7765680
 NonZer=     7990944 LenScr=    12058624 LnRSAI=           0
 LnScr1=           0 LExtra=           0 Total=     22697450
 MaxDsk=          -1 SrtSym=           F ITran=            4
 DoSDTr:  NPSUse=  4
 JobTyp=0 Pass  1:  I=   1 to   8.
 (rs|ai) integrals will be sorted in core.
 Complete sort for first half transformation.
 First half transformation complete.
 Complete sort for second half transformation.
 Second half transformation complete.
 Spin components of T(2) and E(2):
     alpha-alpha T2 =       0.1632495590D-01 E2=     -0.6711503654D-01
     alpha-beta  T2 =       0.9181670058D-01 E2=     -0.4038584364D+00
     beta-beta   T2 =       0.1632495590D-01 E2=     -0.6711503654D-01
 ANorm=    0.1060408701D+01
 E2 =    -0.5380885095D+00 EUMP2 =    -0.15258347815058D+03
 Leave Link  804 at Fri Aug 26 16:22:44 2022, MaxMem=   536870912 cpu:               5.5 elap:               1.4
 (Enter /usr/site/hpc/x86_64/glibc-2.17/broadwell/gaussian/g16_a.03/pgi-16.5/g16/l913.exe)
 CIDS:  MDV=   536870912.
 Frozen-core window:  NFC=   2 NFV=   0.
 IFCWin=0 IBDFC=1 NFBD=     0     0 NFCmp=     0     0 NFFFC=     0     0
 Using DD3R+UMP44R for 1st iteration.
 Using DD4RQ for 2nd and later iterations.
 Keep R2 and R3 ints in memory in symmetry-blocked form, NReq=35357534.
 FoFCou: FMM=F IPFlag=           0 FMFlag=           0 FMFlg1=           0
         NFxFlg=           0 DoJE=F BraDBF=F KetDBF=F FulRan=T
         wScrn=  0.000000 ICntrl=       600 IOpCl=  0 I1Cent=           0 NGrid=           0
         NMat0=    1 NMatS0=   6786 NMatT0=    0 NMatD0=    1 NMtDS0=    0 NMtDT0=    0
 Petite list used in FoFCou.
 CIDS: In Core Option IDoMem=           1.
 CCSD(T)
 =======
 Iterations=  50 Convergence= 0.100D-06
 Produce multiple copies of IABC intergrals
 Iteration Nr.   1
 **********************
 DD1Dir will call FoFMem   1 times, MxPair=        72
 NAB=    36 NAA=     0 NBB=     0.
 MP4(R+Q)=  0.84633138D-02
 Maximum subspace dimension=  5
 A-vector RMS=  2.1194348D-03 Max=  1.1279540D-02 conv= 1.00D-05.
 RLE energy=       -0.5349170983
 E3=       -0.53361627D-02        EUMP3=      -0.15258881431D+03
 E4(DQ)=   -0.47848178D-03        UMP4(DQ)=   -0.15258929280D+03
 E4(SDQ)=  -0.39993187D-02        UMP4(SDQ)=  -0.15259281363D+03
 VARIATIONAL ENERGIES WITH THE FIRST-ORDER WAVEFUNCTION:
 DE(Corr)= -0.53489830     E(Corr)=     -152.58028794    
 NORM(A)=   0.10599294D+01
 Iteration Nr.   2
 **********************
 DD1Dir will call FoFMem   1 times, MxPair=        72
 NAB=    36 NAA=     0 NBB=     0.
 A-vector RMS=  2.1915647D-04 Max=  1.9107853D-03 conv= 1.00D-05.
 RLE energy=       -0.5460605643
 DE(Corr)= -0.54521106     E(CORR)=     -152.59060070     Delta=-1.03D-02
 NORM(A)=   0.10636515D+01
 Iteration Nr.   3
 **********************
 DD1Dir will call FoFMem   1 times, MxPair=        72
 NAB=    36 NAA=     0 NBB=     0.
 A-vector RMS=  2.9617316D-04 Max=  3.0961476D-03 conv= 1.00D-05.
 RLE energy=       -0.5465554820
 DE(Corr)= -0.54592263     E(CORR)=     -152.59131227     Delta=-7.12D-04
 NORM(A)=   0.10643122D+01
 Iteration Nr.   4
 **********************
 DD1Dir will call FoFMem   1 times, MxPair=        72
 NAB=    36 NAA=     0 NBB=     0.
 A-vector RMS=  5.3943203D-05 Max=  7.2277688D-04 conv= 1.00D-05.
 RLE energy=       -0.5466227790
 DE(Corr)= -0.54658155     E(CORR)=     -152.59197119     Delta=-6.59D-04
 NORM(A)=   0.10644626D+01
 Iteration Nr.   5
 **********************
 DD1Dir will call FoFMem   1 times, MxPair=        72
 NAB=    36 NAA=     0 NBB=     0.
 A-vector RMS=  4.3771770D-05 Max=  5.6112703D-04 conv= 1.00D-05.
 RLE energy=       -0.5466482926
 DE(Corr)= -0.54663721     E(CORR)=     -152.59202685     Delta=-5.57D-05
 NORM(A)=   0.10645063D+01
 Iteration Nr.   6
 **********************
 DD1Dir will call FoFMem   1 times, MxPair=        72
 NAB=    36 NAA=     0 NBB=     0.
 A-vector RMS=  1.2924611D-05 Max=  1.2376442D-04 conv= 1.00D-05.
 RLE energy=       -0.5466453284
 DE(Corr)= -0.54664407     E(CORR)=     -152.59203371     Delta=-6.86D-06
 NORM(A)=   0.10645139D+01
 Iteration Nr.   7
 **********************
 DD1Dir will call FoFMem   1 times, MxPair=        72
 NAB=    36 NAA=     0 NBB=     0.
 A-vector RMS=  5.0593715D-06 Max=  5.7825980D-05 conv= 1.00D-05.
 RLE energy=       -0.5466396577
 DE(Corr)= -0.54664457     E(CORR)=     -152.59203421     Delta=-5.01D-07
 NORM(A)=   0.10645155D+01
 Iteration Nr.   8
 **********************
 DD1Dir will call FoFMem   1 times, MxPair=        72
 NAB=    36 NAA=     0 NBB=     0.
 A-vector RMS=  2.2396771D-06 Max=  2.6414784D-05 conv= 1.00D-05.
 RLE energy=       -0.5466436169
 DE(Corr)= -0.54664407     E(CORR)=     -152.59203371     Delta= 5.00D-07
 NORM(A)=   0.10645177D+01
 Iteration Nr.   9
 **********************
 DD1Dir will call FoFMem   1 times, MxPair=        72
 NAB=    36 NAA=     0 NBB=     0.
 A-vector RMS=  5.3186756D-07 Max=  5.0661306D-06 conv= 1.00D-05.
 RLE energy=       -0.5466437170
 DE(Corr)= -0.54664381     E(CORR)=     -152.59203345     Delta= 2.58D-07
 NORM(A)=   0.10645181D+01
 Iteration Nr.  10
 **********************
 DD1Dir will call FoFMem   1 times, MxPair=        72
 NAB=    36 NAA=     0 NBB=     0.
 A-vector RMS=  1.7790465D-07 Max=  1.6589525D-06 conv= 1.00D-05.
 RLE energy=       -0.5466440923
 DE(Corr)= -0.54664410     E(CORR)=     -152.59203374     Delta=-2.87D-07
 NORM(A)=   0.10645184D+01
 Iteration Nr.  11
 **********************
 DD1Dir will call FoFMem   1 times, MxPair=        72
 NAB=    36 NAA=     0 NBB=     0.
 A-vector RMS=  9.9824134D-08 Max=  8.6532465D-07 conv= 1.00D-05.
 RLE energy=       -0.5466441855
 DE(Corr)= -0.54664415     E(CORR)=     -152.59203379     Delta=-5.31D-08
 NORM(A)=   0.10645185D+01
 CI/CC converged in   11 iterations to DelEn=-5.31D-08 Conv= 1.00D-07 ErrA1= 9.98D-08 Conv= 1.00D-05
 Wavefunction amplitudes converged. E(Corr)=     -152.59203379    
 Largest amplitude= 3.44D-02
 IPart=  3 IA=    7   11.05% done.
 IPart=  4 IA=   13   21.46% done.
 IPart=  4 IA=   19   31.21% done.
 IPart=  1 IA=   25   40.32% done.
 IPart=  1 IA=   32   50.13% done.
 IPart=  1 IA=   40   60.27% done.
 IPart=  1 IA=   49   70.30% done.
 IPart=  3 IA=   60   80.58% done.
 IPart=  2 IA=   74   90.51% done.
 Time for triples=       57.03 seconds.
 T4(CCSD)= -0.17762697D-01
 T5(CCSD)=  0.49294450D-03
 CCSD(T)= -0.15260930355D+03
 Discarding MO integrals.
 Leave Link  913 at Fri Aug 26 16:23:05 2022, MaxMem=   536870912 cpu:              85.7 elap:              21.5
 (Enter /usr/site/hpc/x86_64/glibc-2.17/broadwell/gaussian/g16_a.03/pgi-16.5/g16/l601.exe)
 Copying SCF densities to generalized density rwf, IOpCl= 0 IROHF=0.

 **********************************************************************

            Population analysis using the SCF density.

 **********************************************************************

 Orbital symmetries:
       Occupied  (A') (A') (A') (A') (A') (A') (A') (A") (A') (A")
       Virtual   (A') (A') (A') (A') (A') (A') (A') (A') (A") (A')
                 (A") (A') (A') (A') (A") (A") (A') (A") (A') (A')
                 (A") (A') (A') (A') (A') (A') (A') (A") (A") (A')
                 (A") (A') (A') (A') (A') (A') (A") (A') (A') (A')
                 (A") (A') (A') (A') (A") (A') (A") (A') (A") (A')
                 (A") (A") (A') (A") (A') (A") (A') (A") (A") (A')
                 (A') (A') (A') (A') (A") (A") (A') (A") (A') (A')
                 (A') (A') (A") (A') (A') (A') (A') (A') (A') (A")
                 (A") (A') (A') (A') (A") (A") (A") (A") (A') (A")
                 (A") (A') (A') (A") (A') (A') (A') (A') (A') (A")
                 (A') (A') (A') (A') (A') (A')
 The electronic state is 1-A'.
 Alpha  occ. eigenvalues --  -20.61118 -20.48709  -1.42782  -1.27660  -0.82716
 Alpha  occ. eigenvalues --   -0.69303  -0.57748  -0.57248  -0.49458  -0.44523
 Alpha virt. eigenvalues --    0.10903   0.15988   0.21768   0.31778   0.49049
 Alpha virt. eigenvalues --    0.50757   0.59583   0.67553   0.71167   0.72685
 Alpha virt. eigenvalues --    0.75174   0.77591   0.79422   0.83600   0.85197
 Alpha virt. eigenvalues --    0.87539   0.96491   0.99722   1.03494   1.08953
 Alpha virt. eigenvalues --    1.16143   1.24134   1.35944   1.41217   1.51624
 Alpha virt. eigenvalues --    1.61284   1.65187   1.94016   1.97750   2.03590
 Alpha virt. eigenvalues --    2.07766   2.12389   2.18709   2.24676   2.29013
 Alpha virt. eigenvalues --    2.42127   2.45466   2.48412   2.76277   2.93507
 Alpha virt. eigenvalues --    3.12213   3.16598   3.33589   3.39025   3.43922
 Alpha virt. eigenvalues --    3.46213   3.54381   3.56698   3.66974   3.71704
 Alpha virt. eigenvalues --    3.79221   3.84224   3.88261   3.90775   3.91049
 Alpha virt. eigenvalues --    4.00608   4.01981   4.07633   4.10843   4.13317
 Alpha virt. eigenvalues --    4.14723   4.27358   4.35489   4.42330   4.42650
 Alpha virt. eigenvalues --    4.52851   4.64938   4.68427   4.74963   4.81812
 Alpha virt. eigenvalues --    4.93090   4.99003   5.01682   5.13435   5.21336
 Alpha virt. eigenvalues --    5.29798   5.46400   5.65162   5.65691   5.90336
 Alpha virt. eigenvalues --    6.09470   6.17880   6.45255   6.64294   6.76253
 Alpha virt. eigenvalues --    6.82914   6.91281   6.94962   6.96604   7.01893
 Alpha virt. eigenvalues --    7.13598   7.19829   7.23768   7.33192   7.37343
 Alpha virt. eigenvalues --    7.43630   7.55039   7.62899   7.76408   7.96208
 Alpha virt. eigenvalues --    8.09372   8.24013   8.60889   9.20399  12.99707
 Alpha virt. eigenvalues --   13.50824
          Condensed to atoms (all electrons):
               1          2          3          4          5          6
     1  O    7.939713   0.407602   0.341965  -0.118398   0.006013   0.006476
     2  H    0.407602   0.348845  -0.055836   0.061211  -0.009349  -0.013934
     3  H    0.341965  -0.055836   0.506472   0.006454  -0.000387   0.009287
     4  O   -0.118398   0.061211   0.006454   7.789465   0.299714   0.293439
     5  H    0.006013  -0.009349  -0.000387   0.299714   0.483834  -0.006193
     6  H    0.006476  -0.013934   0.009287   0.293439  -0.006193   0.475544
 Mulliken charges:
               1
     1  O   -0.583371
     2  H    0.261462
     3  H    0.192045
     4  O   -0.331885
     5  H    0.226368
     6  H    0.235381
 Sum of Mulliken charges =  -0.00000
 Mulliken charges with hydrogens summed into heavy atoms:
               1
     1  O   -0.129864
     4  O    0.129864
 Electronic spatial extent (au):  <R**2>=            123.9479
 Charge=             -0.0000 electrons
 Dipole moment (field-independent basis, Debye):
    X=             -2.9189    Y=              3.7282    Z=              0.0000  Tot=              4.7349
 Quadrupole moment (field-independent basis, Debye-Ang):
   XX=            -10.8125   YY=             -9.8748   ZZ=            -14.5375
   XY=              1.9212   XZ=              0.0000   YZ=              0.0000
 Traceless Quadrupole moment (field-independent basis, Debye-Ang):
   XX=              0.9291   YY=              1.8668   ZZ=             -2.7959
   XY=              1.9212   XZ=              0.0000   YZ=              0.0000
 Octapole moment (field-independent basis, Debye-Ang**2):
  XXX=             -3.1629  YYY=             17.2230  ZZZ=              0.0000  XYY=             -3.9335
  XXY=              0.0480  XXZ=              0.0000  XZZ=             -0.3481  YZZ=              0.9569
  YYZ=              0.0000  XYZ=              0.0000
 Hexadecapole moment (field-independent basis, Debye-Ang**3):
 XXXX=            -11.9740 YYYY=            -79.3254 ZZZZ=            -11.1519 XXXY=              0.3489
 XXXZ=              0.0000 YYYX=              7.2860 YYYZ=              0.0000 ZZZX=              0.0000
 ZZZY=              0.0000 XXYY=            -17.7614 XXZZ=             -4.3164 YYZZ=            -22.0905
 XXYZ=              0.0000 YYXZ=              0.0000 ZZXY=             -0.2160
 N-N= 4.296672558889D+01 E-N=-4.473774070919D+02  KE= 1.521784563733D+02
 Symmetry A'   KE= 1.431871618755D+02
 Symmetry A"   KE= 8.991294497861D+00
 Leave Link  601 at Fri Aug 26 16:23:05 2022, MaxMem=   536870912 cpu:               0.2 elap:               0.1
 (Enter /usr/site/hpc/x86_64/glibc-2.17/broadwell/gaussian/g16_a.03/pgi-16.5/g16/l9999.exe)
 1\1\GINC-N041\SP\RCCSD(T)-FC\CC-pVTZ\H4O2\C7441284\26-Aug-2022\0\\#p C
 CSD(T)/cc-pVTZ\\H2O_H2O_175\\0,1\O,0,0.,-0.009833,0.\H,0,-0.799571,-0.
 580965,0.\H,0,0.799571,-0.580965,0.\O,0,-1.774387,-1.277274,0.\H,0,-2.
 573959,-1.848406,0.\H,0,-0.974816,-1.848406,0.\\Version=ES64L-G16RevA.
 03\State=1-A'\HF=-152.0453896\MP2=-152.5834782\MP3=-152.5888143\MP4D=-
 152.5977561\MP4DQ=-152.5892928\MP4SDQ=-152.5928136\CCSD=-152.5920338\C
 CSD(T)=-152.6093035\RMSD=5.386e-09\PG=CS [SG(H4O2)]\\@


 THE ENLIGHTENED ONE, BECAUSE HE SAW MANKIND DROWNING  
 IN THE GREAT SEA OF BIRTH, DEATH, AND SORROW, LONGED TO SAVE 
 THEM, FOR THIS HE WAS MOVED TO PITY.                         
 BECAUSE HE SAW MEN OF THE WORLD STRAYING IN FALSE PATHS, AND 
 NONE TO GUIDE THEM, FOR THIS HE WAS MOVED TO PITY.           
                     ..................                       
 BECAUSE HE SAW THE MEN OF THE WORLD PLOUGHING THEIR FIELDS,  
 SOWING THE SEED, TRAFFICKING, HUCKSTERING, BUYING, SELLING,  
 AND AT THE END WINNOWING NOTHING BUT BITTERNESS,             
 FOR THIS HE WAS MOVED TO PITY......                   
                   BUDAH'S PITY - UPSAKA SILA SUTRA           
 Job cpu time:       0 days  0 hours  1 minutes 39.3 seconds.
 Elapsed time:       0 days  0 hours  0 minutes 25.0 seconds.
 File lengths (MBytes):  RWF=    572 Int=      0 D2E=      0 Chk=      8 Scr=      8
 Normal termination of Gaussian 16 at Fri Aug 26 16:23:05 2022.
