 Entering Gaussian System, Link 0=g16
 Input=H2O_H2O_4703.com
 Output=H2O_H2O_4703.log
 Initial command:
 /usr/site/hpc/x86_64/glibc-2.17/broadwell/gaussian/g16_a.03/pgi-16.5/g16/l1.exe "/gpfs/gpfs1/scratch/c7441284/ForceFieldModel/FittingData2/Gau-1017832.inp" -scrdir="/gpfs/gpfs1/scratch/c7441284/ForceFieldModel/FittingData2/"
 Entering Link 1 = /usr/site/hpc/x86_64/glibc-2.17/broadwell/gaussian/g16_a.03/pgi-16.5/g16/l1.exe PID=   1017833.
  
 Copyright (c) 1988,1990,1992,1993,1995,1998,2003,2009,2016,
            Gaussian, Inc.  All Rights Reserved.
  
 This is part of the Gaussian(R) 16 program.  It is based on
 the Gaussian(R) 09 system (copyright 2009, Gaussian, Inc.),
 the Gaussian(R) 03 system (copyright 2003, Gaussian, Inc.),
 the Gaussian(R) 98 system (copyright 1998, Gaussian, Inc.),
 the Gaussian(R) 94 system (copyright 1995, Gaussian, Inc.),
 the Gaussian 92(TM) system (copyright 1992, Gaussian, Inc.),
 the Gaussian 90(TM) system (copyright 1990, Gaussian, Inc.),
 the Gaussian 88(TM) system (copyright 1988, Gaussian, Inc.),
 the Gaussian 86(TM) system (copyright 1986, Carnegie Mellon
 University), and the Gaussian 82(TM) system (copyright 1983,
 Carnegie Mellon University). Gaussian is a federally registered
 trademark of Gaussian, Inc.
  
 This software contains proprietary and confidential information,
 including trade secrets, belonging to Gaussian, Inc.
  
 This software is provided under written license and may be
 used, copied, transmitted, or stored only in accord with that
 written license.
  
 The following legend is applicable only to US Government
 contracts under FAR:
  
                    RESTRICTED RIGHTS LEGEND
  
 Use, reproduction and disclosure by the US Government is
 subject to restrictions as set forth in subparagraphs (a)
 and (c) of the Commercial Computer Software - Restricted
 Rights clause in FAR 52.227-19.
  
 Gaussian, Inc.
 340 Quinnipiac St., Bldg. 40, Wallingford CT 06492
  
  
 ---------------------------------------------------------------
 Warning -- This program may not be used in any manner that
 competes with the business of Gaussian, Inc. or will provide
 assistance to any competitor of Gaussian, Inc.  The licensee
 of this program is prohibited from giving any competitor of
 Gaussian, Inc. access to this program.  By using this program,
 the user acknowledges that Gaussian, Inc. is engaged in the
 business of creating and licensing software in the field of
 computational chemistry and represents and warrants to the
 licensee that it is not a competitor of Gaussian, Inc. and that
 it will not use this program in any manner prohibited above.
 ---------------------------------------------------------------
  

 Cite this work as:
 Gaussian 16, Revision A.03,
 M. J. Frisch, G. W. Trucks, H. B. Schlegel, G. E. Scuseria, 
 M. A. Robb, J. R. Cheeseman, G. Scalmani, V. Barone, 
 G. A. Petersson, H. Nakatsuji, X. Li, M. Caricato, A. V. Marenich, 
 J. Bloino, B. G. Janesko, R. Gomperts, B. Mennucci, H. P. Hratchian, 
 J. V. Ortiz, A. F. Izmaylov, J. L. Sonnenberg, D. Williams-Young, 
 F. Ding, F. Lipparini, F. Egidi, J. Goings, B. Peng, A. Petrone, 
 T. Henderson, D. Ranasinghe, V. G. Zakrzewski, J. Gao, N. Rega, 
 G. Zheng, W. Liang, M. Hada, M. Ehara, K. Toyota, R. Fukuda, 
 J. Hasegawa, M. Ishida, T. Nakajima, Y. Honda, O. Kitao, H. Nakai, 
 T. Vreven, K. Throssell, J. A. Montgomery, Jr., J. E. Peralta, 
 F. Ogliaro, M. J. Bearpark, J. J. Heyd, E. N. Brothers, K. N. Kudin, 
 V. N. Staroverov, T. A. Keith, R. Kobayashi, J. Normand, 
 K. Raghavachari, A. P. Rendell, J. C. Burant, S. S. Iyengar, 
 J. Tomasi, M. Cossi, J. M. Millam, M. Klene, C. Adamo, R. Cammi, 
 J. W. Ochterski, R. L. Martin, K. Morokuma, O. Farkas, 
 J. B. Foresman, and D. J. Fox, Gaussian, Inc., Wallingford CT, 2016.
 
 ******************************************
 Gaussian 16:  ES64L-G16RevA.03 25-Dec-2016
                28-Aug-2022 
 ******************************************
 %NProcShared=4
 Will use up to    4 processors via shared memory.
 %Mem=4GB
 %Chk=H2O_H2O_4703.chk
 ------------------
 #p CCSD(T)/cc-pVTZ
 ------------------
 1/38=1,172=1/1;
 2/12=2,17=6,18=5,40=1/2;
 3/5=16,6=1,11=9,25=1,30=1/1,2,3;
 4//1;
 5/5=2,38=5/2;
 8/6=4,9=120000,10=1/1,4;
 9/5=7,14=2/13;
 6/7=2,8=2,9=2,10=2/1;
 99/5=1,9=1/99;
 Leave Link    1 at Sun Aug 28 05:10:26 2022, MaxMem=   536870912 cpu:               0.3 elap:               0.1
 (Enter /usr/site/hpc/x86_64/glibc-2.17/broadwell/gaussian/g16_a.03/pgi-16.5/g16/l101.exe)
 ------------
 H2O_H2O_4703
 ------------
 Symbolic Z-matrix:
 Charge =  0 Multiplicity = 1
 O                     0.       -0.00983   0. 
 H                    -0.79957  -0.58097   0. 
 H                     0.79957  -0.58097   0. 
 O                    -4.71374  -3.37529   0. 
 H                    -5.60937  -3.77945   0. 
 H                    -4.04095  -4.09143   0. 
 
 ITRead=  0  0  0  0  0  0
 MicOpt= -1 -1 -1 -1 -1 -1
 NAtoms=      6 NQM=        6 NQMF=       0 NMMI=      0 NMMIF=      0
                NMic=       0 NMicF=      0.
                    Isotopes and Nuclear Properties:
 (Nuclear quadrupole moments (NQMom) in fm**2, nuclear magnetic moments (NMagM)
  in nuclear magnetons)

  Atom         1           2           3           4           5           6
 IAtWgt=          16           1           1          16           1           1
 AtmWgt=  15.9949146   1.0078250   1.0078250  15.9949146   1.0078250   1.0078250
 NucSpn=           0           1           1           0           1           1
 AtZEff=  -0.0000000  -0.0000000  -0.0000000  -0.0000000  -0.0000000  -0.0000000
 NQMom=    0.0000000   0.0000000   0.0000000   0.0000000   0.0000000   0.0000000
 NMagM=    0.0000000   2.7928460   2.7928460   0.0000000   2.7928460   2.7928460
 AtZNuc=   8.0000000   1.0000000   1.0000000   8.0000000   1.0000000   1.0000000
 Leave Link  101 at Sun Aug 28 05:10:26 2022, MaxMem=   536870912 cpu:               0.7 elap:               0.2
 (Enter /usr/site/hpc/x86_64/glibc-2.17/broadwell/gaussian/g16_a.03/pgi-16.5/g16/l202.exe)
                          Input orientation:                          
 ---------------------------------------------------------------------
 Center     Atomic      Atomic             Coordinates (Angstroms)
 Number     Number       Type             X           Y           Z
 ---------------------------------------------------------------------
      1          8           0        0.000000   -0.009833    0.000000
      2          1           0       -0.799571   -0.580965    0.000000
      3          1           0        0.799571   -0.580965    0.000000
      4          8           0       -4.713736   -3.375285    0.000000
      5          1           0       -5.609366   -3.779454    0.000000
      6          1           0       -4.040951   -4.091431    0.000000
 ---------------------------------------------------------------------
                    Distance matrix (angstroms):
                    1          2          3          4          5
     1  O    0.000000
     2  H    0.982601   0.000000
     3  H    0.982601   1.599142   0.000000
     4  O    5.791854   4.809253   6.181001   0.000000
     5  H    6.758330   5.776198   7.162737   0.982601   0.000000
     6  H    5.743581   4.778066   5.979467   0.982601   1.599142
                    6
     6  H    0.000000
 Stoichiometry    H4O2
 Framework group  CS[SG(H4O2)]
 Deg. of freedom     9
 Full point group                 CS      NOp   2
 Largest Abelian subgroup         CS      NOp   2
 Largest concise Abelian subgroup C1      NOp   1
                         Standard orientation:                         
 ---------------------------------------------------------------------
 Center     Atomic      Atomic             Coordinates (Angstroms)
 Number     Number       Type             X           Y           Z
 ---------------------------------------------------------------------
      1          8           0        0.085596   -2.970731    0.000000
      2          1           0        0.085381   -1.988129    0.000000
      3          1           0       -0.843827   -3.289601    0.000000
      4          8           0        0.085596    2.821123    0.000000
      5          1           0        0.277081    3.784886    0.000000
      6          1           0       -0.888176    2.689702    0.000000
 ---------------------------------------------------------------------
 Rotational constants (GHZ):         284.4881658           1.6567543           1.6471618
 Leave Link  202 at Sun Aug 28 05:10:27 2022, MaxMem=   536870912 cpu:               0.0 elap:               0.0
 (Enter /usr/site/hpc/x86_64/glibc-2.17/broadwell/gaussian/g16_a.03/pgi-16.5/g16/l301.exe)
 Standard basis: CC-pVTZ (5D, 7F)
 Ernie: Thresh=  0.10000D-02 Tol=  0.10000D-05 Strict=F.
 Ernie:  6 primitive shells out of 84 were deleted.
 There are    92 symmetry adapted cartesian basis functions of A'  symmetry.
 There are    38 symmetry adapted cartesian basis functions of A"  symmetry.
 There are    80 symmetry adapted basis functions of A'  symmetry.
 There are    36 symmetry adapted basis functions of A"  symmetry.
   116 basis functions,   172 primitive gaussians,   130 cartesian basis functions
    10 alpha electrons       10 beta electrons
       nuclear repulsion energy        27.0361320421 Hartrees.
 IExCor=    0 DFT=F Ex=HF Corr=None ExCW=0 ScaHFX=  1.000000
 ScaDFX=  1.000000  1.000000  1.000000  1.000000 ScalE2=  1.000000  1.000000
 IRadAn=      5 IRanWt=     -1 IRanGd=            0 ICorTp=0 IEmpDi=  4
 NAtoms=    6 NActive=    6 NUniq=    6 SFac= 1.00D+00 NAtFMM=   60 NAOKFM=F Big=F
 Integral buffers will be    131072 words long.
 Raffenetti 1 integral format.
 Two-electron integral symmetry is turned on.
 Leave Link  301 at Sun Aug 28 05:10:27 2022, MaxMem=   536870912 cpu:               0.2 elap:               0.0
 (Enter /usr/site/hpc/x86_64/glibc-2.17/broadwell/gaussian/g16_a.03/pgi-16.5/g16/l302.exe)
 NPDir=0 NMtPBC=     1 NCelOv=     1 NCel=       1 NClECP=     1 NCelD=      1
         NCelK=      1 NCelE2=     1 NClLst=     1 CellRange=     0.0.
 One-electron integrals computed using PRISM.
 One-electron integral symmetry used in STVInt
 NBasis=   116 RedAO= T EigKep=  2.67D-03  NBF=    80    36
 NBsUse=   116 1.00D-06 EigRej= -1.00D+00 NBFU=    80    36
 Leave Link  302 at Sun Aug 28 05:10:27 2022, MaxMem=   536870912 cpu:               0.5 elap:               0.1
 (Enter /usr/site/hpc/x86_64/glibc-2.17/broadwell/gaussian/g16_a.03/pgi-16.5/g16/l303.exe)
 DipDrv:  MaxL=1.
 Leave Link  303 at Sun Aug 28 05:10:27 2022, MaxMem=   536870912 cpu:               0.1 elap:               0.0
 (Enter /usr/site/hpc/x86_64/glibc-2.17/broadwell/gaussian/g16_a.03/pgi-16.5/g16/l401.exe)
 ExpMin= 1.03D-01 ExpMax= 1.53D+04 ExpMxC= 5.22D+02 IAcc=3 IRadAn=         5 AccDes= 0.00D+00
 Harris functional with IExCor=  205 and IRadAn=       5 diagonalized for initial guess.
 HarFok:  IExCor=  205 AccDes= 0.00D+00 IRadAn=         5 IDoV= 1 UseB2=F ITyADJ=14
 ICtDFT=  3500011 ScaDFX=  1.000000  1.000000  1.000000  1.000000
 FoFCou: FMM=F IPFlag=           0 FMFlag=      100000 FMFlg1=           0
         NFxFlg=           0 DoJE=T BraDBF=F KetDBF=T FulRan=T
         wScrn=  0.000000 ICntrl=       500 IOpCl=  0 I1Cent=   200000004 NGrid=           0
         NMat0=    1 NMatS0=      1 NMatT0=    0 NMatD0=    1 NMtDS0=    0 NMtDT0=    0
 Petite list used in FoFCou.
 Harris En= -152.298672529680    
 JPrj=0 DoOrth=F DoCkMO=F.
 Initial guess orbital symmetries:
       Occupied  (A') (A') (A') (A') (A') (A') (A') (A') (A") (A")
       Virtual   (A') (A') (A') (A') (A') (A') (A') (A') (A') (A')
                 (A") (A") (A') (A') (A') (A') (A") (A") (A") (A")
                 (A') (A') (A') (A') (A') (A') (A') (A') (A") (A")
                 (A") (A") (A') (A') (A') (A') (A') (A') (A') (A')
                 (A') (A') (A") (A") (A') (A') (A") (A") (A") (A")
                 (A') (A') (A') (A') (A') (A') (A") (A") (A') (A')
                 (A') (A') (A") (A") (A") (A") (A') (A') (A') (A')
                 (A") (A") (A') (A') (A') (A') (A') (A') (A') (A')
                 (A") (A") (A') (A') (A") (A") (A") (A") (A') (A')
                 (A") (A") (A') (A') (A') (A') (A") (A") (A') (A')
                 (A') (A') (A') (A') (A') (A')
 The electronic state of the initial guess is 1-A'.
 Leave Link  401 at Sun Aug 28 05:10:27 2022, MaxMem=   536870912 cpu:               0.8 elap:               0.2
 (Enter /usr/site/hpc/x86_64/glibc-2.17/broadwell/gaussian/g16_a.03/pgi-16.5/g16/l502.exe)
 Keep R1 ints in memory in symmetry-blocked form, NReq=34823457.
 FoFCou: FMM=F IPFlag=           0 FMFlag=           0 FMFlg1=           0
         NFxFlg=           0 DoJE=F BraDBF=F KetDBF=F FulRan=T
         wScrn=  0.000000 ICntrl=       600 IOpCl=  0 I1Cent=           0 NGrid=           0
         NMat0=    1 NMatS0=   6786 NMatT0=    0 NMatD0=    1 NMtDS0=    0 NMtDT0=    0
 Petite list used in FoFCou.
 Closed shell SCF:
 Using DIIS extrapolation, IDIIS=  1040.
 NGot=   536870912 LenX=   525040673 LenY=   525023332
 Requested convergence on RMS density matrix=1.00D-08 within 128 cycles.
 Requested convergence on MAX density matrix=1.00D-06.
 Requested convergence on             energy=1.00D-06.
 No special actions if energy rises.

 Cycle   1  Pass 1  IDiag  1:
 E= -151.927710107029    
 DIIS: error= 6.59D-02 at cycle   1 NSaved=   1.
 NSaved= 1 IEnMin= 1 EnMin= -151.927710107029     IErMin= 1 ErrMin= 6.59D-02
 ErrMax= 6.59D-02  0.00D+00 EMaxC= 1.00D-01 BMatC= 4.00D-01 BMatP= 4.00D-01
 IDIUse=3 WtCom= 3.41D-01 WtEn= 6.59D-01
 Coeff-Com:  0.100D+01
 Coeff-En:   0.100D+01
 Coeff:      0.100D+01
 Gap=     0.512 Goal=   None    Shift=    0.000
 GapD=    0.512 DampG=2.000 DampE=0.500 DampFc=1.0000 IDamp=-1.
 RMSDP=2.50D-03 MaxDP=6.66D-02              OVMax= 1.27D-01

 Cycle   2  Pass 1  IDiag  1:
 E= -152.039409685648     Delta-E=       -0.111699578619 Rises=F Damp=F
 DIIS: error= 4.14D-02 at cycle   2 NSaved=   2.
 NSaved= 2 IEnMin= 2 EnMin= -152.039409685648     IErMin= 2 ErrMin= 4.14D-02
 ErrMax= 4.14D-02  0.00D+00 EMaxC= 1.00D-01 BMatC= 1.13D-01 BMatP= 4.00D-01
 IDIUse=3 WtCom= 5.86D-01 WtEn= 4.14D-01
 Coeff-Com:  0.319D+00 0.681D+00
 Coeff-En:   0.166D+00 0.834D+00
 Coeff:      0.256D+00 0.744D+00
 Gap=     0.652 Goal=   None    Shift=    0.000
 RMSDP=1.32D-03 MaxDP=3.96D-02 DE=-1.12D-01 OVMax= 5.72D-02

 Cycle   3  Pass 1  IDiag  1:
 E= -152.104036580165     Delta-E=       -0.064626894517 Rises=F Damp=F
 DIIS: error= 8.96D-03 at cycle   3 NSaved=   3.
 NSaved= 3 IEnMin= 3 EnMin= -152.104036580165     IErMin= 3 ErrMin= 8.96D-03
 ErrMax= 8.96D-03  0.00D+00 EMaxC= 1.00D-01 BMatC= 5.97D-03 BMatP= 1.13D-01
 IDIUse=3 WtCom= 9.10D-01 WtEn= 8.96D-02
 Coeff-Com: -0.304D-01 0.156D+00 0.875D+00
 Coeff-En:   0.000D+00 0.000D+00 0.100D+01
 Coeff:     -0.277D-01 0.142D+00 0.886D+00
 Gap=     0.624 Goal=   None    Shift=    0.000
 RMSDP=2.43D-04 MaxDP=5.71D-03 DE=-6.46D-02 OVMax= 1.34D-02

 Cycle   4  Pass 1  IDiag  1:
 E= -152.107754088439     Delta-E=       -0.003717508274 Rises=F Damp=F
 DIIS: error= 8.55D-04 at cycle   4 NSaved=   4.
 NSaved= 4 IEnMin= 4 EnMin= -152.107754088439     IErMin= 4 ErrMin= 8.55D-04
 ErrMax= 8.55D-04  0.00D+00 EMaxC= 1.00D-01 BMatC= 3.73D-05 BMatP= 5.97D-03
 IDIUse=3 WtCom= 9.91D-01 WtEn= 8.55D-03
 Coeff-Com:  0.679D-02-0.612D-01-0.239D+00 0.129D+01
 Coeff-En:   0.000D+00 0.000D+00 0.000D+00 0.100D+01
 Coeff:      0.674D-02-0.607D-01-0.237D+00 0.129D+01
 Gap=     0.627 Goal=   None    Shift=    0.000
 RMSDP=5.17D-05 MaxDP=1.03D-03 DE=-3.72D-03 OVMax= 2.23D-03

 Cycle   5  Pass 1  IDiag  1:
 E= -152.107804171962     Delta-E=       -0.000050083523 Rises=F Damp=F
 DIIS: error= 1.94D-04 at cycle   5 NSaved=   5.
 NSaved= 5 IEnMin= 5 EnMin= -152.107804171962     IErMin= 5 ErrMin= 1.94D-04
 ErrMax= 1.94D-04  0.00D+00 EMaxC= 1.00D-01 BMatC= 1.35D-06 BMatP= 3.73D-05
 IDIUse=3 WtCom= 9.98D-01 WtEn= 1.94D-03
 Coeff-Com:  0.535D-03 0.503D-03-0.271D-02-0.222D+00 0.122D+01
 Coeff-En:   0.000D+00 0.000D+00 0.000D+00 0.000D+00 0.100D+01
 Coeff:      0.534D-03 0.502D-03-0.270D-02-0.222D+00 0.122D+01
 Gap=     0.628 Goal=   None    Shift=    0.000
 RMSDP=1.42D-05 MaxDP=2.89D-04 DE=-5.01D-05 OVMax= 6.89D-04

 Cycle   6  Pass 1  IDiag  1:
 E= -152.107806998408     Delta-E=       -0.000002826446 Rises=F Damp=F
 DIIS: error= 2.81D-05 at cycle   6 NSaved=   6.
 NSaved= 6 IEnMin= 6 EnMin= -152.107806998408     IErMin= 6 ErrMin= 2.81D-05
 ErrMax= 2.81D-05  0.00D+00 EMaxC= 1.00D-01 BMatC= 3.32D-08 BMatP= 1.35D-06
 IDIUse=1 WtCom= 1.00D+00 WtEn= 0.00D+00
 Coeff-Com: -0.269D-03 0.155D-02 0.665D-02 0.229D-02-0.262D+00 0.125D+01
 Coeff:     -0.269D-03 0.155D-02 0.665D-02 0.229D-02-0.262D+00 0.125D+01
 Gap=     0.628 Goal=   None    Shift=    0.000
 RMSDP=3.00D-06 MaxDP=6.55D-05 DE=-2.83D-06 OVMax= 1.52D-04

 Cycle   7  Pass 1  IDiag  1:
 E= -152.107807093016     Delta-E=       -0.000000094608 Rises=F Damp=F
 DIIS: error= 5.34D-06 at cycle   7 NSaved=   7.
 NSaved= 7 IEnMin= 7 EnMin= -152.107807093016     IErMin= 7 ErrMin= 5.34D-06
 ErrMax= 5.34D-06  0.00D+00 EMaxC= 1.00D-01 BMatC= 1.74D-09 BMatP= 3.32D-08
 IDIUse=1 WtCom= 1.00D+00 WtEn= 0.00D+00
 Coeff-Com:  0.281D-04-0.373D-03-0.149D-02 0.135D-01-0.149D-01-0.214D+00
 Coeff-Com:  0.122D+01
 Coeff:      0.281D-04-0.373D-03-0.149D-02 0.135D-01-0.149D-01-0.214D+00
 Coeff:      0.122D+01
 Gap=     0.628 Goal=   None    Shift=    0.000
 RMSDP=4.33D-07 MaxDP=8.94D-06 DE=-9.46D-08 OVMax= 2.99D-05

 Cycle   8  Pass 1  IDiag  1:
 E= -152.107807096690     Delta-E=       -0.000000003674 Rises=F Damp=F
 DIIS: error= 1.59D-06 at cycle   8 NSaved=   8.
 NSaved= 8 IEnMin= 8 EnMin= -152.107807096690     IErMin= 8 ErrMin= 1.59D-06
 ErrMax= 1.59D-06  0.00D+00 EMaxC= 1.00D-01 BMatC= 1.18D-10 BMatP= 1.74D-09
 IDIUse=1 WtCom= 1.00D+00 WtEn= 0.00D+00
 Coeff-Com:  0.111D-04-0.351D-04-0.135D-03-0.227D-02 0.174D-01-0.400D-01
 Coeff-Com: -0.151D+00 0.118D+01
 Coeff:      0.111D-04-0.351D-04-0.135D-03-0.227D-02 0.174D-01-0.400D-01
 Coeff:     -0.151D+00 0.118D+01
 Gap=     0.628 Goal=   None    Shift=    0.000
 RMSDP=1.03D-07 MaxDP=2.12D-06 DE=-3.67D-09 OVMax= 6.77D-06

 Cycle   9  Pass 1  IDiag  1:
 E= -152.107807096912     Delta-E=       -0.000000000222 Rises=F Damp=F
 DIIS: error= 4.97D-07 at cycle   9 NSaved=   9.
 NSaved= 9 IEnMin= 9 EnMin= -152.107807096912     IErMin= 9 ErrMin= 4.97D-07
 ErrMax= 4.97D-07  0.00D+00 EMaxC= 1.00D-01 BMatC= 2.13D-11 BMatP= 1.18D-10
 IDIUse=1 WtCom= 1.00D+00 WtEn= 0.00D+00
 Coeff-Com:  0.740D-06 0.297D-04 0.123D-03-0.235D-02 0.815D-02 0.803D-02
 Coeff-Com: -0.177D+00 0.380D+00 0.783D+00
 Coeff:      0.740D-06 0.297D-04 0.123D-03-0.235D-02 0.815D-02 0.803D-02
 Coeff:     -0.177D+00 0.380D+00 0.783D+00
 Gap=     0.628 Goal=   None    Shift=    0.000
 RMSDP=2.65D-08 MaxDP=5.97D-07 DE=-2.22D-10 OVMax= 1.76D-06

 Cycle  10  Pass 1  IDiag  1:
 E= -152.107807096933     Delta-E=       -0.000000000021 Rises=F Damp=F
 DIIS: error= 9.91D-08 at cycle  10 NSaved=  10.
 NSaved=10 IEnMin=10 EnMin= -152.107807096933     IErMin=10 ErrMin= 9.91D-08
 ErrMax= 9.91D-08  0.00D+00 EMaxC= 1.00D-01 BMatC= 4.69D-13 BMatP= 2.13D-11
 IDIUse=1 WtCom= 1.00D+00 WtEn= 0.00D+00
 Coeff-Com: -0.594D-06-0.429D-05-0.204D-04 0.551D-03-0.203D-02-0.161D-02
 Coeff-Com:  0.500D-01-0.150D+00-0.184D+00 0.129D+01
 Coeff:     -0.594D-06-0.429D-05-0.204D-04 0.551D-03-0.203D-02-0.161D-02
 Coeff:      0.500D-01-0.150D+00-0.184D+00 0.129D+01
 Gap=     0.628 Goal=   None    Shift=    0.000
 RMSDP=7.15D-09 MaxDP=2.05D-07 DE=-2.11D-11 OVMax= 4.23D-07

 SCF Done:  E(RHF) =  -152.107807097     A.U. after   10 cycles
            NFock= 10  Conv=0.72D-08     -V/T= 2.0020
 KE= 1.518041083446D+02 PE=-4.154636511879D+02 EE= 8.451560370426D+01
 Leave Link  502 at Sun Aug 28 05:10:28 2022, MaxMem=   536870912 cpu:               3.9 elap:               1.1
 (Enter /usr/site/hpc/x86_64/glibc-2.17/broadwell/gaussian/g16_a.03/pgi-16.5/g16/l801.exe)
 Windowed orbitals will be sorted by symmetry type.
 ExpMin= 1.03D-01 ExpMax= 1.53D+04 ExpMxC= 5.22D+02 IAcc=3 IRadAn=         5 AccDes= 0.00D+00
 HarFok:  IExCor=  205 AccDes= 0.00D+00 IRadAn=         5 IDoV=-2 UseB2=F ITyADJ=14
 ICtDFT= 12500011 ScaDFX=  1.000000  1.000000  1.000000  1.000000
 Largest valence mixing into a core orbital is  1.12D-04
 Largest core mixing into a valence orbital is  1.76D-05
 Range of M.O.s used for correlation:     3   116
 NBasis=   116 NAE=    10 NBE=    10 NFC=     2 NFV=     0
 NROrb=    114 NOA=     8 NOB=     8 NVA=   106 NVB=   106
 Leave Link  801 at Sun Aug 28 05:10:28 2022, MaxMem=   536870912 cpu:               0.3 elap:               0.1
 (Enter /usr/site/hpc/x86_64/glibc-2.17/broadwell/gaussian/g16_a.03/pgi-16.5/g16/l804.exe)
 Closed-shell transformation, MDV=   536870912 ITran=4 ISComp=2.
 Unit  1 TFree=        834515 TCopy=        406125.
 Semi-Direct transformation.
 ModeAB=           4 MOrb=             8 LenV=     536378379
 LASXX=      2873146 LTotXX=     2873146 LenRXX=     5831278
 LTotAB=     2958132 MaxLAS=     5239440 LenRXY=           0
 NonZer=     8704424 LenScr=    13107200 LnRSAI=     5239440
 LnScr1=     7864320 LExtra=           0 Total=     32042238
 MaxDsk=          -1 SrtSym=           T ITran=            4
 DoSDTr:  NPSUse=  4
 JobTyp=0 Pass  1:  I=   1 to   8.
 (rs|ai) integrals will be sorted in core.
 Complete sort for first half transformation.
 First half transformation complete.
 Complete sort for second half transformation.
 Second half transformation complete.
 Spin components of T(2) and E(2):
     alpha-alpha T2 =       0.1555613539D-01 E2=     -0.6379794550D-01
     alpha-beta  T2 =       0.9187957799D-01 E2=     -0.3982579929D+00
     beta-beta   T2 =       0.1555613539D-01 E2=     -0.6379794550D-01
 ANorm=    0.1059713097D+01
 E2 =    -0.5258538839D+00 EUMP2 =    -0.15263366098085D+03
 Leave Link  804 at Sun Aug 28 05:10:29 2022, MaxMem=   536870912 cpu:               3.0 elap:               0.7
 (Enter /usr/site/hpc/x86_64/glibc-2.17/broadwell/gaussian/g16_a.03/pgi-16.5/g16/l913.exe)
 CIDS:  MDV=   536870912.
 Frozen-core window:  NFC=   2 NFV=   0.
 IFCWin=0 IBDFC=1 NFBD=     0     0 NFCmp=     0     0 NFFFC=     0     0
 Using DD3R+UMP44R for 1st iteration.
 Using DD4RQ for 2nd and later iterations.
 Keep R2 and R3 ints in memory in symmetry-blocked form, NReq=35357534.
 FoFCou: FMM=F IPFlag=           0 FMFlag=           0 FMFlg1=           0
         NFxFlg=           0 DoJE=F BraDBF=F KetDBF=F FulRan=T
         wScrn=  0.000000 ICntrl=       600 IOpCl=  0 I1Cent=           0 NGrid=           0
         NMat0=    1 NMatS0=   6786 NMatT0=    0 NMatD0=    1 NMtDS0=    0 NMtDT0=    0
 Petite list used in FoFCou.
 CIDS: In Core Option IDoMem=           1.
 CCSD(T)
 =======
 Iterations=  50 Convergence= 0.100D-06
 Produce multiple copies of IABC intergrals
 Iteration Nr.   1
 **********************
 DD1Dir will call FoFMem   1 times, MxPair=        72
 NAB=    36 NAA=     0 NBB=     0.
 MP4(R+Q)=  0.75498815D-02
 Maximum subspace dimension=  5
 A-vector RMS=  1.7400362D-03 Max=  6.1908016D-03 conv= 1.00D-05.
 RLE energy=       -0.5258058671
 E3=       -0.75728700D-02        EUMP3=      -0.15264123385D+03
 E4(DQ)=   -0.15499613D-02        UMP4(DQ)=   -0.15264278381D+03
 E4(SDQ)=  -0.46018717D-02        UMP4(SDQ)=  -0.15264583572D+03
 VARIATIONAL ENERGIES WITH THE FIRST-ORDER WAVEFUNCTION:
 DE(Corr)= -0.52580587     E(Corr)=     -152.63361297    
 NORM(A)=   0.10600823D+01
 Iteration Nr.   2
 **********************
 DD1Dir will call FoFMem   1 times, MxPair=        72
 NAB=    36 NAA=     0 NBB=     0.
 A-vector RMS=  2.1242074D-04 Max=  2.3209090D-03 conv= 1.00D-05.
 RLE energy=       -0.5368596485
 DE(Corr)= -0.53569952     E(CORR)=     -152.64350662     Delta=-9.89D-03
 NORM(A)=   0.10638269D+01
 Iteration Nr.   3
 **********************
 DD1Dir will call FoFMem   1 times, MxPair=        72
 NAB=    36 NAA=     0 NBB=     0.
 A-vector RMS=  1.4075249D-04 Max=  8.1832251D-04 conv= 1.00D-05.
 RLE energy=       -0.5373548803
 DE(Corr)= -0.53676981     E(CORR)=     -152.64457691     Delta=-1.07D-03
 NORM(A)=   0.10644641D+01
 Iteration Nr.   4
 **********************
 DD1Dir will call FoFMem   1 times, MxPair=        72
 NAB=    36 NAA=     0 NBB=     0.
 A-vector RMS=  2.5848381D-05 Max=  1.3746481D-04 conv= 1.00D-05.
 RLE energy=       -0.5374380430
 DE(Corr)= -0.53740276     E(CORR)=     -152.64520985     Delta=-6.33D-04
 NORM(A)=   0.10645746D+01
 Iteration Nr.   5
 **********************
 DD1Dir will call FoFMem   1 times, MxPair=        72
 NAB=    36 NAA=     0 NBB=     0.
 A-vector RMS=  1.8683245D-05 Max=  1.5145816D-04 conv= 1.00D-05.
 RLE energy=       -0.5374463362
 DE(Corr)= -0.53743960     E(CORR)=     -152.64524670     Delta=-3.68D-05
 NORM(A)=   0.10645840D+01
 Iteration Nr.   6
 **********************
 DD1Dir will call FoFMem   1 times, MxPair=        72
 NAB=    36 NAA=     0 NBB=     0.
 A-vector RMS=  5.5296662D-06 Max=  4.1339393D-05 conv= 1.00D-05.
 RLE energy=       -0.5374372112
 DE(Corr)= -0.53744277     E(CORR)=     -152.64524986     Delta=-3.17D-06
 NORM(A)=   0.10645842D+01
 Iteration Nr.   7
 **********************
 DD1Dir will call FoFMem   1 times, MxPair=        72
 NAB=    36 NAA=     0 NBB=     0.
 A-vector RMS=  2.6568495D-06 Max=  2.1578155D-05 conv= 1.00D-05.
 RLE energy=       -0.5374439066
 DE(Corr)= -0.53744291     E(CORR)=     -152.64525001     Delta=-1.46D-07
 NORM(A)=   0.10645865D+01
 Iteration Nr.   8
 **********************
 DD1Dir will call FoFMem   1 times, MxPair=        72
 NAB=    36 NAA=     0 NBB=     0.
 A-vector RMS=  5.4550507D-07 Max=  4.5029423D-06 conv= 1.00D-05.
 RLE energy=       -0.5374423162
 DE(Corr)= -0.53744248     E(CORR)=     -152.64524958     Delta= 4.30D-07
 NORM(A)=   0.10645866D+01
 Iteration Nr.   9
 **********************
 DD1Dir will call FoFMem   1 times, MxPair=        72
 NAB=    36 NAA=     0 NBB=     0.
 A-vector RMS=  1.4196620D-07 Max=  1.1538818D-06 conv= 1.00D-05.
 RLE energy=       -0.5374427599
 DE(Corr)= -0.53744276     E(CORR)=     -152.64524986     Delta=-2.78D-07
 NORM(A)=   0.10645869D+01
 Iteration Nr.  10
 **********************
 DD1Dir will call FoFMem   1 times, MxPair=        72
 NAB=    36 NAA=     0 NBB=     0.
 A-vector RMS=  5.3727820D-08 Max=  4.2389490D-07 conv= 1.00D-05.
 RLE energy=       -0.5374427734
 DE(Corr)= -0.53744275     E(CORR)=     -152.64524984     Delta= 1.42D-08
 NORM(A)=   0.10645869D+01
 CI/CC converged in   10 iterations to DelEn= 1.42D-08 Conv= 1.00D-07 ErrA1= 5.37D-08 Conv= 1.00D-05
 Wavefunction amplitudes converged. E(Corr)=     -152.64524984    
 Largest amplitude= 4.79D-02
 IPart=  4 IA=    7   11.05% done.
 IPart=  4 IA=   13   21.46% done.
 IPart=  1 IA=   19   31.21% done.
 IPart=  4 IA=   25   40.32% done.
 IPart=  4 IA=   32   50.13% done.
 IPart=  4 IA=   40   60.27% done.
 IPart=  4 IA=   49   70.30% done.
 IPart=  1 IA=   60   80.58% done.
 IPart=  4 IA=   74   90.51% done.
 Time for triples=       48.98 seconds.
 T4(CCSD)= -0.16024565D-01
 T5(CCSD)=  0.40223123D-03
 CCSD(T)= -0.15266087218D+03
 Discarding MO integrals.
 Leave Link  913 at Sun Aug 28 05:10:46 2022, MaxMem=   536870912 cpu:              69.8 elap:              17.6
 (Enter /usr/site/hpc/x86_64/glibc-2.17/broadwell/gaussian/g16_a.03/pgi-16.5/g16/l601.exe)
 Copying SCF densities to generalized density rwf, IOpCl= 0 IROHF=0.

 **********************************************************************

            Population analysis using the SCF density.

 **********************************************************************

 Orbital symmetries:
       Occupied  (A') (A') (A') (A') (A') (A') (A') (A') (A") (A")
       Virtual   (A') (A') (A') (A') (A') (A') (A') (A') (A') (A')
                 (A") (A") (A') (A') (A') (A') (A") (A") (A") (A")
                 (A') (A') (A') (A') (A') (A') (A') (A') (A") (A")
                 (A") (A") (A') (A') (A') (A') (A') (A') (A') (A')
                 (A') (A') (A") (A") (A') (A') (A") (A") (A') (A')
                 (A") (A") (A') (A') (A') (A') (A") (A") (A") (A")
                 (A') (A') (A') (A') (A") (A") (A') (A') (A') (A')
                 (A") (A") (A') (A') (A') (A') (A') (A') (A') (A')
                 (A") (A") (A') (A') (A") (A") (A") (A") (A') (A')
                 (A") (A") (A') (A') (A') (A') (A") (A") (A') (A')
                 (A') (A') (A') (A') (A') (A')
 The electronic state is 1-A'.
 Alpha  occ. eigenvalues --  -20.56169 -20.55239  -1.33471  -1.32541  -0.70883
 Alpha  occ. eigenvalues --   -0.69939  -0.56937  -0.55997  -0.50584  -0.49656
 Alpha virt. eigenvalues --    0.13140   0.14685   0.19247   0.21212   0.53426
 Alpha virt. eigenvalues --    0.54785   0.56608   0.57663   0.66995   0.68438
 Alpha virt. eigenvalues --    0.78304   0.79214   0.79663   0.80935   0.81830
 Alpha virt. eigenvalues --    0.82608   0.84204   0.85128   0.96631   0.97548
 Alpha virt. eigenvalues --    1.13878   1.15329   1.16645   1.17447   1.51021
 Alpha virt. eigenvalues --    1.51335   1.52093   1.52407   2.00030   2.00961
 Alpha virt. eigenvalues --    2.06091   2.07031   2.08705   2.09826   2.14207
 Alpha virt. eigenvalues --    2.15155   2.24384   2.25358   2.60825   2.61884
 Alpha virt. eigenvalues --    2.92061   2.93491   3.38726   3.39659   3.49284
 Alpha virt. eigenvalues --    3.50223   3.52485   3.53410   3.58860   3.59815
 Alpha virt. eigenvalues --    3.78019   3.78948   3.84776   3.85726   3.86977
 Alpha virt. eigenvalues --    3.87912   3.92932   3.93872   4.02393   4.03325
 Alpha virt. eigenvalues --    4.07549   4.08508   4.14609   4.15622   4.29470
 Alpha virt. eigenvalues --    4.30405   4.39252   4.40200   4.44926   4.45869
 Alpha virt. eigenvalues --    4.65874   4.66802   4.80206   4.81243   5.03582
 Alpha virt. eigenvalues --    5.04530   5.23428   5.24370   5.53413   5.54320
 Alpha virt. eigenvalues --    5.97266   5.98198   6.39735   6.40665   6.85518
 Alpha virt. eigenvalues --    6.86455   6.89002   6.89937   6.93932   6.94878
 Alpha virt. eigenvalues --    6.98462   6.99396   7.07240   7.08168   7.11858
 Alpha virt. eigenvalues --    7.12769   7.17628   7.18567   7.46522   7.47485
 Alpha virt. eigenvalues --    7.69671   7.70598   8.14411   8.15378  12.48634
 Alpha virt. eigenvalues --   12.49611
          Condensed to atoms (all electrons):
               1          2          3          4          5          6
     1  O    7.818644   0.346443   0.345440  -0.000000   0.000000   0.000000
     2  H    0.346443   0.432025  -0.036583   0.000039  -0.000001  -0.000004
     3  H    0.345440  -0.036583   0.438744  -0.000000   0.000000   0.000000
     4  O   -0.000000   0.000039  -0.000000   7.818595   0.347684   0.345143
     5  H    0.000000  -0.000001   0.000000   0.347684   0.430742  -0.036493
     6  H    0.000000  -0.000004   0.000000   0.345143  -0.036493   0.437916
 Mulliken charges:
               1
     1  O   -0.510527
     2  H    0.258083
     3  H    0.252399
     4  O   -0.511460
     5  H    0.258069
     6  H    0.253437
 Sum of Mulliken charges =  -0.00000
 Mulliken charges with hydrogens summed into heavy atoms:
               1
     1  O   -0.000046
     4  O    0.000046
 Electronic spatial extent (au):  <R**2>=            639.9976
 Charge=             -0.0000 electrons
 Dipole moment (field-independent basis, Debye):
    X=             -2.9368    Y=              2.6213    Z=              0.0000  Tot=              3.9365
 Quadrupole moment (field-independent basis, Debye-Ang):
   XX=            -10.3964   YY=             -8.0791   ZZ=            -14.7126
   XY=              2.9633   XZ=              0.0000   YZ=              0.0000
 Traceless Quadrupole moment (field-independent basis, Debye-Ang):
   XX=              0.6663   YY=              2.9836   ZZ=             -3.6499
   XY=              2.9633   XZ=              0.0000   YZ=              0.0000
 Octapole moment (field-independent basis, Debye-Ang**2):
  XXX=             -3.7390  YYY=             66.3215  ZZZ=              0.0000  XYY=            -24.3922
  XXY=              0.7150  XXZ=              0.0000  XZZ=             -0.3845  YZZ=              0.3559
  YYZ=              0.0000  XYZ=              0.0000
 Hexadecapole moment (field-independent basis, Debye-Ang**3):
 XXXX=            -11.3716 YYYY=           -477.0262 ZZZZ=            -11.3370 XXXY=             -0.5696
 XXXZ=              0.0000 YYYX=             66.6504 YYYZ=              0.0000 ZZZX=              0.0000
 ZZZY=              0.0000 XXYY=            -89.7315 XXZZ=             -4.3431 YYZZ=           -128.2675
 XXYZ=              0.0000 YYXZ=              0.0000 ZZXY=             -0.4145
 N-N= 2.703613204207D+01 E-N=-4.154636499724D+02  KE= 1.518041083446D+02
 Symmetry A'   KE= 1.427672381885D+02
 Symmetry A"   KE= 9.036870156061D+00
 Leave Link  601 at Sun Aug 28 05:10:47 2022, MaxMem=   536870912 cpu:               0.2 elap:               0.0
 (Enter /usr/site/hpc/x86_64/glibc-2.17/broadwell/gaussian/g16_a.03/pgi-16.5/g16/l9999.exe)
 1\1\GINC-N002\SP\RCCSD(T)-FC\CC-pVTZ\H4O2\ROOT\28-Aug-2022\0\\#p CCSD(
 T)/cc-pVTZ\\H2O_H2O_4703\\0,1\O,0,0.,-0.009833,0.\H,0,-0.799571,-0.580
 965,0.\H,0,0.799571,-0.580965,0.\O,0,-4.713736,-3.375285,0.\H,0,-5.609
 366,-3.779454,0.\H,0,-4.040951,-4.091431,0.\\Version=ES64L-G16RevA.03\
 State=1-A'\HF=-152.1078071\MP2=-152.633661\MP3=-152.6412339\MP4D=-152.
 6503337\MP4DQ=-152.6427838\MP4SDQ=-152.6458357\CCSD=-152.6452498\CCSD(
 T)=-152.6608722\RMSD=7.151e-09\PG=CS [SG(H4O2)]\\@


 NOTHING WILL BE ATTEMPTED IF ALL POSSIBLE OBJECTIONS
 MUST FIRST BE OVERCOME.

                               -- THE GOLDEN PRINCIPLE,
                    PAUL DICKSON'S "THE OFFICIAL RULES"
 Job cpu time:       0 days  0 hours  1 minutes 19.9 seconds.
 Elapsed time:       0 days  0 hours  0 minutes 20.2 seconds.
 File lengths (MBytes):  RWF=    316 Int=      0 D2E=      0 Chk=      8 Scr=      8
 Normal termination of Gaussian 16 at Sun Aug 28 05:10:47 2022.
