 Entering Gaussian System, Link 0=g16
 Input=H2O_H2O_2039.com
 Output=H2O_H2O_2039.log
 Initial command:
 /usr/site/hpc/x86_64/glibc-2.17/broadwell/gaussian/g16_a.03/pgi-16.5/g16/l1.exe "/gpfs/gpfs1/scratch/c7441284/ForceFieldModel/FittingData2/Gau-976466.inp" -scrdir="/gpfs/gpfs1/scratch/c7441284/ForceFieldModel/FittingData2/"
 Entering Link 1 = /usr/site/hpc/x86_64/glibc-2.17/broadwell/gaussian/g16_a.03/pgi-16.5/g16/l1.exe PID=    976467.
  
 Copyright (c) 1988,1990,1992,1993,1995,1998,2003,2009,2016,
            Gaussian, Inc.  All Rights Reserved.
  
 This is part of the Gaussian(R) 16 program.  It is based on
 the Gaussian(R) 09 system (copyright 2009, Gaussian, Inc.),
 the Gaussian(R) 03 system (copyright 2003, Gaussian, Inc.),
 the Gaussian(R) 98 system (copyright 1998, Gaussian, Inc.),
 the Gaussian(R) 94 system (copyright 1995, Gaussian, Inc.),
 the Gaussian 92(TM) system (copyright 1992, Gaussian, Inc.),
 the Gaussian 90(TM) system (copyright 1990, Gaussian, Inc.),
 the Gaussian 88(TM) system (copyright 1988, Gaussian, Inc.),
 the Gaussian 86(TM) system (copyright 1986, Carnegie Mellon
 University), and the Gaussian 82(TM) system (copyright 1983,
 Carnegie Mellon University). Gaussian is a federally registered
 trademark of Gaussian, Inc.
  
 This software contains proprietary and confidential information,
 including trade secrets, belonging to Gaussian, Inc.
  
 This software is provided under written license and may be
 used, copied, transmitted, or stored only in accord with that
 written license.
  
 The following legend is applicable only to US Government
 contracts under FAR:
  
                    RESTRICTED RIGHTS LEGEND
  
 Use, reproduction and disclosure by the US Government is
 subject to restrictions as set forth in subparagraphs (a)
 and (c) of the Commercial Computer Software - Restricted
 Rights clause in FAR 52.227-19.
  
 Gaussian, Inc.
 340 Quinnipiac St., Bldg. 40, Wallingford CT 06492
  
  
 ---------------------------------------------------------------
 Warning -- This program may not be used in any manner that
 competes with the business of Gaussian, Inc. or will provide
 assistance to any competitor of Gaussian, Inc.  The licensee
 of this program is prohibited from giving any competitor of
 Gaussian, Inc. access to this program.  By using this program,
 the user acknowledges that Gaussian, Inc. is engaged in the
 business of creating and licensing software in the field of
 computational chemistry and represents and warrants to the
 licensee that it is not a competitor of Gaussian, Inc. and that
 it will not use this program in any manner prohibited above.
 ---------------------------------------------------------------
  

 Cite this work as:
 Gaussian 16, Revision A.03,
 M. J. Frisch, G. W. Trucks, H. B. Schlegel, G. E. Scuseria, 
 M. A. Robb, J. R. Cheeseman, G. Scalmani, V. Barone, 
 G. A. Petersson, H. Nakatsuji, X. Li, M. Caricato, A. V. Marenich, 
 J. Bloino, B. G. Janesko, R. Gomperts, B. Mennucci, H. P. Hratchian, 
 J. V. Ortiz, A. F. Izmaylov, J. L. Sonnenberg, D. Williams-Young, 
 F. Ding, F. Lipparini, F. Egidi, J. Goings, B. Peng, A. Petrone, 
 T. Henderson, D. Ranasinghe, V. G. Zakrzewski, J. Gao, N. Rega, 
 G. Zheng, W. Liang, M. Hada, M. Ehara, K. Toyota, R. Fukuda, 
 J. Hasegawa, M. Ishida, T. Nakajima, Y. Honda, O. Kitao, H. Nakai, 
 T. Vreven, K. Throssell, J. A. Montgomery, Jr., J. E. Peralta, 
 F. Ogliaro, M. J. Bearpark, J. J. Heyd, E. N. Brothers, K. N. Kudin, 
 V. N. Staroverov, T. A. Keith, R. Kobayashi, J. Normand, 
 K. Raghavachari, A. P. Rendell, J. C. Burant, S. S. Iyengar, 
 J. Tomasi, M. Cossi, J. M. Millam, M. Klene, C. Adamo, R. Cammi, 
 J. W. Ochterski, R. L. Martin, K. Morokuma, O. Farkas, 
 J. B. Foresman, and D. J. Fox, Gaussian, Inc., Wallingford CT, 2016.
 
 ******************************************
 Gaussian 16:  ES64L-G16RevA.03 25-Dec-2016
                28-Aug-2022 
 ******************************************
 %NProcShared=4
 Will use up to    4 processors via shared memory.
 %Mem=4GB
 %Chk=H2O_H2O_2039.chk
 ------------------
 #p CCSD(T)/cc-pVTZ
 ------------------
 1/38=1,172=1/1;
 2/12=2,17=6,18=5,40=1/2;
 3/5=16,6=1,11=9,25=1,30=1/1,2,3;
 4//1;
 5/5=2,38=5/2;
 8/6=4,9=120000,10=1/1,4;
 9/5=7,14=2/13;
 6/7=2,8=2,9=2,10=2/1;
 99/5=1,9=1/99;
 Leave Link    1 at Sun Aug 28 03:47:00 2022, MaxMem=   536870912 cpu:               0.3 elap:               0.1
 (Enter /usr/site/hpc/x86_64/glibc-2.17/broadwell/gaussian/g16_a.03/pgi-16.5/g16/l101.exe)
 ------------
 H2O_H2O_2039
 ------------
 Symbolic Z-matrix:
 Charge =  0 Multiplicity = 1
 O                     0.       -0.00983   0. 
 H                    -0.79957  -0.58097   0. 
 H                     0.79957  -0.58097   0. 
 O                    -2.98313  -2.13125   0. 
 H                    -3.92298  -1.8446    0. 
 H                    -2.94949  -3.11328   0. 
 
 ITRead=  0  0  0  0  0  0
 MicOpt= -1 -1 -1 -1 -1 -1
 NAtoms=      6 NQM=        6 NQMF=       0 NMMI=      0 NMMIF=      0
                NMic=       0 NMicF=      0.
                    Isotopes and Nuclear Properties:
 (Nuclear quadrupole moments (NQMom) in fm**2, nuclear magnetic moments (NMagM)
  in nuclear magnetons)

  Atom         1           2           3           4           5           6
 IAtWgt=          16           1           1          16           1           1
 AtmWgt=  15.9949146   1.0078250   1.0078250  15.9949146   1.0078250   1.0078250
 NucSpn=           0           1           1           0           1           1
 AtZEff=  -0.0000000  -0.0000000  -0.0000000  -0.0000000  -0.0000000  -0.0000000
 NQMom=    0.0000000   0.0000000   0.0000000   0.0000000   0.0000000   0.0000000
 NMagM=    0.0000000   2.7928460   2.7928460   0.0000000   2.7928460   2.7928460
 AtZNuc=   8.0000000   1.0000000   1.0000000   8.0000000   1.0000000   1.0000000
 Leave Link  101 at Sun Aug 28 03:47:00 2022, MaxMem=   536870912 cpu:               0.6 elap:               0.2
 (Enter /usr/site/hpc/x86_64/glibc-2.17/broadwell/gaussian/g16_a.03/pgi-16.5/g16/l202.exe)
                          Input orientation:                          
 ---------------------------------------------------------------------
 Center     Atomic      Atomic             Coordinates (Angstroms)
 Number     Number       Type             X           Y           Z
 ---------------------------------------------------------------------
      1          8           0        0.000000   -0.009833    0.000000
      2          1           0       -0.799571   -0.580965    0.000000
      3          1           0        0.799571   -0.580965    0.000000
      4          8           0       -2.983127   -2.131254    0.000000
      5          1           0       -3.922984   -1.844595    0.000000
      6          1           0       -2.949488   -3.113280    0.000000
 ---------------------------------------------------------------------
                    Distance matrix (angstroms):
                    1          2          3          4          5
     1  O    0.000000
     2  H    0.982601   0.000000
     3  H    0.982601   1.599142   0.000000
     4  O    3.660529   2.677931   4.088056   0.000000
     5  H    4.330838   3.369343   4.888690   0.982601   0.000000
     6  H    4.281456   3.321861   4.524164   0.982602   1.599142
                    6
     6  H    0.000000
 Stoichiometry    H4O2
 Framework group  CS[SG(H4O2)]
 Deg. of freedom     9
 Full point group                 CS      NOp   2
 Largest Abelian subgroup         CS      NOp   2
 Largest concise Abelian subgroup C1      NOp   1
                         Standard orientation:                         
 ---------------------------------------------------------------------
 Center     Atomic      Atomic             Coordinates (Angstroms)
 Number     Number       Type             X           Y           Z
 ---------------------------------------------------------------------
      1          8           0        0.048619    1.920439    0.000000
      2          1           0        0.046561    0.937840    0.000000
      3          1           0       -0.880205    2.241052    0.000000
      4          8           0        0.048619   -1.740090    0.000000
      5          1           0        0.826914   -2.339891    0.000000
      6          1           0       -0.771173   -2.281799    0.000000
 ---------------------------------------------------------------------
 Rotational constants (GHZ):         240.9487954           4.0719757           4.0043040
 Leave Link  202 at Sun Aug 28 03:47:00 2022, MaxMem=   536870912 cpu:               0.0 elap:               0.0
 (Enter /usr/site/hpc/x86_64/glibc-2.17/broadwell/gaussian/g16_a.03/pgi-16.5/g16/l301.exe)
 Standard basis: CC-pVTZ (5D, 7F)
 Ernie: Thresh=  0.10000D-02 Tol=  0.10000D-05 Strict=F.
 Ernie:  6 primitive shells out of 84 were deleted.
 There are    92 symmetry adapted cartesian basis functions of A'  symmetry.
 There are    38 symmetry adapted cartesian basis functions of A"  symmetry.
 There are    80 symmetry adapted basis functions of A'  symmetry.
 There are    36 symmetry adapted basis functions of A"  symmetry.
   116 basis functions,   172 primitive gaussians,   130 cartesian basis functions
    10 alpha electrons       10 beta electrons
       nuclear repulsion energy        32.2716370827 Hartrees.
 IExCor=    0 DFT=F Ex=HF Corr=None ExCW=0 ScaHFX=  1.000000
 ScaDFX=  1.000000  1.000000  1.000000  1.000000 ScalE2=  1.000000  1.000000
 IRadAn=      5 IRanWt=     -1 IRanGd=            0 ICorTp=0 IEmpDi=  4
 NAtoms=    6 NActive=    6 NUniq=    6 SFac= 1.00D+00 NAtFMM=   60 NAOKFM=F Big=F
 Integral buffers will be    131072 words long.
 Raffenetti 1 integral format.
 Two-electron integral symmetry is turned on.
 Leave Link  301 at Sun Aug 28 03:47:00 2022, MaxMem=   536870912 cpu:               0.2 elap:               0.0
 (Enter /usr/site/hpc/x86_64/glibc-2.17/broadwell/gaussian/g16_a.03/pgi-16.5/g16/l302.exe)
 NPDir=0 NMtPBC=     1 NCelOv=     1 NCel=       1 NClECP=     1 NCelD=      1
         NCelK=      1 NCelE2=     1 NClLst=     1 CellRange=     0.0.
 One-electron integrals computed using PRISM.
 One-electron integral symmetry used in STVInt
 NBasis=   116 RedAO= T EigKep=  2.40D-03  NBF=    80    36
 NBsUse=   116 1.00D-06 EigRej= -1.00D+00 NBFU=    80    36
 Leave Link  302 at Sun Aug 28 03:47:00 2022, MaxMem=   536870912 cpu:               0.5 elap:               0.1
 (Enter /usr/site/hpc/x86_64/glibc-2.17/broadwell/gaussian/g16_a.03/pgi-16.5/g16/l303.exe)
 DipDrv:  MaxL=1.
 Leave Link  303 at Sun Aug 28 03:47:00 2022, MaxMem=   536870912 cpu:               0.1 elap:               0.0
 (Enter /usr/site/hpc/x86_64/glibc-2.17/broadwell/gaussian/g16_a.03/pgi-16.5/g16/l401.exe)
 ExpMin= 1.03D-01 ExpMax= 1.53D+04 ExpMxC= 5.22D+02 IAcc=3 IRadAn=         5 AccDes= 0.00D+00
 Harris functional with IExCor=  205 and IRadAn=       5 diagonalized for initial guess.
 HarFok:  IExCor=  205 AccDes= 0.00D+00 IRadAn=         5 IDoV= 1 UseB2=F ITyADJ=14
 ICtDFT=  3500011 ScaDFX=  1.000000  1.000000  1.000000  1.000000
 FoFCou: FMM=F IPFlag=           0 FMFlag=      100000 FMFlg1=           0
         NFxFlg=           0 DoJE=T BraDBF=F KetDBF=T FulRan=T
         wScrn=  0.000000 ICntrl=       500 IOpCl=  0 I1Cent=   200000004 NGrid=           0
         NMat0=    1 NMatS0=      1 NMatT0=    0 NMatD0=    1 NMtDS0=    0 NMtDT0=    0
 Petite list used in FoFCou.
 Harris En= -152.300281168589    
 JPrj=0 DoOrth=F DoCkMO=F.
 Initial guess orbital symmetries:
       Occupied  (A') (A') (A') (A') (A') (A') (A') (A') (A") (A")
       Virtual   (A') (A') (A') (A') (A') (A') (A') (A') (A') (A')
                 (A") (A") (A') (A') (A') (A") (A") (A') (A") (A")
                 (A') (A') (A') (A') (A') (A') (A') (A') (A") (A")
                 (A") (A") (A') (A') (A') (A') (A') (A') (A') (A')
                 (A') (A') (A") (A") (A') (A') (A") (A") (A") (A")
                 (A') (A') (A') (A') (A') (A') (A") (A") (A') (A')
                 (A') (A") (A") (A') (A") (A") (A') (A') (A') (A')
                 (A") (A") (A') (A') (A') (A') (A') (A') (A') (A')
                 (A") (A") (A') (A') (A") (A") (A") (A") (A') (A')
                 (A") (A") (A') (A') (A') (A') (A") (A") (A') (A')
                 (A') (A') (A') (A') (A') (A')
 The electronic state of the initial guess is 1-A'.
 Leave Link  401 at Sun Aug 28 03:47:00 2022, MaxMem=   536870912 cpu:               0.8 elap:               0.2
 (Enter /usr/site/hpc/x86_64/glibc-2.17/broadwell/gaussian/g16_a.03/pgi-16.5/g16/l502.exe)
 Keep R1 ints in memory in symmetry-blocked form, NReq=34823457.
 FoFCou: FMM=F IPFlag=           0 FMFlag=           0 FMFlg1=           0
         NFxFlg=           0 DoJE=F BraDBF=F KetDBF=F FulRan=T
         wScrn=  0.000000 ICntrl=       600 IOpCl=  0 I1Cent=           0 NGrid=           0
         NMat0=    1 NMatS0=   6786 NMatT0=    0 NMatD0=    1 NMtDS0=    0 NMtDT0=    0
 Petite list used in FoFCou.
 Closed shell SCF:
 Using DIIS extrapolation, IDIIS=  1040.
 NGot=   536870912 LenX=   525040673 LenY=   525023332
 Requested convergence on RMS density matrix=1.00D-08 within 128 cycles.
 Requested convergence on MAX density matrix=1.00D-06.
 Requested convergence on             energy=1.00D-06.
 No special actions if energy rises.

 Cycle   1  Pass 1  IDiag  1:
 E= -151.937380853530    
 DIIS: error= 6.59D-02 at cycle   1 NSaved=   1.
 NSaved= 1 IEnMin= 1 EnMin= -151.937380853530     IErMin= 1 ErrMin= 6.59D-02
 ErrMax= 6.59D-02  0.00D+00 EMaxC= 1.00D-01 BMatC= 3.94D-01 BMatP= 3.94D-01
 IDIUse=3 WtCom= 3.41D-01 WtEn= 6.59D-01
 Coeff-Com:  0.100D+01
 Coeff-En:   0.100D+01
 Coeff:      0.100D+01
 Gap=     0.504 Goal=   None    Shift=    0.000
 GapD=    0.504 DampG=2.000 DampE=0.500 DampFc=1.0000 IDamp=-1.
 RMSDP=2.53D-03 MaxDP=6.84D-02              OVMax= 1.24D-01

 Cycle   2  Pass 1  IDiag  1:
 E= -152.046433154589     Delta-E=       -0.109052301059 Rises=F Damp=F
 DIIS: error= 4.09D-02 at cycle   2 NSaved=   2.
 NSaved= 2 IEnMin= 2 EnMin= -152.046433154589     IErMin= 2 ErrMin= 4.09D-02
 ErrMax= 4.09D-02  0.00D+00 EMaxC= 1.00D-01 BMatC= 1.08D-01 BMatP= 3.94D-01
 IDIUse=3 WtCom= 5.91D-01 WtEn= 4.09D-01
 Coeff-Com:  0.316D+00 0.684D+00
 Coeff-En:   0.162D+00 0.838D+00
 Coeff:      0.253D+00 0.747D+00
 Gap=     0.629 Goal=   None    Shift=    0.000
 RMSDP=1.35D-03 MaxDP=3.98D-02 DE=-1.09D-01 OVMax= 5.65D-02

 Cycle   3  Pass 1  IDiag  1:
 E= -152.108473003593     Delta-E=       -0.062039849004 Rises=F Damp=F
 DIIS: error= 9.07D-03 at cycle   3 NSaved=   3.
 NSaved= 3 IEnMin= 3 EnMin= -152.108473003593     IErMin= 3 ErrMin= 9.07D-03
 ErrMax= 9.07D-03  0.00D+00 EMaxC= 1.00D-01 BMatC= 5.94D-03 BMatP= 1.08D-01
 IDIUse=3 WtCom= 9.09D-01 WtEn= 9.07D-02
 Coeff-Com: -0.302D-01 0.158D+00 0.872D+00
 Coeff-En:   0.000D+00 0.000D+00 0.100D+01
 Coeff:     -0.275D-01 0.144D+00 0.883D+00
 Gap=     0.601 Goal=   None    Shift=    0.000
 RMSDP=2.48D-04 MaxDP=5.86D-03 DE=-6.20D-02 OVMax= 1.33D-02

 Cycle   4  Pass 1  IDiag  1:
 E= -152.112149537357     Delta-E=       -0.003676533764 Rises=F Damp=F
 DIIS: error= 8.23D-04 at cycle   4 NSaved=   4.
 NSaved= 4 IEnMin= 4 EnMin= -152.112149537357     IErMin= 4 ErrMin= 8.23D-04
 ErrMax= 8.23D-04  0.00D+00 EMaxC= 1.00D-01 BMatC= 3.57D-05 BMatP= 5.94D-03
 IDIUse=3 WtCom= 9.92D-01 WtEn= 8.23D-03
 Coeff-Com:  0.663D-02-0.608D-01-0.233D+00 0.129D+01
 Coeff-En:   0.000D+00 0.000D+00 0.000D+00 0.100D+01
 Coeff:      0.657D-02-0.603D-01-0.231D+00 0.128D+01
 Gap=     0.603 Goal=   None    Shift=    0.000
 RMSDP=5.22D-05 MaxDP=1.00D-03 DE=-3.68D-03 OVMax= 2.35D-03

 Cycle   5  Pass 1  IDiag  1:
 E= -152.112197611601     Delta-E=       -0.000048074244 Rises=F Damp=F
 DIIS: error= 1.84D-04 at cycle   5 NSaved=   5.
 NSaved= 5 IEnMin= 5 EnMin= -152.112197611601     IErMin= 5 ErrMin= 1.84D-04
 ErrMax= 1.84D-04  0.00D+00 EMaxC= 1.00D-01 BMatC= 1.46D-06 BMatP= 3.57D-05
 IDIUse=3 WtCom= 9.98D-01 WtEn= 1.84D-03
 Coeff-Com:  0.105D-02-0.417D-02-0.215D-01-0.127D+00 0.115D+01
 Coeff-En:   0.000D+00 0.000D+00 0.000D+00 0.000D+00 0.100D+01
 Coeff:      0.105D-02-0.416D-02-0.215D-01-0.127D+00 0.115D+01
 Gap=     0.604 Goal=   None    Shift=    0.000
 RMSDP=1.44D-05 MaxDP=3.34D-04 DE=-4.81D-05 OVMax= 6.96D-04

 Cycle   6  Pass 1  IDiag  1:
 E= -152.112200367200     Delta-E=       -0.000002755600 Rises=F Damp=F
 DIIS: error= 3.77D-05 at cycle   6 NSaved=   6.
 NSaved= 6 IEnMin= 6 EnMin= -152.112200367200     IErMin= 6 ErrMin= 3.77D-05
 ErrMax= 3.77D-05  0.00D+00 EMaxC= 1.00D-01 BMatC= 1.45D-07 BMatP= 1.46D-06
 IDIUse=1 WtCom= 1.00D+00 WtEn= 0.00D+00
 Coeff-Com: -0.692D-04 0.219D-02 0.719D-02-0.111D+00 0.303D+00 0.798D+00
 Coeff:     -0.692D-04 0.219D-02 0.719D-02-0.111D+00 0.303D+00 0.798D+00
 Gap=     0.604 Goal=   None    Shift=    0.000
 RMSDP=2.92D-06 MaxDP=8.41D-05 DE=-2.76D-06 OVMax= 1.62D-04

 Cycle   7  Pass 1  IDiag  1:
 E= -152.112200538370     Delta-E=       -0.000000171169 Rises=F Damp=F
 DIIS: error= 9.43D-06 at cycle   7 NSaved=   7.
 NSaved= 7 IEnMin= 7 EnMin= -152.112200538370     IErMin= 7 ErrMin= 9.43D-06
 ErrMax= 9.43D-06  0.00D+00 EMaxC= 1.00D-01 BMatC= 9.12D-09 BMatP= 1.45D-07
 IDIUse=1 WtCom= 1.00D+00 WtEn= 0.00D+00
 Coeff-Com: -0.103D-03 0.390D-03 0.182D-02 0.145D-01-0.136D+00-0.305D-03
 Coeff-Com:  0.112D+01
 Coeff:     -0.103D-03 0.390D-03 0.182D-02 0.145D-01-0.136D+00-0.305D-03
 Coeff:      0.112D+01
 Gap=     0.604 Goal=   None    Shift=    0.000
 RMSDP=1.33D-06 MaxDP=3.61D-05 DE=-1.71D-07 OVMax= 7.11D-05

 Cycle   8  Pass 1  IDiag  1:
 E= -152.112200557524     Delta-E=       -0.000000019154 Rises=F Damp=F
 DIIS: error= 2.39D-06 at cycle   8 NSaved=   8.
 NSaved= 8 IEnMin= 8 EnMin= -152.112200557524     IErMin= 8 ErrMin= 2.39D-06
 ErrMax= 2.39D-06  0.00D+00 EMaxC= 1.00D-01 BMatC= 3.95D-10 BMatP= 9.12D-09
 IDIUse=1 WtCom= 1.00D+00 WtEn= 0.00D+00
 Coeff-Com:  0.245D-04-0.213D-03-0.846D-03 0.410D-02 0.999D-02-0.410D-01
 Coeff-Com: -0.202D+00 0.123D+01
 Coeff:      0.245D-04-0.213D-03-0.846D-03 0.410D-02 0.999D-02-0.410D-01
 Coeff:     -0.202D+00 0.123D+01
 Gap=     0.604 Goal=   None    Shift=    0.000
 RMSDP=2.11D-07 MaxDP=4.27D-06 DE=-1.92D-08 OVMax= 1.42D-05

 Cycle   9  Pass 1  IDiag  1:
 E= -152.112200558419     Delta-E=       -0.000000000895 Rises=F Damp=F
 DIIS: error= 8.51D-07 at cycle   9 NSaved=   9.
 NSaved= 9 IEnMin= 9 EnMin= -152.112200558419     IErMin= 9 ErrMin= 8.51D-07
 ErrMax= 8.51D-07  0.00D+00 EMaxC= 1.00D-01 BMatC= 2.39D-11 BMatP= 3.95D-10
 IDIUse=1 WtCom= 1.00D+00 WtEn= 0.00D+00
 Coeff-Com:  0.129D-05 0.267D-04 0.107D-03-0.236D-02 0.799D-02 0.111D-01
 Coeff-Com: -0.313D-01-0.280D+00 0.129D+01
 Coeff:      0.129D-05 0.267D-04 0.107D-03-0.236D-02 0.799D-02 0.111D-01
 Coeff:     -0.313D-01-0.280D+00 0.129D+01
 Gap=     0.604 Goal=   None    Shift=    0.000
 RMSDP=5.68D-08 MaxDP=1.09D-06 DE=-8.95D-10 OVMax= 3.14D-06

 Cycle  10  Pass 1  IDiag  1:
 E= -152.112200558471     Delta-E=       -0.000000000052 Rises=F Damp=F
 DIIS: error= 9.69D-08 at cycle  10 NSaved=  10.
 NSaved=10 IEnMin=10 EnMin= -152.112200558471     IErMin=10 ErrMin= 9.69D-08
 ErrMax= 9.69D-08  0.00D+00 EMaxC= 1.00D-01 BMatC= 3.98D-13 BMatP= 2.39D-11
 IDIUse=1 WtCom= 1.00D+00 WtEn= 0.00D+00
 Coeff-Com: -0.639D-06-0.286D-06-0.282D-05 0.295D-03-0.123D-02-0.120D-02
 Coeff-Com:  0.660D-02 0.380D-01-0.269D+00 0.123D+01
 Coeff:     -0.639D-06-0.286D-06-0.282D-05 0.295D-03-0.123D-02-0.120D-02
 Coeff:      0.660D-02 0.380D-01-0.269D+00 0.123D+01
 Gap=     0.604 Goal=   None    Shift=    0.000
 RMSDP=6.51D-09 MaxDP=1.52D-07 DE=-5.18D-11 OVMax= 3.78D-07

 SCF Done:  E(RHF) =  -152.112200558     A.U. after   10 cycles
            NFock= 10  Conv=0.65D-08     -V/T= 2.0021
 KE= 1.517933820970D+02 PE=-4.259640871589D+02 EE= 8.978686742071D+01
 Leave Link  502 at Sun Aug 28 03:47:01 2022, MaxMem=   536870912 cpu:               4.1 elap:               1.1
 (Enter /usr/site/hpc/x86_64/glibc-2.17/broadwell/gaussian/g16_a.03/pgi-16.5/g16/l801.exe)
 Windowed orbitals will be sorted by symmetry type.
 ExpMin= 1.03D-01 ExpMax= 1.53D+04 ExpMxC= 5.22D+02 IAcc=3 IRadAn=         5 AccDes= 0.00D+00
 HarFok:  IExCor=  205 AccDes= 0.00D+00 IRadAn=         5 IDoV=-2 UseB2=F ITyADJ=14
 ICtDFT= 12500011 ScaDFX=  1.000000  1.000000  1.000000  1.000000
 Largest valence mixing into a core orbital is  1.12D-04
 Largest core mixing into a valence orbital is  1.77D-05
 Range of M.O.s used for correlation:     3   116
 NBasis=   116 NAE=    10 NBE=    10 NFC=     2 NFV=     0
 NROrb=    114 NOA=     8 NOB=     8 NVA=   106 NVB=   106
 Leave Link  801 at Sun Aug 28 03:47:01 2022, MaxMem=   536870912 cpu:               0.3 elap:               0.1
 (Enter /usr/site/hpc/x86_64/glibc-2.17/broadwell/gaussian/g16_a.03/pgi-16.5/g16/l804.exe)
 Closed-shell transformation, MDV=   536870912 ITran=4 ISComp=2.
 Unit  1 TFree=        834515 TCopy=        406125.
 Semi-Direct transformation.
 ModeAB=           4 MOrb=             8 LenV=     536367576
 LASXX=      2873146 LTotXX=     2873146 LenRXX=     5831278
 LTotAB=     2958132 MaxLAS=     6927552 LenRXY=           0
 NonZer=     8704424 LenScr=    13107200 LnRSAI=     6927552
 LnScr1=    10485760 LExtra=           0 Total=     36351790
 MaxDsk=          -1 SrtSym=           T ITran=            4
 DoSDTr:  NPSUse=  4
 JobTyp=0 Pass  1:  I=   1 to   8.
 (rs|ai) integrals will be sorted in core.
 Complete sort for first half transformation.
 First half transformation complete.
 Complete sort for second half transformation.
 Second half transformation complete.
 Spin components of T(2) and E(2):
     alpha-alpha T2 =       0.1561598358D-01 E2=     -0.6397163660D-01
     alpha-beta  T2 =       0.9190493421D-01 E2=     -0.3984473491D+00
     beta-beta   T2 =       0.1561598358D-01 E2=     -0.6397163660D-01
 ANorm=    0.1059781535D+01
 E2 =    -0.5263906223D+00 EUMP2 =    -0.15263859118082D+03
 Leave Link  804 at Sun Aug 28 03:47:02 2022, MaxMem=   536870912 cpu:               3.8 elap:               1.0
 (Enter /usr/site/hpc/x86_64/glibc-2.17/broadwell/gaussian/g16_a.03/pgi-16.5/g16/l913.exe)
 CIDS:  MDV=   536870912.
 Frozen-core window:  NFC=   2 NFV=   0.
 IFCWin=0 IBDFC=1 NFBD=     0     0 NFCmp=     0     0 NFFFC=     0     0
 Using DD3R+UMP44R for 1st iteration.
 Using DD4RQ for 2nd and later iterations.
 Keep R2 and R3 ints in memory in symmetry-blocked form, NReq=35357534.
 FoFCou: FMM=F IPFlag=           0 FMFlag=           0 FMFlg1=           0
         NFxFlg=           0 DoJE=F BraDBF=F KetDBF=F FulRan=T
         wScrn=  0.000000 ICntrl=       600 IOpCl=  0 I1Cent=           0 NGrid=           0
         NMat0=    1 NMatS0=   6786 NMatT0=    0 NMatD0=    1 NMtDS0=    0 NMtDT0=    0
 Petite list used in FoFCou.
 CIDS: In Core Option IDoMem=           1.
 CCSD(T)
 =======
 Iterations=  50 Convergence= 0.100D-06
 Produce multiple copies of IABC intergrals
 Iteration Nr.   1
 **********************
 DD1Dir will call FoFMem   1 times, MxPair=        72
 NAB=    36 NAA=     0 NBB=     0.
 MP4(R+Q)=  0.75704211D-02
 Maximum subspace dimension=  5
 A-vector RMS=  1.7687194D-03 Max=  5.8748528D-03 conv= 1.00D-05.
 RLE energy=       -0.5261240806
 E3=       -0.73732506D-02        EUMP3=      -0.15264596443D+03
 E4(DQ)=   -0.15174485D-02        UMP4(DQ)=   -0.15264748188D+03
 E4(SDQ)=  -0.45967069D-02        UMP4(SDQ)=  -0.15265056114D+03
 VARIATIONAL ENERGIES WITH THE FIRST-ORDER WAVEFUNCTION:
 DE(Corr)= -0.52612395     E(Corr)=     -152.63832451    
 NORM(A)=   0.10600814D+01
 Iteration Nr.   2
 **********************
 DD1Dir will call FoFMem   1 times, MxPair=        72
 NAB=    36 NAA=     0 NBB=     0.
 A-vector RMS=  2.1273888D-04 Max=  2.1477603D-03 conv= 1.00D-05.
 RLE energy=       -0.5371704830
 DE(Corr)= -0.53603298     E(CORR)=     -152.64823354     Delta=-9.91D-03
 NORM(A)=   0.10638214D+01
 Iteration Nr.   3
 **********************
 DD1Dir will call FoFMem   1 times, MxPair=        72
 NAB=    36 NAA=     0 NBB=     0.
 A-vector RMS=  1.4719722D-04 Max=  7.1175428D-04 conv= 1.00D-05.
 RLE energy=       -0.5376656242
 DE(Corr)= -0.53707950     E(CORR)=     -152.64928005     Delta=-1.05D-03
 NORM(A)=   0.10644533D+01
 Iteration Nr.   4
 **********************
 DD1Dir will call FoFMem   1 times, MxPair=        72
 NAB=    36 NAA=     0 NBB=     0.
 A-vector RMS=  2.9254929D-05 Max=  1.3206824D-04 conv= 1.00D-05.
 RLE energy=       -0.5377459618
 DE(Corr)= -0.53771188     E(CORR)=     -152.64991244     Delta=-6.32D-04
 NORM(A)=   0.10645631D+01
 Iteration Nr.   5
 **********************
 DD1Dir will call FoFMem   1 times, MxPair=        72
 NAB=    36 NAA=     0 NBB=     0.
 A-vector RMS=  1.8682394D-05 Max=  1.4716136D-04 conv= 1.00D-05.
 RLE energy=       -0.5377566822
 DE(Corr)= -0.53774956     E(CORR)=     -152.64995011     Delta=-3.77D-05
 NORM(A)=   0.10645738D+01
 Iteration Nr.   6
 **********************
 DD1Dir will call FoFMem   1 times, MxPair=        72
 NAB=    36 NAA=     0 NBB=     0.
 A-vector RMS=  5.8031394D-06 Max=  4.5904034D-05 conv= 1.00D-05.
 RLE energy=       -0.5377485075
 DE(Corr)= -0.53775304     E(CORR)=     -152.64995360     Delta=-3.48D-06
 NORM(A)=   0.10645734D+01
 Iteration Nr.   7
 **********************
 DD1Dir will call FoFMem   1 times, MxPair=        72
 NAB=    36 NAA=     0 NBB=     0.
 A-vector RMS=  2.6462602D-06 Max=  2.3466062D-05 conv= 1.00D-05.
 RLE energy=       -0.5377529308
 DE(Corr)= -0.53775323     E(CORR)=     -152.64995379     Delta=-1.89D-07
 NORM(A)=   0.10645751D+01
 Iteration Nr.   8
 **********************
 DD1Dir will call FoFMem   1 times, MxPair=        72
 NAB=    36 NAA=     0 NBB=     0.
 A-vector RMS=  9.7975970D-07 Max=  8.9227511D-06 conv= 1.00D-05.
 RLE energy=       -0.5377525736
 DE(Corr)= -0.53775279     E(CORR)=     -152.64995335     Delta= 4.39D-07
 NORM(A)=   0.10645753D+01
 Iteration Nr.   9
 **********************
 DD1Dir will call FoFMem   1 times, MxPair=        72
 NAB=    36 NAA=     0 NBB=     0.
 A-vector RMS=  2.0244724D-07 Max=  2.7296480D-06 conv= 1.00D-05.
 RLE energy=       -0.5377528404
 DE(Corr)= -0.53775291     E(CORR)=     -152.64995347     Delta=-1.21D-07
 NORM(A)=   0.10645757D+01
 Iteration Nr.  10
 **********************
 DD1Dir will call FoFMem   1 times, MxPair=        72
 NAB=    36 NAA=     0 NBB=     0.
 A-vector RMS=  7.4581517D-08 Max=  1.1588639D-06 conv= 1.00D-05.
 RLE energy=       -0.5377530321
 DE(Corr)= -0.53775302     E(CORR)=     -152.64995358     Delta=-1.13D-07
 NORM(A)=   0.10645758D+01
 Iteration Nr.  11
 **********************
 DD1Dir will call FoFMem   1 times, MxPair=        72
 NAB=    36 NAA=     0 NBB=     0.
 A-vector RMS=  2.8119057D-08 Max=  4.3666605D-07 conv= 1.00D-05.
 RLE energy=       -0.5377530917
 DE(Corr)= -0.53775307     E(CORR)=     -152.64995363     Delta=-5.22D-08
 NORM(A)=   0.10645759D+01
 CI/CC converged in   11 iterations to DelEn=-5.22D-08 Conv= 1.00D-07 ErrA1= 2.81D-08 Conv= 1.00D-05
 Wavefunction amplitudes converged. E(Corr)=     -152.64995363    
 Largest amplitude= 4.49D-02
 IPart=  2 IA=    7   11.05% done.
 IPart=  3 IA=   13   21.46% done.
 IPart=  1 IA=   19   31.21% done.
 IPart=  2 IA=   25   40.32% done.
 IPart=  2 IA=   32   50.13% done.
 IPart=  3 IA=   40   60.27% done.
 IPart=  4 IA=   49   70.30% done.
 IPart=  3 IA=   60   80.58% done.
 IPart=  2 IA=   74   90.51% done.
 Time for triples=       48.94 seconds.
 T4(CCSD)= -0.16112501D-01
 T5(CCSD)=  0.40781776D-03
 CCSD(T)= -0.15266565832D+03
 Discarding MO integrals.
 Leave Link  913 at Sun Aug 28 03:47:20 2022, MaxMem=   536870912 cpu:              71.4 elap:              17.9
 (Enter /usr/site/hpc/x86_64/glibc-2.17/broadwell/gaussian/g16_a.03/pgi-16.5/g16/l601.exe)
 Copying SCF densities to generalized density rwf, IOpCl= 0 IROHF=0.

 **********************************************************************

            Population analysis using the SCF density.

 **********************************************************************

 Orbital symmetries:
       Occupied  (A') (A') (A') (A') (A') (A') (A') (A') (A") (A")
       Virtual   (A') (A') (A') (A') (A') (A') (A') (A') (A') (A')
                 (A") (A') (A") (A") (A') (A') (A") (A') (A") (A")
                 (A') (A') (A') (A') (A') (A') (A') (A') (A") (A")
                 (A") (A') (A") (A') (A') (A') (A') (A') (A') (A')
                 (A') (A') (A") (A") (A') (A") (A') (A") (A') (A')
                 (A") (A") (A') (A') (A') (A') (A") (A") (A") (A")
                 (A') (A') (A') (A') (A") (A") (A') (A') (A') (A')
                 (A") (A") (A') (A') (A') (A') (A') (A') (A') (A')
                 (A") (A") (A') (A') (A") (A") (A") (A") (A') (A")
                 (A") (A') (A') (A') (A') (A') (A") (A") (A') (A')
                 (A') (A') (A') (A') (A') (A')
 The electronic state is 1-A'.
 Alpha  occ. eigenvalues --  -20.57325 -20.53709  -1.34576  -1.31067  -0.71959
 Alpha  occ. eigenvalues --   -0.68492  -0.58261  -0.54527  -0.51716  -0.48217
 Alpha virt. eigenvalues --    0.12218   0.16945   0.19181   0.26063   0.51645
 Alpha virt. eigenvalues --    0.55121   0.56397   0.58984   0.69051   0.72281
 Alpha virt. eigenvalues --    0.76361   0.77628   0.80695   0.83451   0.84196
 Alpha virt. eigenvalues --    0.85281   0.86596   0.88001   0.95042   1.01014
 Alpha virt. eigenvalues --    1.12624   1.13276   1.20553   1.22982   1.50232
 Alpha virt. eigenvalues --    1.50328   1.53797   1.67419   1.98813   2.02551
 Alpha virt. eigenvalues --    2.05021   2.05340   2.08730   2.11110   2.14070
 Alpha virt. eigenvalues --    2.20642   2.26517   2.31467   2.59861   2.63943
 Alpha virt. eigenvalues --    2.91215   2.96536   3.37784   3.41236   3.48296
 Alpha virt. eigenvalues --    3.51588   3.51840   3.55019   3.57949   3.61518
 Alpha virt. eigenvalues --    3.76937   3.80418   3.82674   3.87368   3.88731
 Alpha virt. eigenvalues --    3.90555   3.92035   3.95068   4.01830   4.05678
 Alpha virt. eigenvalues --    4.06799   4.11245   4.13501   4.23048   4.28497
 Alpha virt. eigenvalues --    4.32052   4.39607   4.42918   4.44073   4.49110
 Alpha virt. eigenvalues --    4.64930   4.68355   4.79756   4.83515   5.02998
 Alpha virt. eigenvalues --    5.07042   5.23455   5.26527   5.52806   5.56753
 Alpha virt. eigenvalues --    5.96085   5.99665   6.38622   6.42933   6.84389
 Alpha virt. eigenvalues --    6.87919   6.87945   6.91471   6.92495   6.97301
 Alpha virt. eigenvalues --    7.00886   7.01193   7.06510   7.09754   7.13572
 Alpha virt. eigenvalues --    7.16143   7.16437   7.20058   7.45791   7.50456
 Alpha virt. eigenvalues --    7.68681   7.72554   8.13624   8.18269  12.47684
 Alpha virt. eigenvalues --   12.69890
          Condensed to atoms (all electrons):
               1          2          3          4          5          6
     1  O    7.836420   0.348263   0.345467  -0.001490   0.000075   0.000113
     2  H    0.348263   0.409714  -0.038702   0.012980  -0.000734  -0.000807
     3  H    0.345467  -0.038702   0.444762  -0.000299   0.000016   0.000043
     4  O   -0.001490   0.012980  -0.000299   7.834996   0.332237   0.329693
     5  H    0.000075  -0.000734   0.000016   0.332237   0.434526  -0.028054
     6  H    0.000113  -0.000807   0.000043   0.329693  -0.028054   0.441977
 Mulliken charges:
               1
     1  O   -0.528848
     2  H    0.269285
     3  H    0.248713
     4  O   -0.508117
     5  H    0.261933
     6  H    0.257034
 Sum of Mulliken charges =  -0.00000
 Mulliken charges with hydrogens summed into heavy atoms:
               1
     1  O   -0.010850
     4  O    0.010850
 Electronic spatial extent (au):  <R**2>=            282.1705
 Charge=             -0.0000 electrons
 Dipole moment (field-independent basis, Debye):
    X=             -1.6443    Y=             -3.3866    Z=             -0.0000  Tot=              3.7647
 Quadrupole moment (field-independent basis, Debye-Ang):
   XX=             -9.1867   YY=             -7.8389   ZZ=            -14.7284
   XY=             -4.0557   XZ=             -0.0000   YZ=             -0.0000
 Traceless Quadrupole moment (field-independent basis, Debye-Ang):
   XX=              1.3980   YY=              2.7457   ZZ=             -4.1437
   XY=             -4.0557   XZ=             -0.0000   YZ=             -0.0000
 Octapole moment (field-independent basis, Debye-Ang**2):
  XXX=             -1.7152  YYY=            -29.0274  ZZZ=             -0.0000  XYY=             -9.0710
  XXY=             -3.7641  XXZ=             -0.0000  XZZ=             -0.2142  YZZ=             -0.5232
  YYZ=             -0.0000  XYZ=             -0.0000
 Hexadecapole moment (field-independent basis, Debye-Ang**3):
 XXXX=            -11.2537 YYYY=           -221.3299 ZZZZ=            -11.3752 XXXY=             -1.3546
 XXXZ=             -0.0000 YYYX=            -21.6373 YYYZ=             -0.0000 ZZZX=             -0.0000
 ZZZY=             -0.0000 XXYY=            -27.9676 XXZZ=             -4.4548 YYZZ=            -54.5357
 XXYZ=             -0.0000 YYXZ=             -0.0000 ZZXY=              0.9282
 N-N= 3.227163708270D+01 E-N=-4.259640864612D+02  KE= 1.517933820970D+02
 Symmetry A'   KE= 1.427599498763D+02
 Symmetry A"   KE= 9.033432220691D+00
 Leave Link  601 at Sun Aug 28 03:47:21 2022, MaxMem=   536870912 cpu:               0.4 elap:               0.1
 (Enter /usr/site/hpc/x86_64/glibc-2.17/broadwell/gaussian/g16_a.03/pgi-16.5/g16/l9999.exe)
 1\1\GINC-N002\SP\RCCSD(T)-FC\CC-pVTZ\H4O2\ROOT\28-Aug-2022\0\\#p CCSD(
 T)/cc-pVTZ\\H2O_H2O_2039\\0,1\O,0,0.,-0.009833,0.\H,0,-0.799571,-0.580
 965,0.\H,0,0.799571,-0.580965,0.\O,0,-2.983127,-2.131254,0.\H,0,-3.922
 984,-1.844595,0.\H,0,-2.949488,-3.11328,0.\\Version=ES64L-G16RevA.03\S
 tate=1-A'\HF=-152.1122006\MP2=-152.6385912\MP3=-152.6459644\MP4D=-152.
 6550523\MP4DQ=-152.6474819\MP4SDQ=-152.6505611\CCSD=-152.6499536\CCSD(
 T)=-152.6656583\RMSD=6.512e-09\PG=CS [SG(H4O2)]\\@


 O WAD SOME POWER THE GIFTIE GIE US       
 TO SEE OURSELS AS OTHERS SEE US.....     
 IT WOULD FRAE MONIE A BLUNDER FREE US,   
                     AND FOOLISH NOTION...
 WHAT AIRS IN DRESS AND GAIT WAD LEA'E US,
                     AND EV'N DEVOTION....
                                          
              (ROBERT BURNS 'TO A LOUSE') 
 Job cpu time:       0 days  0 hours  1 minutes 22.7 seconds.
 Elapsed time:       0 days  0 hours  0 minutes 20.9 seconds.
 File lengths (MBytes):  RWF=    348 Int=      0 D2E=      0 Chk=      8 Scr=      8
 Normal termination of Gaussian 16 at Sun Aug 28 03:47:21 2022.
