 Entering Gaussian System, Link 0=g16
 Input=H2O_H2O_4008.com
 Output=H2O_H2O_4008.log
 Initial command:
 /usr/site/hpc/x86_64/glibc-2.17/broadwell/gaussian/g16_a.03/pgi-16.5/g16/l1.exe "/gpfs/gpfs1/scratch/c7441284/ForceFieldModel/FittingData2/Gau-621072.inp" -scrdir="/gpfs/gpfs1/scratch/c7441284/ForceFieldModel/FittingData2/"
 Entering Link 1 = /usr/site/hpc/x86_64/glibc-2.17/broadwell/gaussian/g16_a.03/pgi-16.5/g16/l1.exe PID=    621073.
  
 Copyright (c) 1988,1990,1992,1993,1995,1998,2003,2009,2016,
            Gaussian, Inc.  All Rights Reserved.
  
 This is part of the Gaussian(R) 16 program.  It is based on
 the Gaussian(R) 09 system (copyright 2009, Gaussian, Inc.),
 the Gaussian(R) 03 system (copyright 2003, Gaussian, Inc.),
 the Gaussian(R) 98 system (copyright 1998, Gaussian, Inc.),
 the Gaussian(R) 94 system (copyright 1995, Gaussian, Inc.),
 the Gaussian 92(TM) system (copyright 1992, Gaussian, Inc.),
 the Gaussian 90(TM) system (copyright 1990, Gaussian, Inc.),
 the Gaussian 88(TM) system (copyright 1988, Gaussian, Inc.),
 the Gaussian 86(TM) system (copyright 1986, Carnegie Mellon
 University), and the Gaussian 82(TM) system (copyright 1983,
 Carnegie Mellon University). Gaussian is a federally registered
 trademark of Gaussian, Inc.
  
 This software contains proprietary and confidential information,
 including trade secrets, belonging to Gaussian, Inc.
  
 This software is provided under written license and may be
 used, copied, transmitted, or stored only in accord with that
 written license.
  
 The following legend is applicable only to US Government
 contracts under FAR:
  
                    RESTRICTED RIGHTS LEGEND
  
 Use, reproduction and disclosure by the US Government is
 subject to restrictions as set forth in subparagraphs (a)
 and (c) of the Commercial Computer Software - Restricted
 Rights clause in FAR 52.227-19.
  
 Gaussian, Inc.
 340 Quinnipiac St., Bldg. 40, Wallingford CT 06492
  
  
 ---------------------------------------------------------------
 Warning -- This program may not be used in any manner that
 competes with the business of Gaussian, Inc. or will provide
 assistance to any competitor of Gaussian, Inc.  The licensee
 of this program is prohibited from giving any competitor of
 Gaussian, Inc. access to this program.  By using this program,
 the user acknowledges that Gaussian, Inc. is engaged in the
 business of creating and licensing software in the field of
 computational chemistry and represents and warrants to the
 licensee that it is not a competitor of Gaussian, Inc. and that
 it will not use this program in any manner prohibited above.
 ---------------------------------------------------------------
  

 Cite this work as:
 Gaussian 16, Revision A.03,
 M. J. Frisch, G. W. Trucks, H. B. Schlegel, G. E. Scuseria, 
 M. A. Robb, J. R. Cheeseman, G. Scalmani, V. Barone, 
 G. A. Petersson, H. Nakatsuji, X. Li, M. Caricato, A. V. Marenich, 
 J. Bloino, B. G. Janesko, R. Gomperts, B. Mennucci, H. P. Hratchian, 
 J. V. Ortiz, A. F. Izmaylov, J. L. Sonnenberg, D. Williams-Young, 
 F. Ding, F. Lipparini, F. Egidi, J. Goings, B. Peng, A. Petrone, 
 T. Henderson, D. Ranasinghe, V. G. Zakrzewski, J. Gao, N. Rega, 
 G. Zheng, W. Liang, M. Hada, M. Ehara, K. Toyota, R. Fukuda, 
 J. Hasegawa, M. Ishida, T. Nakajima, Y. Honda, O. Kitao, H. Nakai, 
 T. Vreven, K. Throssell, J. A. Montgomery, Jr., J. E. Peralta, 
 F. Ogliaro, M. J. Bearpark, J. J. Heyd, E. N. Brothers, K. N. Kudin, 
 V. N. Staroverov, T. A. Keith, R. Kobayashi, J. Normand, 
 K. Raghavachari, A. P. Rendell, J. C. Burant, S. S. Iyengar, 
 J. Tomasi, M. Cossi, J. M. Millam, M. Klene, C. Adamo, R. Cammi, 
 J. W. Ochterski, R. L. Martin, K. Morokuma, O. Farkas, 
 J. B. Foresman, and D. J. Fox, Gaussian, Inc., Wallingford CT, 2016.
 
 ******************************************
 Gaussian 16:  ES64L-G16RevA.03 25-Dec-2016
                27-Aug-2022 
 ******************************************
 %NProcShared=4
 Will use up to    4 processors via shared memory.
 %Mem=4GB
 %Chk=H2O_H2O_4008.chk
 ------------------
 #p CCSD(T)/cc-pVTZ
 ------------------
 1/38=1,172=1/1;
 2/12=2,17=6,18=5,40=1/2;
 3/5=16,6=1,11=9,25=1,30=1/1,2,3;
 4//1;
 5/5=2,38=5/2;
 8/6=4,9=120000,10=1/1,4;
 9/5=7,14=2/13;
 6/7=2,8=2,9=2,10=2/1;
 99/5=1,9=1/99;
 Leave Link    1 at Sat Aug 27 00:57:44 2022, MaxMem=   536870912 cpu:               0.2 elap:               0.1
 (Enter /usr/site/hpc/x86_64/glibc-2.17/broadwell/gaussian/g16_a.03/pgi-16.5/g16/l101.exe)
 ------------
 H2O_H2O_4008
 ------------
 Symbolic Z-matrix:
 Charge =  0 Multiplicity = 1
 O                     0.       -0.00983   0. 
 H                    -0.79957  -0.58097   0. 
 H                     0.79957  -0.58097   0. 
 O                    -4.26232  -3.04957   0. 
 H                    -5.24034  -3.1444    0. 
 H                    -3.85544  -3.94397   0. 
 
 ITRead=  0  0  0  0  0  0
 MicOpt= -1 -1 -1 -1 -1 -1
 NAtoms=      6 NQM=        6 NQMF=       0 NMMI=      0 NMMIF=      0
                NMic=       0 NMicF=      0.
                    Isotopes and Nuclear Properties:
 (Nuclear quadrupole moments (NQMom) in fm**2, nuclear magnetic moments (NMagM)
  in nuclear magnetons)

  Atom         1           2           3           4           5           6
 IAtWgt=          16           1           1          16           1           1
 AtmWgt=  15.9949146   1.0078250   1.0078250  15.9949146   1.0078250   1.0078250
 NucSpn=           0           1           1           0           1           1
 AtZEff=  -0.0000000  -0.0000000  -0.0000000  -0.0000000  -0.0000000  -0.0000000
 NQMom=    0.0000000   0.0000000   0.0000000   0.0000000   0.0000000   0.0000000
 NMagM=    0.0000000   2.7928460   2.7928460   0.0000000   2.7928460   2.7928460
 AtZNuc=   8.0000000   1.0000000   1.0000000   8.0000000   1.0000000   1.0000000
 Leave Link  101 at Sat Aug 27 00:57:44 2022, MaxMem=   536870912 cpu:               0.6 elap:               0.2
 (Enter /usr/site/hpc/x86_64/glibc-2.17/broadwell/gaussian/g16_a.03/pgi-16.5/g16/l202.exe)
                          Input orientation:                          
 ---------------------------------------------------------------------
 Center     Atomic      Atomic             Coordinates (Angstroms)
 Number     Number       Type             X           Y           Z
 ---------------------------------------------------------------------
      1          8           0        0.000000   -0.009833    0.000000
      2          1           0       -0.799571   -0.580965    0.000000
      3          1           0        0.799571   -0.580965    0.000000
      4          8           0       -4.262325   -3.049573    0.000000
      5          1           0       -5.240341   -3.144402    0.000000
      6          1           0       -3.855442   -3.943973    0.000000
 ---------------------------------------------------------------------
                    Distance matrix (angstroms):
                    1          2          3          4          5
     1  O    0.000000
     2  H    0.982601   0.000000
     3  H    0.982601   1.599142   0.000000
     4  O    5.235211   4.252610   5.631769   0.000000
     5  H    6.106283   5.127538   6.561383   0.982603   0.000000
     6  H    5.508347   4.544026   5.742732   0.982601   1.599143
                    6
     6  H    0.000000
 Stoichiometry    H4O2
 Framework group  CS[SG(H4O2)]
 Deg. of freedom     9
 Full point group                 CS      NOp   2
 Largest Abelian subgroup         CS      NOp   2
 Largest concise Abelian subgroup C1      NOp   1
                         Standard orientation:                         
 ---------------------------------------------------------------------
 Center     Atomic      Atomic             Coordinates (Angstroms)
 Number     Number       Type             X           Y           Z
 ---------------------------------------------------------------------
      1          8           0        0.070188    2.702736   -0.000000
      2          1           0        0.069451    1.720135   -0.000000
      3          1           0       -0.859065    3.022100    0.000000
      4          8           0        0.070188   -2.532475   -0.000000
      5          1           0        0.560851   -3.383802   -0.000000
      6          1           0       -0.894251   -2.720524    0.000000
 ---------------------------------------------------------------------
 Rotational constants (GHZ):         255.0337571           2.0169209           2.0010953
 Leave Link  202 at Sat Aug 27 00:57:44 2022, MaxMem=   536870912 cpu:               0.0 elap:               0.0
 (Enter /usr/site/hpc/x86_64/glibc-2.17/broadwell/gaussian/g16_a.03/pgi-16.5/g16/l301.exe)
 Standard basis: CC-pVTZ (5D, 7F)
 Ernie: Thresh=  0.10000D-02 Tol=  0.10000D-05 Strict=F.
 Ernie:  6 primitive shells out of 84 were deleted.
 There are    92 symmetry adapted cartesian basis functions of A'  symmetry.
 There are    38 symmetry adapted cartesian basis functions of A"  symmetry.
 There are    80 symmetry adapted basis functions of A'  symmetry.
 There are    36 symmetry adapted basis functions of A"  symmetry.
   116 basis functions,   172 primitive gaussians,   130 cartesian basis functions
    10 alpha electrons       10 beta electrons
       nuclear repulsion energy        27.9659576972 Hartrees.
 IExCor=    0 DFT=F Ex=HF Corr=None ExCW=0 ScaHFX=  1.000000
 ScaDFX=  1.000000  1.000000  1.000000  1.000000 ScalE2=  1.000000  1.000000
 IRadAn=      5 IRanWt=     -1 IRanGd=            0 ICorTp=0 IEmpDi=  4
 NAtoms=    6 NActive=    6 NUniq=    6 SFac= 1.00D+00 NAtFMM=   60 NAOKFM=F Big=F
 Integral buffers will be    131072 words long.
 Raffenetti 1 integral format.
 Two-electron integral symmetry is turned on.
 Leave Link  301 at Sat Aug 27 00:57:44 2022, MaxMem=   536870912 cpu:               0.1 elap:               0.0
 (Enter /usr/site/hpc/x86_64/glibc-2.17/broadwell/gaussian/g16_a.03/pgi-16.5/g16/l302.exe)
 NPDir=0 NMtPBC=     1 NCelOv=     1 NCel=       1 NClECP=     1 NCelD=      1
         NCelK=      1 NCelE2=     1 NClLst=     1 CellRange=     0.0.
 One-electron integrals computed using PRISM.
 One-electron integral symmetry used in STVInt
 NBasis=   116 RedAO= T EigKep=  2.63D-03  NBF=    80    36
 NBsUse=   116 1.00D-06 EigRej= -1.00D+00 NBFU=    80    36
 Leave Link  302 at Sat Aug 27 00:57:44 2022, MaxMem=   536870912 cpu:               0.5 elap:               0.1
 (Enter /usr/site/hpc/x86_64/glibc-2.17/broadwell/gaussian/g16_a.03/pgi-16.5/g16/l303.exe)
 DipDrv:  MaxL=1.
 Leave Link  303 at Sat Aug 27 00:57:44 2022, MaxMem=   536870912 cpu:               0.1 elap:               0.0
 (Enter /usr/site/hpc/x86_64/glibc-2.17/broadwell/gaussian/g16_a.03/pgi-16.5/g16/l401.exe)
 ExpMin= 1.03D-01 ExpMax= 1.53D+04 ExpMxC= 5.22D+02 IAcc=3 IRadAn=         5 AccDes= 0.00D+00
 Harris functional with IExCor=  205 and IRadAn=       5 diagonalized for initial guess.
 HarFok:  IExCor=  205 AccDes= 0.00D+00 IRadAn=         5 IDoV= 1 UseB2=F ITyADJ=14
 ICtDFT=  3500011 ScaDFX=  1.000000  1.000000  1.000000  1.000000
 FoFCou: FMM=F IPFlag=           0 FMFlag=      100000 FMFlg1=           0
         NFxFlg=           0 DoJE=T BraDBF=F KetDBF=T FulRan=T
         wScrn=  0.000000 ICntrl=       500 IOpCl=  0 I1Cent=   200000004 NGrid=           0
         NMat0=    1 NMatS0=      1 NMatT0=    0 NMatD0=    1 NMtDS0=    0 NMtDT0=    0
 Petite list used in FoFCou.
 Harris En= -152.298703745587    
 JPrj=0 DoOrth=F DoCkMO=F.
 Initial guess orbital symmetries:
       Occupied  (A') (A') (A') (A') (A') (A') (A') (A') (A") (A")
       Virtual   (A') (A') (A') (A') (A') (A') (A') (A') (A') (A')
                 (A") (A") (A') (A') (A') (A') (A") (A") (A") (A")
                 (A') (A') (A') (A') (A') (A') (A') (A') (A") (A")
                 (A") (A") (A') (A') (A') (A') (A') (A') (A') (A')
                 (A') (A') (A") (A") (A') (A') (A") (A") (A") (A")
                 (A') (A') (A') (A') (A') (A') (A") (A") (A') (A')
                 (A') (A') (A") (A") (A") (A") (A') (A') (A') (A')
                 (A") (A") (A') (A') (A') (A') (A') (A') (A') (A')
                 (A") (A") (A') (A') (A") (A") (A") (A") (A') (A')
                 (A") (A") (A') (A') (A') (A') (A") (A") (A') (A')
                 (A') (A') (A') (A') (A') (A')
 The electronic state of the initial guess is 1-A'.
 Leave Link  401 at Sat Aug 27 00:57:44 2022, MaxMem=   536870912 cpu:               0.7 elap:               0.2
 (Enter /usr/site/hpc/x86_64/glibc-2.17/broadwell/gaussian/g16_a.03/pgi-16.5/g16/l502.exe)
 Keep R1 ints in memory in symmetry-blocked form, NReq=34823457.
 FoFCou: FMM=F IPFlag=           0 FMFlag=           0 FMFlg1=           0
         NFxFlg=           0 DoJE=F BraDBF=F KetDBF=F FulRan=T
         wScrn=  0.000000 ICntrl=       600 IOpCl=  0 I1Cent=           0 NGrid=           0
         NMat0=    1 NMatS0=   6786 NMatT0=    0 NMatD0=    1 NMtDS0=    0 NMtDT0=    0
 Petite list used in FoFCou.
 Closed shell SCF:
 Using DIIS extrapolation, IDIIS=  1040.
 NGot=   536870912 LenX=   525040673 LenY=   525023332
 Requested convergence on RMS density matrix=1.00D-08 within 128 cycles.
 Requested convergence on MAX density matrix=1.00D-06.
 Requested convergence on             energy=1.00D-06.
 No special actions if energy rises.

 Cycle   1  Pass 1  IDiag  1:
 E= -151.928859306059    
 DIIS: error= 6.59D-02 at cycle   1 NSaved=   1.
 NSaved= 1 IEnMin= 1 EnMin= -151.928859306059     IErMin= 1 ErrMin= 6.59D-02
 ErrMax= 6.59D-02  0.00D+00 EMaxC= 1.00D-01 BMatC= 3.99D-01 BMatP= 3.99D-01
 IDIUse=3 WtCom= 3.41D-01 WtEn= 6.59D-01
 Coeff-Com:  0.100D+01
 Coeff-En:   0.100D+01
 Coeff:      0.100D+01
 Gap=     0.510 Goal=   None    Shift=    0.000
 GapD=    0.510 DampG=2.000 DampE=0.500 DampFc=1.0000 IDamp=-1.
 RMSDP=2.50D-03 MaxDP=6.68D-02              OVMax= 1.26D-01

 Cycle   2  Pass 1  IDiag  1:
 E= -152.040303974646     Delta-E=       -0.111444668587 Rises=F Damp=F
 DIIS: error= 4.14D-02 at cycle   2 NSaved=   2.
 NSaved= 2 IEnMin= 2 EnMin= -152.040303974646     IErMin= 2 ErrMin= 4.14D-02
 ErrMax= 4.14D-02  0.00D+00 EMaxC= 1.00D-01 BMatC= 1.12D-01 BMatP= 3.99D-01
 IDIUse=3 WtCom= 5.86D-01 WtEn= 4.14D-01
 Coeff-Com:  0.319D+00 0.681D+00
 Coeff-En:   0.166D+00 0.834D+00
 Coeff:      0.255D+00 0.745D+00
 Gap=     0.647 Goal=   None    Shift=    0.000
 RMSDP=1.32D-03 MaxDP=3.96D-02 DE=-1.11D-01 OVMax= 5.71D-02

 Cycle   3  Pass 1  IDiag  1:
 E= -152.104653250932     Delta-E=       -0.064349276286 Rises=F Damp=F
 DIIS: error= 8.97D-03 at cycle   3 NSaved=   3.
 NSaved= 3 IEnMin= 3 EnMin= -152.104653250932     IErMin= 3 ErrMin= 8.97D-03
 ErrMax= 8.97D-03  0.00D+00 EMaxC= 1.00D-01 BMatC= 5.96D-03 BMatP= 1.12D-01
 IDIUse=3 WtCom= 9.10D-01 WtEn= 8.97D-02
 Coeff-Com: -0.304D-01 0.156D+00 0.875D+00
 Coeff-En:   0.000D+00 0.000D+00 0.100D+01
 Coeff:     -0.276D-01 0.142D+00 0.886D+00
 Gap=     0.619 Goal=   None    Shift=    0.000
 RMSDP=2.43D-04 MaxDP=5.73D-03 DE=-6.43D-02 OVMax= 1.33D-02

 Cycle   4  Pass 1  IDiag  1:
 E= -152.108361224684     Delta-E=       -0.003707973752 Rises=F Damp=F
 DIIS: error= 8.52D-04 at cycle   4 NSaved=   4.
 NSaved= 4 IEnMin= 4 EnMin= -152.108361224684     IErMin= 4 ErrMin= 8.52D-04
 ErrMax= 8.52D-04  0.00D+00 EMaxC= 1.00D-01 BMatC= 3.69D-05 BMatP= 5.96D-03
 IDIUse=3 WtCom= 9.91D-01 WtEn= 8.52D-03
 Coeff-Com:  0.678D-02-0.612D-01-0.238D+00 0.129D+01
 Coeff-En:   0.000D+00 0.000D+00 0.000D+00 0.100D+01
 Coeff:      0.672D-02-0.606D-01-0.236D+00 0.129D+01
 Gap=     0.622 Goal=   None    Shift=    0.000
 RMSDP=5.17D-05 MaxDP=1.03D-03 DE=-3.71D-03 OVMax= 2.21D-03

 Cycle   5  Pass 1  IDiag  1:
 E= -152.108410778095     Delta-E=       -0.000049553411 Rises=F Damp=F
 DIIS: error= 1.93D-04 at cycle   5 NSaved=   5.
 NSaved= 5 IEnMin= 5 EnMin= -152.108410778095     IErMin= 5 ErrMin= 1.93D-04
 ErrMax= 1.93D-04  0.00D+00 EMaxC= 1.00D-01 BMatC= 1.34D-06 BMatP= 3.69D-05
 IDIUse=3 WtCom= 9.98D-01 WtEn= 1.93D-03
 Coeff-Com:  0.524D-03 0.583D-03-0.242D-02-0.225D+00 0.123D+01
 Coeff-En:   0.000D+00 0.000D+00 0.000D+00 0.000D+00 0.100D+01
 Coeff:      0.523D-03 0.582D-03-0.241D-02-0.224D+00 0.123D+01
 Gap=     0.623 Goal=   None    Shift=    0.000
 RMSDP=1.43D-05 MaxDP=2.94D-04 DE=-4.96D-05 OVMax= 6.85D-04

 Cycle   6  Pass 1  IDiag  1:
 E= -152.108413586621     Delta-E=       -0.000002808526 Rises=F Damp=F
 DIIS: error= 2.77D-05 at cycle   6 NSaved=   6.
 NSaved= 6 IEnMin= 6 EnMin= -152.108413586621     IErMin= 6 ErrMin= 2.77D-05
 ErrMax= 2.77D-05  0.00D+00 EMaxC= 1.00D-01 BMatC= 3.31D-08 BMatP= 1.34D-06
 IDIUse=1 WtCom= 1.00D+00 WtEn= 0.00D+00
 Coeff-Com: -0.260D-03 0.153D-02 0.653D-02 0.123D-03-0.247D+00 0.124D+01
 Coeff:     -0.260D-03 0.153D-02 0.653D-02 0.123D-03-0.247D+00 0.124D+01
 Gap=     0.623 Goal=   None    Shift=    0.000
 RMSDP=2.97D-06 MaxDP=6.66D-05 DE=-2.81D-06 OVMax= 1.54D-04

 Cycle   7  Pass 1  IDiag  1:
 E= -152.108413679456     Delta-E=       -0.000000092835 Rises=F Damp=F
 DIIS: error= 5.16D-06 at cycle   7 NSaved=   7.
 NSaved= 7 IEnMin= 7 EnMin= -152.108413679456     IErMin= 7 ErrMin= 5.16D-06
 ErrMax= 5.16D-06  0.00D+00 EMaxC= 1.00D-01 BMatC= 2.28D-09 BMatP= 3.31D-08
 IDIUse=1 WtCom= 1.00D+00 WtEn= 0.00D+00
 Coeff-Com: -0.152D-04-0.123D-03-0.391D-03 0.137D-01-0.575D-01-0.167D-01
 Coeff-Com:  0.106D+01
 Coeff:     -0.152D-04-0.123D-03-0.391D-03 0.137D-01-0.575D-01-0.167D-01
 Coeff:      0.106D+01
 Gap=     0.623 Goal=   None    Shift=    0.000
 RMSDP=4.19D-07 MaxDP=1.14D-05 DE=-9.28D-08 OVMax= 3.10D-05

 Cycle   8  Pass 1  IDiag  1:
 E= -152.108413683262     Delta-E=       -0.000000003806 Rises=F Damp=F
 DIIS: error= 1.87D-06 at cycle   8 NSaved=   8.
 NSaved= 8 IEnMin= 8 EnMin= -152.108413683262     IErMin= 8 ErrMin= 1.87D-06
 ErrMax= 1.87D-06  0.00D+00 EMaxC= 1.00D-01 BMatC= 3.77D-10 BMatP= 2.28D-09
 IDIUse=1 WtCom= 1.00D+00 WtEn= 0.00D+00
 Coeff-Com:  0.241D-04-0.195D-03-0.790D-03 0.327D-02 0.129D-01-0.133D+00
 Coeff-Com:  0.246D+00 0.872D+00
 Coeff:      0.241D-04-0.195D-03-0.790D-03 0.327D-02 0.129D-01-0.133D+00
 Coeff:      0.246D+00 0.872D+00
 Gap=     0.623 Goal=   None    Shift=    0.000
 RMSDP=1.24D-07 MaxDP=3.21D-06 DE=-3.81D-09 OVMax= 9.48D-06

 Cycle   9  Pass 1  IDiag  1:
 E= -152.108413683739     Delta-E=       -0.000000000478 Rises=F Damp=F
 DIIS: error= 8.56D-07 at cycle   9 NSaved=   9.
 NSaved= 9 IEnMin= 9 EnMin= -152.108413683739     IErMin= 9 ErrMin= 8.56D-07
 ErrMax= 8.56D-07  0.00D+00 EMaxC= 1.00D-01 BMatC= 2.77D-11 BMatP= 3.77D-10
 IDIUse=1 WtCom= 1.00D+00 WtEn= 0.00D+00
 Coeff-Com:  0.827D-06 0.306D-04 0.126D-03-0.245D-02 0.855D-02 0.805D-02
 Coeff-Com: -0.154D+00-0.434D-01 0.118D+01
 Coeff:      0.827D-06 0.306D-04 0.126D-03-0.245D-02 0.855D-02 0.805D-02
 Coeff:     -0.154D+00-0.434D-01 0.118D+01
 Gap=     0.623 Goal=   None    Shift=    0.000
 RMSDP=5.33D-08 MaxDP=1.06D-06 DE=-4.78D-10 OVMax= 3.03D-06

 Cycle  10  Pass 1  IDiag  1:
 E= -152.108413683790     Delta-E=       -0.000000000050 Rises=F Damp=F
 DIIS: error= 1.01D-07 at cycle  10 NSaved=  10.
 NSaved=10 IEnMin=10 EnMin= -152.108413683790     IErMin=10 ErrMin= 1.01D-07
 ErrMax= 1.01D-07  0.00D+00 EMaxC= 1.00D-01 BMatC= 4.33D-13 BMatP= 2.77D-11
 IDIUse=1 WtCom= 1.00D+00 WtEn= 0.00D+00
 Coeff-Com: -0.594D-06-0.397D-05-0.189D-04 0.530D-03-0.198D-02-0.140D-02
 Coeff-Com:  0.401D-01-0.201D-02-0.355D+00 0.132D+01
 Coeff:     -0.594D-06-0.397D-05-0.189D-04 0.530D-03-0.198D-02-0.140D-02
 Coeff:      0.401D-01-0.201D-02-0.355D+00 0.132D+01
 Gap=     0.623 Goal=   None    Shift=    0.000
 RMSDP=7.16D-09 MaxDP=1.92D-07 DE=-5.04D-11 OVMax= 4.17D-07

 SCF Done:  E(RHF) =  -152.108413684     A.U. after   10 cycles
            NFock= 10  Conv=0.72D-08     -V/T= 2.0020
 KE= 1.518029882131D+02 PE=-4.173404697281D+02 EE= 8.546311013402D+01
 Leave Link  502 at Sat Aug 27 00:57:45 2022, MaxMem=   536870912 cpu:               3.9 elap:               1.0
 (Enter /usr/site/hpc/x86_64/glibc-2.17/broadwell/gaussian/g16_a.03/pgi-16.5/g16/l801.exe)
 Windowed orbitals will be sorted by symmetry type.
 ExpMin= 1.03D-01 ExpMax= 1.53D+04 ExpMxC= 5.22D+02 IAcc=3 IRadAn=         5 AccDes= 0.00D+00
 HarFok:  IExCor=  205 AccDes= 0.00D+00 IRadAn=         5 IDoV=-2 UseB2=F ITyADJ=14
 ICtDFT= 12500011 ScaDFX=  1.000000  1.000000  1.000000  1.000000
 Largest valence mixing into a core orbital is  1.12D-04
 Largest core mixing into a valence orbital is  1.76D-05
 Range of M.O.s used for correlation:     3   116
 NBasis=   116 NAE=    10 NBE=    10 NFC=     2 NFV=     0
 NROrb=    114 NOA=     8 NOB=     8 NVA=   106 NVB=   106
 Leave Link  801 at Sat Aug 27 00:57:45 2022, MaxMem=   536870912 cpu:               0.3 elap:               0.1
 (Enter /usr/site/hpc/x86_64/glibc-2.17/broadwell/gaussian/g16_a.03/pgi-16.5/g16/l804.exe)
 Closed-shell transformation, MDV=   536870912 ITran=4 ISComp=2.
 Unit  1 TFree=        834515 TCopy=        406125.
 Semi-Direct transformation.
 ModeAB=           4 MOrb=             8 LenV=     536376245
 LASXX=      2873146 LTotXX=     2873146 LenRXX=     5831278
 LTotAB=     2958132 MaxLAS=     5557728 LenRXY=           0
 NonZer=     8704424 LenScr=    13107200 LnRSAI=     5557728
 LnScr1=     8388608 LExtra=           0 Total=     32884814
 MaxDsk=          -1 SrtSym=           T ITran=            4
 DoSDTr:  NPSUse=  4
 JobTyp=0 Pass  1:  I=   1 to   8.
 (rs|ai) integrals will be sorted in core.
 Complete sort for first half transformation.
 First half transformation complete.
 Complete sort for second half transformation.
 Second half transformation complete.
 Spin components of T(2) and E(2):
     alpha-alpha T2 =       0.1555660219D-01 E2=     -0.6380476289D-01
     alpha-beta  T2 =       0.9186047319D-01 E2=     -0.3982392443D+00
     beta-beta   T2 =       0.1555660219D-01 E2=     -0.6380476289D-01
 ANorm=    0.1059704524D+01
 E2 =    -0.5258487701D+00 EUMP2 =    -0.15263426245386D+03
 Leave Link  804 at Sat Aug 27 00:57:46 2022, MaxMem=   536870912 cpu:               3.1 elap:               0.8
 (Enter /usr/site/hpc/x86_64/glibc-2.17/broadwell/gaussian/g16_a.03/pgi-16.5/g16/l913.exe)
 CIDS:  MDV=   536870912.
 Frozen-core window:  NFC=   2 NFV=   0.
 IFCWin=0 IBDFC=1 NFBD=     0     0 NFCmp=     0     0 NFFFC=     0     0
 Using DD3R+UMP44R for 1st iteration.
 Using DD4RQ for 2nd and later iterations.
 Keep R2 and R3 ints in memory in symmetry-blocked form, NReq=35357534.
 FoFCou: FMM=F IPFlag=           0 FMFlag=           0 FMFlg1=           0
         NFxFlg=           0 DoJE=F BraDBF=F KetDBF=F FulRan=T
         wScrn=  0.000000 ICntrl=       600 IOpCl=  0 I1Cent=           0 NGrid=           0
         NMat0=    1 NMatS0=   6786 NMatT0=    0 NMatD0=    1 NMtDS0=    0 NMtDT0=    0
 Petite list used in FoFCou.
 CIDS: In Core Option IDoMem=           1.
 CCSD(T)
 =======
 Iterations=  50 Convergence= 0.100D-06
 Produce multiple copies of IABC intergrals
 Iteration Nr.   1
 **********************
 DD1Dir will call FoFMem   1 times, MxPair=        72
 NAB=    36 NAA=     0 NBB=     0.
 MP4(R+Q)=  0.75463429D-02
 Maximum subspace dimension=  5
 A-vector RMS=  1.7394694D-03 Max=  6.1850580D-03 conv= 1.00D-05.
 RLE energy=       -0.5257912891
 E3=       -0.75596905D-02        EUMP3=      -0.15264182214D+03
 E4(DQ)=   -0.15492716D-02        UMP4(DQ)=   -0.15264337142D+03
 E4(SDQ)=  -0.45992050D-02        UMP4(SDQ)=  -0.15264642135D+03
 VARIATIONAL ENERGIES WITH THE FIRST-ORDER WAVEFUNCTION:
 DE(Corr)= -0.52579129     E(Corr)=     -152.63420498    
 NORM(A)=   0.10600690D+01
 Iteration Nr.   2
 **********************
 DD1Dir will call FoFMem   1 times, MxPair=        72
 NAB=    36 NAA=     0 NBB=     0.
 A-vector RMS=  2.1267344D-04 Max=  2.3196814D-03 conv= 1.00D-05.
 RLE energy=       -0.5368385829
 DE(Corr)= -0.53567989     E(CORR)=     -152.64409358     Delta=-9.89D-03
 NORM(A)=   0.10638098D+01
 Iteration Nr.   3
 **********************
 DD1Dir will call FoFMem   1 times, MxPair=        72
 NAB=    36 NAA=     0 NBB=     0.
 A-vector RMS=  1.4047645D-04 Max=  8.1218970D-04 conv= 1.00D-05.
 RLE energy=       -0.5373335057
 DE(Corr)= -0.53674901     E(CORR)=     -152.64516269     Delta=-1.07D-03
 NORM(A)=   0.10644458D+01
 Iteration Nr.   4
 **********************
 DD1Dir will call FoFMem   1 times, MxPair=        72
 NAB=    36 NAA=     0 NBB=     0.
 A-vector RMS=  2.6143219D-05 Max=  1.3825966D-04 conv= 1.00D-05.
 RLE energy=       -0.5374164703
 DE(Corr)= -0.53738128     E(CORR)=     -152.64579497     Delta=-6.32D-04
 NORM(A)=   0.10645559D+01
 Iteration Nr.   5
 **********************
 DD1Dir will call FoFMem   1 times, MxPair=        72
 NAB=    36 NAA=     0 NBB=     0.
 A-vector RMS=  1.8576013D-05 Max=  1.4957400D-04 conv= 1.00D-05.
 RLE energy=       -0.5374248293
 DE(Corr)= -0.53741811     E(CORR)=     -152.64583179     Delta=-3.68D-05
 NORM(A)=   0.10645653D+01
 Iteration Nr.   6
 **********************
 DD1Dir will call FoFMem   1 times, MxPair=        72
 NAB=    36 NAA=     0 NBB=     0.
 A-vector RMS=  5.5571388D-06 Max=  4.3254709D-05 conv= 1.00D-05.
 RLE energy=       -0.5374158059
 DE(Corr)= -0.53742127     E(CORR)=     -152.64583496     Delta=-3.16D-06
 NORM(A)=   0.10645654D+01
 Iteration Nr.   7
 **********************
 DD1Dir will call FoFMem   1 times, MxPair=        72
 NAB=    36 NAA=     0 NBB=     0.
 A-vector RMS=  2.6534537D-06 Max=  2.1175286D-05 conv= 1.00D-05.
 RLE energy=       -0.5374222867
 DE(Corr)= -0.53742142     E(CORR)=     -152.64583511     Delta=-1.51D-07
 NORM(A)=   0.10645676D+01
 Iteration Nr.   8
 **********************
 DD1Dir will call FoFMem   1 times, MxPair=        72
 NAB=    36 NAA=     0 NBB=     0.
 A-vector RMS=  6.1965267D-07 Max=  5.3318734D-06 conv= 1.00D-05.
 RLE energy=       -0.5374208251
 DE(Corr)= -0.53742099     E(CORR)=     -152.64583468     Delta= 4.31D-07
 NORM(A)=   0.10645677D+01
 Iteration Nr.   9
 **********************
 DD1Dir will call FoFMem   1 times, MxPair=        72
 NAB=    36 NAA=     0 NBB=     0.
 A-vector RMS=  1.6409845D-07 Max=  1.3953302D-06 conv= 1.00D-05.
 RLE energy=       -0.5374211816
 DE(Corr)= -0.53742124     E(CORR)=     -152.64583492     Delta=-2.43D-07
 NORM(A)=   0.10645680D+01
 Iteration Nr.  10
 **********************
 DD1Dir will call FoFMem   1 times, MxPair=        72
 NAB=    36 NAA=     0 NBB=     0.
 A-vector RMS=  5.8245492D-08 Max=  4.9825069D-07 conv= 1.00D-05.
 RLE energy=       -0.5374212757
 DE(Corr)= -0.53742125     E(CORR)=     -152.64583493     Delta=-1.24D-08
 NORM(A)=   0.10645681D+01
 CI/CC converged in   10 iterations to DelEn=-1.24D-08 Conv= 1.00D-07 ErrA1= 5.82D-08 Conv= 1.00D-05
 Wavefunction amplitudes converged. E(Corr)=     -152.64583493    
 Largest amplitude= 4.80D-02
 IPart=  2 IA=    7   11.05% done.
 IPart=  3 IA=   13   21.46% done.
 IPart=  1 IA=   19   31.21% done.
 IPart=  2 IA=   25   40.32% done.
 IPart=  2 IA=   32   50.13% done.
 IPart=  3 IA=   40   60.27% done.
 IPart=  1 IA=   49   70.30% done.
 IPart=  2 IA=   60   80.58% done.
 IPart=  1 IA=   74   90.51% done.
 Time for triples=       45.70 seconds.
 T4(CCSD)= -0.16021663D-01
 T5(CCSD)=  0.40173802D-03
 CCSD(T)= -0.15266145486D+03
 Discarding MO integrals.
 Leave Link  913 at Sat Aug 27 00:58:03 2022, MaxMem=   536870912 cpu:              66.9 elap:              16.8
 (Enter /usr/site/hpc/x86_64/glibc-2.17/broadwell/gaussian/g16_a.03/pgi-16.5/g16/l601.exe)
 Copying SCF densities to generalized density rwf, IOpCl= 0 IROHF=0.

 **********************************************************************

            Population analysis using the SCF density.

 **********************************************************************

 Orbital symmetries:
       Occupied  (A') (A') (A') (A') (A') (A') (A') (A') (A") (A")
       Virtual   (A') (A') (A') (A') (A') (A') (A') (A') (A') (A')
                 (A") (A') (A") (A') (A') (A") (A') (A") (A") (A")
                 (A') (A') (A') (A') (A') (A') (A') (A') (A") (A")
                 (A") (A") (A') (A') (A') (A') (A') (A') (A') (A')
                 (A') (A') (A") (A") (A') (A') (A") (A") (A') (A')
                 (A") (A") (A') (A') (A') (A') (A") (A") (A") (A")
                 (A') (A') (A') (A') (A") (A") (A') (A') (A') (A')
                 (A") (A") (A') (A') (A') (A') (A') (A') (A') (A')
                 (A") (A") (A') (A') (A") (A") (A") (A") (A') (A')
                 (A") (A") (A') (A') (A') (A') (A") (A") (A') (A')
                 (A') (A') (A') (A') (A') (A')
 The electronic state is 1-A'.
 Alpha  occ. eigenvalues --  -20.56298 -20.54929  -1.33597  -1.32237  -0.71005
 Alpha  occ. eigenvalues --   -0.69632  -0.57087  -0.55704  -0.50715  -0.49358
 Alpha virt. eigenvalues --    0.12924   0.15119   0.19486   0.21376   0.53368
 Alpha virt. eigenvalues --    0.54975   0.56545   0.57857   0.66695   0.69012
 Alpha virt. eigenvalues --    0.78180   0.79079   0.79497   0.80362   0.82758
 Alpha virt. eigenvalues --    0.84121   0.84561   0.85458   0.96517   0.97858
 Alpha virt. eigenvalues --    1.13825   1.15363   1.17059   1.17791   1.50978
 Alpha virt. eigenvalues --    1.51273   1.52369   1.52890   1.99896   2.01258
 Alpha virt. eigenvalues --    2.05966   2.07332   2.08746   2.10125   2.14131
 Alpha virt. eigenvalues --    2.15473   2.24614   2.25794   2.60740   2.62307
 Alpha virt. eigenvalues --    2.92047   2.93980   3.38620   3.39979   3.49180
 Alpha virt. eigenvalues --    3.50547   3.52386   3.53735   3.58764   3.60168
 Alpha virt. eigenvalues --    3.77899   3.79259   3.84693   3.86013   3.87012
 Alpha virt. eigenvalues --    3.88250   3.92832   3.94195   4.02287   4.03651
 Alpha virt. eigenvalues --    4.07431   4.08883   4.14527   4.15951   4.29360
 Alpha virt. eigenvalues --    4.30729   4.39195   4.40516   4.44837   4.46209
 Alpha virt. eigenvalues --    4.65758   4.67112   4.80144   4.81631   5.03512
 Alpha virt. eigenvalues --    5.04876   5.23306   5.24692   5.53348   5.54623
 Alpha virt. eigenvalues --    5.97133   5.98501   6.39610   6.40979   6.85390
 Alpha virt. eigenvalues --    6.86761   6.88879   6.90245   6.93811   6.95201
 Alpha virt. eigenvalues --    6.98324   6.99694   7.07154   7.08473   7.11915
 Alpha virt. eigenvalues --    7.13069   7.17491   7.18866   7.46390   7.47834
 Alpha virt. eigenvalues --    7.69562   7.70914   8.14297   8.15755  12.48255
 Alpha virt. eigenvalues --   12.50487
          Condensed to atoms (all electrons):
               1          2          3          4          5          6
     1  O    7.821369   0.346329   0.345481  -0.000004   0.000000   0.000002
     2  H    0.346329   0.429318  -0.036750   0.000352  -0.000012  -0.000024
     3  H    0.345481  -0.036750   0.439285  -0.000005   0.000000   0.000001
     4  O   -0.000004   0.000352  -0.000005   7.821356   0.347583   0.344672
     5  H    0.000000  -0.000012   0.000000   0.347583   0.429322  -0.036195
     6  H    0.000002  -0.000024   0.000001   0.344672  -0.036195   0.436494
 Mulliken charges:
               1
     1  O   -0.513176
     2  H    0.260787
     3  H    0.251989
     4  O   -0.513953
     5  H    0.259302
     6  H    0.255051
 Sum of Mulliken charges =   0.00000
 Mulliken charges with hydrogens summed into heavy atoms:
               1
     1  O   -0.000400
     4  O    0.000400
 Electronic spatial extent (au):  <R**2>=            532.7100
 Charge=             -0.0000 electrons
 Dipole moment (field-independent basis, Debye):
    X=             -2.4032    Y=             -3.0045    Z=             -0.0000  Tot=              3.8474
 Quadrupole moment (field-independent basis, Debye-Ang):
   XX=             -9.6803   YY=             -7.0617   ZZ=            -14.7147
   XY=             -4.0397   XZ=             -0.0000   YZ=             -0.0000
 Traceless Quadrupole moment (field-independent basis, Debye-Ang):
   XX=              0.8053   YY=              3.4239   ZZ=             -4.2292
   XY=             -4.0397   XZ=             -0.0000   YZ=             -0.0000
 Octapole moment (field-independent basis, Debye-Ang**2):
  XXX=             -3.3076  YYY=            -57.0856  ZZZ=             -0.0000  XYY=            -17.2495
  XXY=             -3.1418  XXZ=              0.0000  XZZ=             -0.3141  YZZ=             -0.4141
  YYZ=             -0.0000  XYZ=              0.0000
 Hexadecapole moment (field-independent basis, Debye-Ang**3):
 XXXX=            -11.3154 YYYY=           -404.6832 ZZZZ=            -11.3417 XXXY=              0.8379
 XXXZ=              0.0000 YYYX=            -60.5644 YYYZ=             -0.0000 ZZZX=              0.0000
 ZZZY=             -0.0000 XXYY=            -64.3388 XXZZ=             -4.4049 YYZZ=           -106.1605
 XXYZ=             -0.0000 YYXZ=             -0.0000 ZZXY=              0.7793
 N-N= 2.796595769719D+01 E-N=-4.173404685466D+02  KE= 1.518029882131D+02
 Symmetry A'   KE= 1.427669834435D+02
 Symmetry A"   KE= 9.036004769564D+00
 Leave Link  601 at Sat Aug 27 00:58:03 2022, MaxMem=   536870912 cpu:               0.2 elap:               0.0
 (Enter /usr/site/hpc/x86_64/glibc-2.17/broadwell/gaussian/g16_a.03/pgi-16.5/g16/l9999.exe)
 1\1\GINC-N004\SP\RCCSD(T)-FC\CC-pVTZ\H4O2\C7441284\27-Aug-2022\0\\#p C
 CSD(T)/cc-pVTZ\\H2O_H2O_4008\\0,1\O,0,0.,-0.009833,0.\H,0,-0.799571,-0
 .580965,0.\H,0,0.799571,-0.580965,0.\O,0,-4.262325,-3.049573,0.\H,0,-5
 .240341,-3.144402,0.\H,0,-3.855442,-3.943973,0.\\Version=ES64L-G16RevA
 .03\State=1-A'\HF=-152.1084137\MP2=-152.6342625\MP3=-152.6418221\MP4D=
 -152.6509178\MP4DQ=-152.6433714\MP4SDQ=-152.6464213\CCSD=-152.6458349\
 CCSD(T)=-152.6614549\RMSD=7.164e-09\PG=CS [SG(H4O2)]\\@


 BUT 'GLORY' DOESN'T MEAN 'A NICE KNOCK DOWN ARGUMENT', ALICE OBJECTED.
 WHEN I USE A WORD, HUMPTY DUMPTY SAID, IN A RATHER SCORNFUL TONE,
 IT MEANS JUST WHAT I CHOOSE IT TO MEAN....
 NEITHER MORE NOR LESS....
 THE QUESTION IS, SAID ALICE,
 WHETHER YOU CAN MAKE WORDS MEAN SO MANY DIFFERENT THINGS...
 THE QUESTION IS, SAID HUMPTY DUMPTY,
 WHICH IS TO BE MASTER....
 THAT IS ALL.....

 ALICE THROUGH THE LOOKING GLASS
 Job cpu time:       0 days  0 hours  1 minutes 17.0 seconds.
 Elapsed time:       0 days  0 hours  0 minutes 19.4 seconds.
 File lengths (MBytes):  RWF=    320 Int=      0 D2E=      0 Chk=      8 Scr=      8
 Normal termination of Gaussian 16 at Sat Aug 27 00:58:03 2022.
