 Entering Gaussian System, Link 0=g16
 Input=H2O_H2O_3842.com
 Output=H2O_H2O_3842.log
 Initial command:
 /usr/site/hpc/x86_64/glibc-2.17/broadwell/gaussian/g16_a.03/pgi-16.5/g16/l1.exe "/gpfs/gpfs1/scratch/c7441284/ForceFieldModel/FittingData2/Gau-592844.inp" -scrdir="/gpfs/gpfs1/scratch/c7441284/ForceFieldModel/FittingData2/"
 Entering Link 1 = /usr/site/hpc/x86_64/glibc-2.17/broadwell/gaussian/g16_a.03/pgi-16.5/g16/l1.exe PID=    592845.
  
 Copyright (c) 1988,1990,1992,1993,1995,1998,2003,2009,2016,
            Gaussian, Inc.  All Rights Reserved.
  
 This is part of the Gaussian(R) 16 program.  It is based on
 the Gaussian(R) 09 system (copyright 2009, Gaussian, Inc.),
 the Gaussian(R) 03 system (copyright 2003, Gaussian, Inc.),
 the Gaussian(R) 98 system (copyright 1998, Gaussian, Inc.),
 the Gaussian(R) 94 system (copyright 1995, Gaussian, Inc.),
 the Gaussian 92(TM) system (copyright 1992, Gaussian, Inc.),
 the Gaussian 90(TM) system (copyright 1990, Gaussian, Inc.),
 the Gaussian 88(TM) system (copyright 1988, Gaussian, Inc.),
 the Gaussian 86(TM) system (copyright 1986, Carnegie Mellon
 University), and the Gaussian 82(TM) system (copyright 1983,
 Carnegie Mellon University). Gaussian is a federally registered
 trademark of Gaussian, Inc.
  
 This software contains proprietary and confidential information,
 including trade secrets, belonging to Gaussian, Inc.
  
 This software is provided under written license and may be
 used, copied, transmitted, or stored only in accord with that
 written license.
  
 The following legend is applicable only to US Government
 contracts under FAR:
  
                    RESTRICTED RIGHTS LEGEND
  
 Use, reproduction and disclosure by the US Government is
 subject to restrictions as set forth in subparagraphs (a)
 and (c) of the Commercial Computer Software - Restricted
 Rights clause in FAR 52.227-19.
  
 Gaussian, Inc.
 340 Quinnipiac St., Bldg. 40, Wallingford CT 06492
  
  
 ---------------------------------------------------------------
 Warning -- This program may not be used in any manner that
 competes with the business of Gaussian, Inc. or will provide
 assistance to any competitor of Gaussian, Inc.  The licensee
 of this program is prohibited from giving any competitor of
 Gaussian, Inc. access to this program.  By using this program,
 the user acknowledges that Gaussian, Inc. is engaged in the
 business of creating and licensing software in the field of
 computational chemistry and represents and warrants to the
 licensee that it is not a competitor of Gaussian, Inc. and that
 it will not use this program in any manner prohibited above.
 ---------------------------------------------------------------
  

 Cite this work as:
 Gaussian 16, Revision A.03,
 M. J. Frisch, G. W. Trucks, H. B. Schlegel, G. E. Scuseria, 
 M. A. Robb, J. R. Cheeseman, G. Scalmani, V. Barone, 
 G. A. Petersson, H. Nakatsuji, X. Li, M. Caricato, A. V. Marenich, 
 J. Bloino, B. G. Janesko, R. Gomperts, B. Mennucci, H. P. Hratchian, 
 J. V. Ortiz, A. F. Izmaylov, J. L. Sonnenberg, D. Williams-Young, 
 F. Ding, F. Lipparini, F. Egidi, J. Goings, B. Peng, A. Petrone, 
 T. Henderson, D. Ranasinghe, V. G. Zakrzewski, J. Gao, N. Rega, 
 G. Zheng, W. Liang, M. Hada, M. Ehara, K. Toyota, R. Fukuda, 
 J. Hasegawa, M. Ishida, T. Nakajima, Y. Honda, O. Kitao, H. Nakai, 
 T. Vreven, K. Throssell, J. A. Montgomery, Jr., J. E. Peralta, 
 F. Ogliaro, M. J. Bearpark, J. J. Heyd, E. N. Brothers, K. N. Kudin, 
 V. N. Staroverov, T. A. Keith, R. Kobayashi, J. Normand, 
 K. Raghavachari, A. P. Rendell, J. C. Burant, S. S. Iyengar, 
 J. Tomasi, M. Cossi, J. M. Millam, M. Klene, C. Adamo, R. Cammi, 
 J. W. Ochterski, R. L. Martin, K. Morokuma, O. Farkas, 
 J. B. Foresman, and D. J. Fox, Gaussian, Inc., Wallingford CT, 2016.
 
 ******************************************
 Gaussian 16:  ES64L-G16RevA.03 25-Dec-2016
                26-Aug-2022 
 ******************************************
 %NProcShared=4
 Will use up to    4 processors via shared memory.
 %Mem=4GB
 %Chk=H2O_H2O_3842.chk
 ------------------
 #p CCSD(T)/cc-pVTZ
 ------------------
 1/38=1,172=1/1;
 2/12=2,17=6,18=5,40=1/2;
 3/5=16,6=1,11=9,25=1,30=1/1,2,3;
 4//1;
 5/5=2,38=5/2;
 8/6=4,9=120000,10=1/1,4;
 9/5=7,14=2/13;
 6/7=2,8=2,9=2,10=2/1;
 99/5=1,9=1/99;
 Leave Link    1 at Fri Aug 26 23:59:25 2022, MaxMem=   536870912 cpu:               1.8 elap:               0.6
 (Enter /usr/site/hpc/x86_64/glibc-2.17/broadwell/gaussian/g16_a.03/pgi-16.5/g16/l101.exe)
 ------------
 H2O_H2O_3842
 ------------
 Symbolic Z-matrix:
 Charge =  0 Multiplicity = 1
 O                     0.       -0.00983   0. 
 H                    -0.79957  -0.58097   0. 
 H                     0.79957  -0.58097   0. 
 O                    -4.15263  -2.96426   0. 
 H                    -5.0185   -2.49975   0. 
 H                    -4.31122  -3.93398   0. 
 
 ITRead=  0  0  0  0  0  0
 MicOpt= -1 -1 -1 -1 -1 -1
 NAtoms=      6 NQM=        6 NQMF=       0 NMMI=      0 NMMIF=      0
                NMic=       0 NMicF=      0.
                    Isotopes and Nuclear Properties:
 (Nuclear quadrupole moments (NQMom) in fm**2, nuclear magnetic moments (NMagM)
  in nuclear magnetons)

  Atom         1           2           3           4           5           6
 IAtWgt=          16           1           1          16           1           1
 AtmWgt=  15.9949146   1.0078250   1.0078250  15.9949146   1.0078250   1.0078250
 NucSpn=           0           1           1           0           1           1
 AtZEff=  -0.0000000  -0.0000000  -0.0000000  -0.0000000  -0.0000000  -0.0000000
 NQMom=    0.0000000   0.0000000   0.0000000   0.0000000   0.0000000   0.0000000
 NMagM=    0.0000000   2.7928460   2.7928460   0.0000000   2.7928460   2.7928460
 AtZNuc=   8.0000000   1.0000000   1.0000000   8.0000000   1.0000000   1.0000000
 Leave Link  101 at Fri Aug 26 23:59:25 2022, MaxMem=   536870912 cpu:               0.3 elap:               0.1
 (Enter /usr/site/hpc/x86_64/glibc-2.17/broadwell/gaussian/g16_a.03/pgi-16.5/g16/l202.exe)
                          Input orientation:                          
 ---------------------------------------------------------------------
 Center     Atomic      Atomic             Coordinates (Angstroms)
 Number     Number       Type             X           Y           Z
 ---------------------------------------------------------------------
      1          8           0        0.000000   -0.009833    0.000000
      2          1           0       -0.799571   -0.580965    0.000000
      3          1           0        0.799571   -0.580965    0.000000
      4          8           0       -4.152626   -2.964261    0.000000
      5          1           0       -5.018500   -2.499752    0.000000
      6          1           0       -4.311217   -3.933980    0.000000
 ---------------------------------------------------------------------
                    Distance matrix (angstroms):
                    1          2          3          4          5
     1  O    0.000000
     2  H    0.982601   0.000000
     3  H    0.982601   1.599142   0.000000
     4  O    5.096366   4.113767   5.495849   0.000000
     5  H    5.602235   4.634771   6.126312   0.982602   0.000000
     6  H    5.829710   4.855344   6.112517   0.982602   1.599143
                    6
     6  H    0.000000
 Stoichiometry    H4O2
 Framework group  CS[SG(H4O2)]
 Deg. of freedom     9
 Full point group                 CS      NOp   2
 Largest Abelian subgroup         CS      NOp   2
 Largest concise Abelian subgroup C1      NOp   1
                         Standard orientation:                         
 ---------------------------------------------------------------------
 Center     Atomic      Atomic             Coordinates (Angstroms)
 Number     Number       Type             X           Y           Z
 ---------------------------------------------------------------------
      1          8           0        0.037425    2.637674    0.000000
      2          1           0        0.035576    1.655074    0.000000
      3          1           0       -0.891467    2.958089   -0.000000
      4          8           0        0.037425   -2.458692    0.000000
      5          1           0        0.917875   -2.894943    0.000000
      6          1           0       -0.660785   -3.150074   -0.000000
 ---------------------------------------------------------------------
 Rotational constants (GHZ):         242.2997226           2.1235774           2.1051275
 Leave Link  202 at Fri Aug 26 23:59:25 2022, MaxMem=   536870912 cpu:               0.0 elap:               0.0
 (Enter /usr/site/hpc/x86_64/glibc-2.17/broadwell/gaussian/g16_a.03/pgi-16.5/g16/l301.exe)
 Standard basis: CC-pVTZ (5D, 7F)
 Ernie: Thresh=  0.10000D-02 Tol=  0.10000D-05 Strict=F.
 Ernie:  6 primitive shells out of 84 were deleted.
 There are    92 symmetry adapted cartesian basis functions of A'  symmetry.
 There are    38 symmetry adapted cartesian basis functions of A"  symmetry.
 There are    80 symmetry adapted basis functions of A'  symmetry.
 There are    36 symmetry adapted basis functions of A"  symmetry.
   116 basis functions,   172 primitive gaussians,   130 cartesian basis functions
    10 alpha electrons       10 beta electrons
       nuclear repulsion energy        28.2180620988 Hartrees.
 IExCor=    0 DFT=F Ex=HF Corr=None ExCW=0 ScaHFX=  1.000000
 ScaDFX=  1.000000  1.000000  1.000000  1.000000 ScalE2=  1.000000  1.000000
 IRadAn=      5 IRanWt=     -1 IRanGd=            0 ICorTp=0 IEmpDi=  4
 NAtoms=    6 NActive=    6 NUniq=    6 SFac= 1.00D+00 NAtFMM=   60 NAOKFM=F Big=F
 Integral buffers will be    131072 words long.
 Raffenetti 1 integral format.
 Two-electron integral symmetry is turned on.
 Leave Link  301 at Fri Aug 26 23:59:25 2022, MaxMem=   536870912 cpu:               0.2 elap:               0.1
 (Enter /usr/site/hpc/x86_64/glibc-2.17/broadwell/gaussian/g16_a.03/pgi-16.5/g16/l302.exe)
 NPDir=0 NMtPBC=     1 NCelOv=     1 NCel=       1 NClECP=     1 NCelD=      1
         NCelK=      1 NCelE2=     1 NClLst=     1 CellRange=     0.0.
 One-electron integrals computed using PRISM.
 One-electron integral symmetry used in STVInt
 NBasis=   116 RedAO= T EigKep=  2.62D-03  NBF=    80    36
 NBsUse=   116 1.00D-06 EigRej= -1.00D+00 NBFU=    80    36
 Leave Link  302 at Fri Aug 26 23:59:26 2022, MaxMem=   536870912 cpu:               0.4 elap:               0.1
 (Enter /usr/site/hpc/x86_64/glibc-2.17/broadwell/gaussian/g16_a.03/pgi-16.5/g16/l303.exe)
 DipDrv:  MaxL=1.
 Leave Link  303 at Fri Aug 26 23:59:26 2022, MaxMem=   536870912 cpu:               0.1 elap:               0.0
 (Enter /usr/site/hpc/x86_64/glibc-2.17/broadwell/gaussian/g16_a.03/pgi-16.5/g16/l401.exe)
 ExpMin= 1.03D-01 ExpMax= 1.53D+04 ExpMxC= 5.22D+02 IAcc=3 IRadAn=         5 AccDes= 0.00D+00
 Harris functional with IExCor=  205 and IRadAn=       5 diagonalized for initial guess.
 HarFok:  IExCor=  205 AccDes= 0.00D+00 IRadAn=         5 IDoV= 1 UseB2=F ITyADJ=14
 ICtDFT=  3500011 ScaDFX=  1.000000  1.000000  1.000000  1.000000
 FoFCou: FMM=F IPFlag=           0 FMFlag=      100000 FMFlg1=           0
         NFxFlg=           0 DoJE=T BraDBF=F KetDBF=T FulRan=T
         wScrn=  0.000000 ICntrl=       500 IOpCl=  0 I1Cent=   200000004 NGrid=           0
         NMat0=    1 NMatS0=      1 NMatT0=    0 NMatD0=    1 NMtDS0=    0 NMtDT0=    0
 Petite list used in FoFCou.
 Harris En= -152.298729889465    
 JPrj=0 DoOrth=F DoCkMO=F.
 Initial guess orbital symmetries:
       Occupied  (A') (A') (A') (A') (A') (A') (A') (A') (A") (A")
       Virtual   (A') (A') (A') (A') (A') (A') (A') (A') (A') (A')
                 (A") (A") (A') (A') (A') (A") (A") (A') (A") (A")
                 (A') (A') (A') (A') (A') (A') (A') (A') (A") (A")
                 (A") (A") (A') (A') (A') (A') (A') (A') (A') (A')
                 (A') (A') (A") (A") (A') (A') (A") (A") (A") (A")
                 (A') (A') (A') (A') (A') (A') (A") (A") (A') (A')
                 (A') (A') (A") (A") (A") (A") (A') (A') (A') (A')
                 (A") (A") (A') (A') (A') (A') (A') (A') (A') (A')
                 (A") (A") (A') (A') (A") (A") (A") (A") (A') (A')
                 (A") (A") (A') (A') (A') (A') (A") (A") (A') (A')
                 (A') (A') (A') (A') (A') (A')
 The electronic state of the initial guess is 1-A'.
 Leave Link  401 at Fri Aug 26 23:59:26 2022, MaxMem=   536870912 cpu:               0.7 elap:               0.2
 (Enter /usr/site/hpc/x86_64/glibc-2.17/broadwell/gaussian/g16_a.03/pgi-16.5/g16/l502.exe)
 Keep R1 ints in memory in symmetry-blocked form, NReq=34823457.
 FoFCou: FMM=F IPFlag=           0 FMFlag=           0 FMFlg1=           0
         NFxFlg=           0 DoJE=F BraDBF=F KetDBF=F FulRan=T
         wScrn=  0.000000 ICntrl=       600 IOpCl=  0 I1Cent=           0 NGrid=           0
         NMat0=    1 NMatS0=   6786 NMatT0=    0 NMatD0=    1 NMtDS0=    0 NMtDT0=    0
 Petite list used in FoFCou.
 Closed shell SCF:
 Using DIIS extrapolation, IDIIS=  1040.
 NGot=   536870912 LenX=   525040673 LenY=   525023332
 Requested convergence on RMS density matrix=1.00D-08 within 128 cycles.
 Requested convergence on MAX density matrix=1.00D-06.
 Requested convergence on             energy=1.00D-06.
 No special actions if energy rises.

 Cycle   1  Pass 1  IDiag  1:
 E= -151.929868383695    
 DIIS: error= 6.59D-02 at cycle   1 NSaved=   1.
 NSaved= 1 IEnMin= 1 EnMin= -151.929868383695     IErMin= 1 ErrMin= 6.59D-02
 ErrMax= 6.59D-02  0.00D+00 EMaxC= 1.00D-01 BMatC= 3.99D-01 BMatP= 3.99D-01
 IDIUse=3 WtCom= 3.41D-01 WtEn= 6.59D-01
 Coeff-Com:  0.100D+01
 Coeff-En:   0.100D+01
 Coeff:      0.100D+01
 Gap=     0.511 Goal=   None    Shift=    0.000
 GapD=    0.511 DampG=2.000 DampE=0.500 DampFc=1.0000 IDamp=-1.
 RMSDP=2.50D-03 MaxDP=6.71D-02              OVMax= 1.26D-01

 Cycle   2  Pass 1  IDiag  1:
 E= -152.041100031348     Delta-E=       -0.111231647652 Rises=F Damp=F
 DIIS: error= 4.13D-02 at cycle   2 NSaved=   2.
 NSaved= 2 IEnMin= 2 EnMin= -152.041100031348     IErMin= 2 ErrMin= 4.13D-02
 ErrMax= 4.13D-02  0.00D+00 EMaxC= 1.00D-01 BMatC= 1.12D-01 BMatP= 3.99D-01
 IDIUse=3 WtCom= 5.87D-01 WtEn= 4.13D-01
 Coeff-Com:  0.319D+00 0.681D+00
 Coeff-En:   0.165D+00 0.835D+00
 Coeff:      0.255D+00 0.745D+00
 Gap=     0.646 Goal=   None    Shift=    0.000
 RMSDP=1.32D-03 MaxDP=3.97D-02 DE=-1.11D-01 OVMax= 5.70D-02

 Cycle   3  Pass 1  IDiag  1:
 E= -152.105175442716     Delta-E=       -0.064075411368 Rises=F Damp=F
 DIIS: error= 8.97D-03 at cycle   3 NSaved=   3.
 NSaved= 3 IEnMin= 3 EnMin= -152.105175442716     IErMin= 3 ErrMin= 8.97D-03
 ErrMax= 8.97D-03  0.00D+00 EMaxC= 1.00D-01 BMatC= 5.95D-03 BMatP= 1.12D-01
 IDIUse=3 WtCom= 9.10D-01 WtEn= 8.97D-02
 Coeff-Com: -0.303D-01 0.156D+00 0.874D+00
 Coeff-En:   0.000D+00 0.000D+00 0.100D+01
 Coeff:     -0.276D-01 0.142D+00 0.886D+00
 Gap=     0.618 Goal=   None    Shift=    0.000
 RMSDP=2.42D-04 MaxDP=5.74D-03 DE=-6.41D-02 OVMax= 1.33D-02

 Cycle   4  Pass 1  IDiag  1:
 E= -152.108872447499     Delta-E=       -0.003697004783 Rises=F Damp=F
 DIIS: error= 8.49D-04 at cycle   4 NSaved=   4.
 NSaved= 4 IEnMin= 4 EnMin= -152.108872447499     IErMin= 4 ErrMin= 8.49D-04
 ErrMax= 8.49D-04  0.00D+00 EMaxC= 1.00D-01 BMatC= 3.66D-05 BMatP= 5.95D-03
 IDIUse=3 WtCom= 9.92D-01 WtEn= 8.49D-03
 Coeff-Com:  0.678D-02-0.611D-01-0.238D+00 0.129D+01
 Coeff-En:   0.000D+00 0.000D+00 0.000D+00 0.100D+01
 Coeff:      0.672D-02-0.606D-01-0.236D+00 0.129D+01
 Gap=     0.621 Goal=   None    Shift=    0.000
 RMSDP=5.16D-05 MaxDP=1.03D-03 DE=-3.70D-03 OVMax= 2.19D-03

 Cycle   5  Pass 1  IDiag  1:
 E= -152.108921499037     Delta-E=       -0.000049051538 Rises=F Damp=F
 DIIS: error= 1.92D-04 at cycle   5 NSaved=   5.
 NSaved= 5 IEnMin= 5 EnMin= -152.108921499037     IErMin= 5 ErrMin= 1.92D-04
 ErrMax= 1.92D-04  0.00D+00 EMaxC= 1.00D-01 BMatC= 1.33D-06 BMatP= 3.66D-05
 IDIUse=3 WtCom= 9.98D-01 WtEn= 1.92D-03
 Coeff-Com:  0.517D-03 0.623D-03-0.226D-02-0.226D+00 0.123D+01
 Coeff-En:   0.000D+00 0.000D+00 0.000D+00 0.000D+00 0.100D+01
 Coeff:      0.516D-03 0.622D-03-0.226D-02-0.225D+00 0.123D+01
 Gap=     0.622 Goal=   None    Shift=    0.000
 RMSDP=1.43D-05 MaxDP=2.99D-04 DE=-4.91D-05 OVMax= 6.87D-04

 Cycle   6  Pass 1  IDiag  1:
 E= -152.108924285232     Delta-E=       -0.000002786196 Rises=F Damp=F
 DIIS: error= 2.75D-05 at cycle   6 NSaved=   6.
 NSaved= 6 IEnMin= 6 EnMin= -152.108924285232     IErMin= 6 ErrMin= 2.75D-05
 ErrMax= 2.75D-05  0.00D+00 EMaxC= 1.00D-01 BMatC= 3.45D-08 BMatP= 1.33D-06
 IDIUse=1 WtCom= 1.00D+00 WtEn= 0.00D+00
 Coeff-Com: -0.241D-03 0.155D-02 0.644D-02-0.783D-02-0.200D+00 0.120D+01
 Coeff:     -0.241D-03 0.155D-02 0.644D-02-0.783D-02-0.200D+00 0.120D+01
 Gap=     0.622 Goal=   None    Shift=    0.000
 RMSDP=2.89D-06 MaxDP=6.87D-05 DE=-2.79D-06 OVMax= 1.53D-04

 Cycle   7  Pass 1  IDiag  1:
 E= -152.108924376364     Delta-E=       -0.000000091132 Rises=F Damp=F
 DIIS: error= 6.23D-06 at cycle   7 NSaved=   7.
 NSaved= 7 IEnMin= 7 EnMin= -152.108924376364     IErMin= 7 ErrMin= 6.23D-06
 ErrMax= 6.23D-06  0.00D+00 EMaxC= 1.00D-01 BMatC= 3.92D-09 BMatP= 3.45D-08
 IDIUse=1 WtCom= 1.00D+00 WtEn= 0.00D+00
 Coeff-Com: -0.650D-04 0.161D-03 0.854D-03 0.142D-01-0.108D+00 0.203D+00
 Coeff-Com:  0.890D+00
 Coeff:     -0.650D-04 0.161D-03 0.854D-03 0.142D-01-0.108D+00 0.203D+00
 Coeff:      0.890D+00
 Gap=     0.622 Goal=   None    Shift=    0.000
 RMSDP=4.53D-07 MaxDP=1.40D-05 DE=-9.11D-08 OVMax= 3.34D-05

 Cycle   8  Pass 1  IDiag  1:
 E= -152.108924381356     Delta-E=       -0.000000004993 Rises=F Damp=F
 DIIS: error= 2.26D-06 at cycle   8 NSaved=   8.
 NSaved= 8 IEnMin= 8 EnMin= -152.108924381356     IErMin= 8 ErrMin= 2.26D-06
 ErrMax= 2.26D-06  0.00D+00 EMaxC= 1.00D-01 BMatC= 4.90D-10 BMatP= 3.92D-09
 IDIUse=1 WtCom= 1.00D+00 WtEn= 0.00D+00
 Coeff-Com:  0.255D-04-0.212D-03-0.858D-03 0.381D-02 0.127D-01-0.140D+00
 Coeff-Com:  0.125D+00 0.100D+01
 Coeff:      0.255D-04-0.212D-03-0.858D-03 0.381D-02 0.127D-01-0.140D+00
 Coeff:      0.125D+00 0.100D+01
 Gap=     0.622 Goal=   None    Shift=    0.000
 RMSDP=1.68D-07 MaxDP=3.93D-06 DE=-4.99D-09 OVMax= 1.27D-05

 Cycle   9  Pass 1  IDiag  1:
 E= -152.108924382106     Delta-E=       -0.000000000750 Rises=F Damp=F
 DIIS: error= 8.96D-07 at cycle   9 NSaved=   9.
 NSaved= 9 IEnMin= 9 EnMin= -152.108924382106     IErMin= 9 ErrMin= 8.96D-07
 ErrMax= 8.96D-07  0.00D+00 EMaxC= 1.00D-01 BMatC= 2.54D-11 BMatP= 4.90D-10
 IDIUse=1 WtCom= 1.00D+00 WtEn= 0.00D+00
 Coeff-Com:  0.781D-06 0.306D-04 0.126D-03-0.244D-02 0.850D-02 0.806D-02
 Coeff-Com: -0.100D+00-0.183D+00 0.127D+01
 Coeff:      0.781D-06 0.306D-04 0.126D-03-0.244D-02 0.850D-02 0.806D-02
 Coeff:     -0.100D+00-0.183D+00 0.127D+01
 Gap=     0.622 Goal=   None    Shift=    0.000
 RMSDP=5.59D-08 MaxDP=1.06D-06 DE=-7.50D-10 OVMax= 3.04D-06

 Cycle  10  Pass 1  IDiag  1:
 E= -152.108924382158     Delta-E=       -0.000000000052 Rises=F Damp=F
 DIIS: error= 9.88D-08 at cycle  10 NSaved=  10.
 NSaved=10 IEnMin=10 EnMin= -152.108924382158     IErMin=10 ErrMin= 9.88D-08
 ErrMax= 9.88D-08  0.00D+00 EMaxC= 1.00D-01 BMatC= 4.17D-13 BMatP= 2.54D-11
 IDIUse=1 WtCom= 1.00D+00 WtEn= 0.00D+00
 Coeff-Com: -0.580D-06-0.414D-05-0.194D-04 0.537D-03-0.200D-02-0.140D-02
 Coeff-Com:  0.265D-01 0.405D-01-0.388D+00 0.132D+01
 Coeff:     -0.580D-06-0.414D-05-0.194D-04 0.537D-03-0.200D-02-0.140D-02
 Coeff:      0.265D-01 0.405D-01-0.388D+00 0.132D+01
 Gap=     0.622 Goal=   None    Shift=    0.000
 RMSDP=7.05D-09 MaxDP=1.89D-07 DE=-5.22D-11 OVMax= 4.06D-07

 SCF Done:  E(RHF) =  -152.108924382     A.U. after   10 cycles
            NFock= 10  Conv=0.71D-08     -V/T= 2.0020
 KE= 1.518020344499D+02 PE=-4.178560967640D+02 EE= 8.572707583313D+01
 Leave Link  502 at Fri Aug 26 23:59:27 2022, MaxMem=   536870912 cpu:               3.6 elap:               1.0
 (Enter /usr/site/hpc/x86_64/glibc-2.17/broadwell/gaussian/g16_a.03/pgi-16.5/g16/l801.exe)
 Windowed orbitals will be sorted by symmetry type.
 ExpMin= 1.03D-01 ExpMax= 1.53D+04 ExpMxC= 5.22D+02 IAcc=3 IRadAn=         5 AccDes= 0.00D+00
 HarFok:  IExCor=  205 AccDes= 0.00D+00 IRadAn=         5 IDoV=-2 UseB2=F ITyADJ=14
 ICtDFT= 12500011 ScaDFX=  1.000000  1.000000  1.000000  1.000000
 Largest valence mixing into a core orbital is  1.12D-04
 Largest core mixing into a valence orbital is  1.76D-05
 Range of M.O.s used for correlation:     3   116
 NBasis=   116 NAE=    10 NBE=    10 NFC=     2 NFV=     0
 NROrb=    114 NOA=     8 NOB=     8 NVA=   106 NVB=   106
 Leave Link  801 at Fri Aug 26 23:59:27 2022, MaxMem=   536870912 cpu:               0.3 elap:               0.1
 (Enter /usr/site/hpc/x86_64/glibc-2.17/broadwell/gaussian/g16_a.03/pgi-16.5/g16/l804.exe)
 Closed-shell transformation, MDV=   536870912 ITran=4 ISComp=2.
 Unit  1 TFree=        834515 TCopy=        406125.
 Semi-Direct transformation.
 ModeAB=           4 MOrb=             8 LenV=     536376160
 LASXX=      2873146 LTotXX=     2873146 LenRXX=     5831278
 LTotAB=     2958132 MaxLAS=     5552256 LenRXY=           0
 NonZer=     8704424 LenScr=    13107200 LnRSAI=     5552256
 LnScr1=     8388608 LExtra=           0 Total=     32879342
 MaxDsk=          -1 SrtSym=           T ITran=            4
 DoSDTr:  NPSUse=  4
 JobTyp=0 Pass  1:  I=   1 to   8.
 (rs|ai) integrals will be sorted in core.
 Complete sort for first half transformation.
 First half transformation complete.
 Complete sort for second half transformation.
 Second half transformation complete.
 Spin components of T(2) and E(2):
     alpha-alpha T2 =       0.1555436576D-01 E2=     -0.6380546293D-01
     alpha-beta  T2 =       0.9183671096D-01 E2=     -0.3982113229D+00
     beta-beta   T2 =       0.1555436576D-01 E2=     -0.6380546293D-01
 ANorm=    0.1059691201D+01
 E2 =    -0.5258222487D+00 EUMP2 =    -0.15263474663090D+03
 Leave Link  804 at Fri Aug 26 23:59:28 2022, MaxMem=   536870912 cpu:               3.0 elap:               0.8
 (Enter /usr/site/hpc/x86_64/glibc-2.17/broadwell/gaussian/g16_a.03/pgi-16.5/g16/l913.exe)
 CIDS:  MDV=   536870912.
 Frozen-core window:  NFC=   2 NFV=   0.
 IFCWin=0 IBDFC=1 NFBD=     0     0 NFCmp=     0     0 NFFFC=     0     0
 Using DD3R+UMP44R for 1st iteration.
 Using DD4RQ for 2nd and later iterations.
 Keep R2 and R3 ints in memory in symmetry-blocked form, NReq=35357534.
 FoFCou: FMM=F IPFlag=           0 FMFlag=           0 FMFlg1=           0
         NFxFlg=           0 DoJE=F BraDBF=F KetDBF=F FulRan=T
         wScrn=  0.000000 ICntrl=       600 IOpCl=  0 I1Cent=           0 NGrid=           0
         NMat0=    1 NMatS0=   6786 NMatT0=    0 NMatD0=    1 NMtDS0=    0 NMtDT0=    0
 Petite list used in FoFCou.
 CIDS: In Core Option IDoMem=           1.
 CCSD(T)
 =======
 Iterations=  50 Convergence= 0.100D-06
 Produce multiple copies of IABC intergrals
 Iteration Nr.   1
 **********************
 DD1Dir will call FoFMem   1 times, MxPair=        72
 NAB=    36 NAA=     0 NBB=     0.
 MP4(R+Q)=  0.75421466D-02
 Maximum subspace dimension=  5
 A-vector RMS=  1.7379476D-03 Max=  6.1777753D-03 conv= 1.00D-05.
 RLE energy=       -0.5257640847
 E3=       -0.75546363D-02        EUMP3=      -0.15264230127D+03
 E4(DQ)=   -0.15490061D-02        UMP4(DQ)=   -0.15264385027D+03
 E4(SDQ)=  -0.45958628D-02        UMP4(SDQ)=  -0.15264689713D+03
 VARIATIONAL ENERGIES WITH THE FIRST-ORDER WAVEFUNCTION:
 DE(Corr)= -0.52576409     E(Corr)=     -152.63468847    
 NORM(A)=   0.10600538D+01
 Iteration Nr.   2
 **********************
 DD1Dir will call FoFMem   1 times, MxPair=        72
 NAB=    36 NAA=     0 NBB=     0.
 A-vector RMS=  2.1283371D-04 Max=  2.3182019D-03 conv= 1.00D-05.
 RLE energy=       -0.5368046065
 DE(Corr)= -0.53564653     E(CORR)=     -152.64457091     Delta=-9.88D-03
 NORM(A)=   0.10637908D+01
 Iteration Nr.   3
 **********************
 DD1Dir will call FoFMem   1 times, MxPair=        72
 NAB=    36 NAA=     0 NBB=     0.
 A-vector RMS=  1.4001881D-04 Max=  8.2123449D-04 conv= 1.00D-05.
 RLE energy=       -0.5372991485
 DE(Corr)= -0.53671530     E(CORR)=     -152.64563968     Delta=-1.07D-03
 NORM(A)=   0.10644257D+01
 Iteration Nr.   4
 **********************
 DD1Dir will call FoFMem   1 times, MxPair=        72
 NAB=    36 NAA=     0 NBB=     0.
 A-vector RMS=  2.6192252D-05 Max=  1.3916302D-04 conv= 1.00D-05.
 RLE energy=       -0.5373820205
 DE(Corr)= -0.53734689     E(CORR)=     -152.64627127     Delta=-6.32D-04
 NORM(A)=   0.10645355D+01
 Iteration Nr.   5
 **********************
 DD1Dir will call FoFMem   1 times, MxPair=        72
 NAB=    36 NAA=     0 NBB=     0.
 A-vector RMS=  1.8448263D-05 Max=  1.5150267D-04 conv= 1.00D-05.
 RLE energy=       -0.5373903467
 DE(Corr)= -0.53738366     E(CORR)=     -152.64630804     Delta=-3.68D-05
 NORM(A)=   0.10645447D+01
 Iteration Nr.   6
 **********************
 DD1Dir will call FoFMem   1 times, MxPair=        72
 NAB=    36 NAA=     0 NBB=     0.
 A-vector RMS=  5.5441474D-06 Max=  4.4020753D-05 conv= 1.00D-05.
 RLE energy=       -0.5373813984
 DE(Corr)= -0.53738681     E(CORR)=     -152.64631119     Delta=-3.15D-06
 NORM(A)=   0.10645448D+01
 Iteration Nr.   7
 **********************
 DD1Dir will call FoFMem   1 times, MxPair=        72
 NAB=    36 NAA=     0 NBB=     0.
 A-vector RMS=  2.6383841D-06 Max=  2.1579952D-05 conv= 1.00D-05.
 RLE energy=       -0.5373877787
 DE(Corr)= -0.53738696     E(CORR)=     -152.64631135     Delta=-1.54D-07
 NORM(A)=   0.10645470D+01
 Iteration Nr.   8
 **********************
 DD1Dir will call FoFMem   1 times, MxPair=        72
 NAB=    36 NAA=     0 NBB=     0.
 A-vector RMS=  6.3341511D-07 Max=  5.5871189D-06 conv= 1.00D-05.
 RLE energy=       -0.5373863699
 DE(Corr)= -0.53738654     E(CORR)=     -152.64631092     Delta= 4.28D-07
 NORM(A)=   0.10645471D+01
 Iteration Nr.   9
 **********************
 DD1Dir will call FoFMem   1 times, MxPair=        72
 NAB=    36 NAA=     0 NBB=     0.
 A-vector RMS=  1.5757914D-07 Max=  1.2835783D-06 conv= 1.00D-05.
 RLE energy=       -0.5373867045
 DE(Corr)= -0.53738677     E(CORR)=     -152.64631115     Delta=-2.31D-07
 NORM(A)=   0.10645474D+01
 Iteration Nr.  10
 **********************
 DD1Dir will call FoFMem   1 times, MxPair=        72
 NAB=    36 NAA=     0 NBB=     0.
 A-vector RMS=  5.8313826D-08 Max=  5.2906894D-07 conv= 1.00D-05.
 RLE energy=       -0.5373868157
 DE(Corr)= -0.53738679     E(CORR)=     -152.64631117     Delta=-2.17D-08
 NORM(A)=   0.10645474D+01
 CI/CC converged in   10 iterations to DelEn=-2.17D-08 Conv= 1.00D-07 ErrA1= 5.83D-08 Conv= 1.00D-05
 Wavefunction amplitudes converged. E(Corr)=     -152.64631117    
 Largest amplitude= 4.80D-02
 IPart=  2 IA=    7   11.05% done.
 IPart=  1 IA=   13   21.46% done.
 IPart=  4 IA=   19   31.21% done.
 IPart=  2 IA=   25   40.32% done.
 IPart=  2 IA=   32   50.13% done.
 IPart=  1 IA=   40   60.27% done.
 IPart=  2 IA=   49   70.30% done.
 IPart=  4 IA=   60   80.58% done.
 IPart=  4 IA=   74   90.51% done.
 Time for triples=       61.60 seconds.
 T4(CCSD)= -0.16015964D-01
 T5(CCSD)=  0.40100200D-03
 CCSD(T)= -0.15266192613D+03
 Discarding MO integrals.
 Leave Link  913 at Fri Aug 26 23:59:50 2022, MaxMem=   536870912 cpu:              84.5 elap:              22.4
 (Enter /usr/site/hpc/x86_64/glibc-2.17/broadwell/gaussian/g16_a.03/pgi-16.5/g16/l601.exe)
 Copying SCF densities to generalized density rwf, IOpCl= 0 IROHF=0.

 **********************************************************************

            Population analysis using the SCF density.

 **********************************************************************

 Orbital symmetries:
       Occupied  (A') (A') (A') (A') (A') (A') (A') (A') (A") (A")
       Virtual   (A') (A') (A') (A') (A') (A') (A') (A') (A') (A')
                 (A") (A') (A") (A') (A') (A") (A") (A') (A") (A")
                 (A') (A') (A') (A') (A') (A') (A') (A') (A") (A")
                 (A") (A") (A') (A') (A') (A') (A') (A') (A') (A')
                 (A') (A') (A") (A") (A') (A') (A") (A") (A') (A')
                 (A") (A") (A') (A') (A') (A') (A") (A") (A") (A")
                 (A') (A') (A') (A') (A") (A") (A') (A') (A') (A')
                 (A") (A") (A') (A') (A') (A') (A') (A') (A') (A')
                 (A") (A") (A') (A') (A") (A") (A") (A") (A') (A')
                 (A") (A") (A') (A') (A') (A') (A") (A") (A') (A')
                 (A') (A') (A') (A') (A') (A')
 The electronic state is 1-A'.
 Alpha  occ. eigenvalues --  -20.56331 -20.54773  -1.33627  -1.32085  -0.71029
 Alpha  occ. eigenvalues --   -0.69485  -0.57139  -0.55565  -0.50749  -0.49213
 Alpha virt. eigenvalues --    0.12978   0.15306   0.19594   0.21478   0.53481
 Alpha virt. eigenvalues --    0.54993   0.56571   0.57865   0.66713   0.69185
 Alpha virt. eigenvalues --    0.78147   0.79188   0.79632   0.79791   0.82931
 Alpha virt. eigenvalues --    0.84125   0.85628   0.85764   0.96490   0.98015
 Alpha virt. eigenvalues --    1.13866   1.15821   1.16642   1.17971   1.50972
 Alpha virt. eigenvalues --    1.51266   1.52549   1.53120   1.99857   2.01401
 Alpha virt. eigenvalues --    2.05939   2.07473   2.08618   2.10133   2.14140
 Alpha virt. eigenvalues --    2.15603   2.24841   2.25937   2.60726   2.62501
 Alpha virt. eigenvalues --    2.92072   2.94146   3.38608   3.40142   3.49170
 Alpha virt. eigenvalues --    3.50707   3.52378   3.53909   3.58753   3.60341
 Alpha virt. eigenvalues --    3.77873   3.79415   3.84650   3.86137   3.87185
 Alpha virt. eigenvalues --    3.88432   3.92825   3.94355   4.02272   4.03817
 Alpha virt. eigenvalues --    4.07417   4.09055   4.14484   4.16142   4.29343
 Alpha virt. eigenvalues --    4.30894   4.39204   4.40668   4.44824   4.46378
 Alpha virt. eigenvalues --    4.65734   4.67267   4.80121   4.81744   5.03511
 Alpha virt. eigenvalues --    5.05043   5.23275   5.24845   5.53250   5.54769
 Alpha virt. eigenvalues --    5.97095   5.98651   6.39580   6.41141   6.85359
 Alpha virt. eigenvalues --    6.86910   6.88852   6.90397   6.93788   6.95358
 Alpha virt. eigenvalues --    6.98283   6.99838   7.07077   7.08616   7.12007
 Alpha virt. eigenvalues --    7.13220   7.17453   7.19008   7.46359   7.48011
 Alpha virt. eigenvalues --    7.69481   7.71053   8.14259   8.15896  12.47863
 Alpha virt. eigenvalues --   12.51196
          Condensed to atoms (all electrons):
               1          2          3          4          5          6
     1  O    7.823799   0.346201   0.345983  -0.000008   0.000001   0.000001
     2  H    0.346201   0.428171  -0.036850   0.000582  -0.000029  -0.000022
     3  H    0.345983  -0.036850   0.437504  -0.000010   0.000001   0.000001
     4  O   -0.000008   0.000582  -0.000010   7.823494   0.346079   0.345838
     5  H    0.000001  -0.000029   0.000001   0.346079   0.431044  -0.036056
     6  H    0.000001  -0.000022   0.000001   0.345838  -0.036056   0.432567
 Mulliken charges:
               1
     1  O   -0.515976
     2  H    0.261946
     3  H    0.253372
     4  O   -0.515975
     5  H    0.258960
     6  H    0.257672
 Sum of Mulliken charges =  -0.00000
 Mulliken charges with hydrogens summed into heavy atoms:
               1
     1  O   -0.000657
     4  O    0.000657
 Electronic spatial extent (au):  <R**2>=            508.0841
 Charge=             -0.0000 electrons
 Dipole moment (field-independent basis, Debye):
    X=             -1.2813    Y=             -3.1663    Z=             -0.0000  Tot=              3.4157
 Quadrupole moment (field-independent basis, Debye-Ang):
   XX=             -9.1591   YY=             -6.7080   ZZ=            -14.7166
   XY=             -5.7234   XZ=              0.0000   YZ=             -0.0000
 Traceless Quadrupole moment (field-independent basis, Debye-Ang):
   XX=              1.0355   YY=              3.4866   ZZ=             -4.5220
   XY=             -5.7234   XZ=              0.0000   YZ=             -0.0000
 Octapole moment (field-independent basis, Debye-Ang**2):
  XXX=             -0.8603  YYY=            -54.4238  ZZZ=             -0.0000  XYY=            -15.6675
  XXY=             -4.2917  XXZ=             -0.0000  XZZ=             -0.1676  YZZ=             -0.4395
  YYZ=             -0.0000  XYZ=             -0.0000
 Hexadecapole moment (field-independent basis, Debye-Ang**3):
 XXXX=            -10.9959 YYYY=           -393.9376 ZZZZ=            -11.3457 XXXY=             -3.2233
 XXXZ=             -0.0000 YYYX=            -43.2275 YYYZ=             -0.0000 ZZZX=             -0.0000
 ZZZY=              0.0000 XXYY=            -54.8010 XXZZ=             -4.4459 YYZZ=           -101.0774
 XXYZ=             -0.0000 YYXZ=              0.0000 ZZXY=              1.5046
 N-N= 2.821806209880D+01 E-N=-4.178560955912D+02  KE= 1.518020344499D+02
 Symmetry A'   KE= 1.427669653568D+02
 Symmetry A"   KE= 9.035069093140D+00
 Leave Link  601 at Fri Aug 26 23:59:50 2022, MaxMem=   536870912 cpu:               0.4 elap:               0.1
 (Enter /usr/site/hpc/x86_64/glibc-2.17/broadwell/gaussian/g16_a.03/pgi-16.5/g16/l9999.exe)
 1\1\GINC-N004\SP\RCCSD(T)-FC\CC-pVTZ\H4O2\C7441284\26-Aug-2022\0\\#p C
 CSD(T)/cc-pVTZ\\H2O_H2O_3842\\0,1\O,0,0.,-0.009833,0.\H,0,-0.799571,-0
 .580965,0.\H,0,0.799571,-0.580965,0.\O,0,-4.152626,-2.964261,0.\H,0,-5
 .0185,-2.499752,0.\H,0,-4.311217,-3.93398,0.\\Version=ES64L-G16RevA.03
 \State=1-A'\HF=-152.1089244\MP2=-152.6347466\MP3=-152.6423013\MP4D=-15
 2.6513924\MP4DQ=-152.6438503\MP4SDQ=-152.6468971\CCSD=-152.6463112\CCS
 D(T)=-152.6619261\RMSD=7.055e-09\PG=CS [SG(H4O2)]\\@


 HE THAT FOLLOWS NATURE IS NEVER LOST.

                             -- BACON
 Job cpu time:       0 days  0 hours  1 minutes 35.9 seconds.
 Elapsed time:       0 days  0 hours  0 minutes 25.6 seconds.
 File lengths (MBytes):  RWF=    320 Int=      0 D2E=      0 Chk=      8 Scr=      8
 Normal termination of Gaussian 16 at Fri Aug 26 23:59:50 2022.
