 Entering Gaussian System, Link 0=g16
 Input=H2O_H2O_4127.com
 Output=H2O_H2O_4127.log
 Initial command:
 /usr/site/hpc/x86_64/glibc-2.17/broadwell/gaussian/g16_a.03/pgi-16.5/g16/l1.exe "/gpfs/gpfs1/scratch/c7441284/ForceFieldModel/FittingData2/Gau-857683.inp" -scrdir="/gpfs/gpfs1/scratch/c7441284/ForceFieldModel/FittingData2/"
 Entering Link 1 = /usr/site/hpc/x86_64/glibc-2.17/broadwell/gaussian/g16_a.03/pgi-16.5/g16/l1.exe PID=    857684.
  
 Copyright (c) 1988,1990,1992,1993,1995,1998,2003,2009,2016,
            Gaussian, Inc.  All Rights Reserved.
  
 This is part of the Gaussian(R) 16 program.  It is based on
 the Gaussian(R) 09 system (copyright 2009, Gaussian, Inc.),
 the Gaussian(R) 03 system (copyright 2003, Gaussian, Inc.),
 the Gaussian(R) 98 system (copyright 1998, Gaussian, Inc.),
 the Gaussian(R) 94 system (copyright 1995, Gaussian, Inc.),
 the Gaussian 92(TM) system (copyright 1992, Gaussian, Inc.),
 the Gaussian 90(TM) system (copyright 1990, Gaussian, Inc.),
 the Gaussian 88(TM) system (copyright 1988, Gaussian, Inc.),
 the Gaussian 86(TM) system (copyright 1986, Carnegie Mellon
 University), and the Gaussian 82(TM) system (copyright 1983,
 Carnegie Mellon University). Gaussian is a federally registered
 trademark of Gaussian, Inc.
  
 This software contains proprietary and confidential information,
 including trade secrets, belonging to Gaussian, Inc.
  
 This software is provided under written license and may be
 used, copied, transmitted, or stored only in accord with that
 written license.
  
 The following legend is applicable only to US Government
 contracts under FAR:
  
                    RESTRICTED RIGHTS LEGEND
  
 Use, reproduction and disclosure by the US Government is
 subject to restrictions as set forth in subparagraphs (a)
 and (c) of the Commercial Computer Software - Restricted
 Rights clause in FAR 52.227-19.
  
 Gaussian, Inc.
 340 Quinnipiac St., Bldg. 40, Wallingford CT 06492
  
  
 ---------------------------------------------------------------
 Warning -- This program may not be used in any manner that
 competes with the business of Gaussian, Inc. or will provide
 assistance to any competitor of Gaussian, Inc.  The licensee
 of this program is prohibited from giving any competitor of
 Gaussian, Inc. access to this program.  By using this program,
 the user acknowledges that Gaussian, Inc. is engaged in the
 business of creating and licensing software in the field of
 computational chemistry and represents and warrants to the
 licensee that it is not a competitor of Gaussian, Inc. and that
 it will not use this program in any manner prohibited above.
 ---------------------------------------------------------------
  

 Cite this work as:
 Gaussian 16, Revision A.03,
 M. J. Frisch, G. W. Trucks, H. B. Schlegel, G. E. Scuseria, 
 M. A. Robb, J. R. Cheeseman, G. Scalmani, V. Barone, 
 G. A. Petersson, H. Nakatsuji, X. Li, M. Caricato, A. V. Marenich, 
 J. Bloino, B. G. Janesko, R. Gomperts, B. Mennucci, H. P. Hratchian, 
 J. V. Ortiz, A. F. Izmaylov, J. L. Sonnenberg, D. Williams-Young, 
 F. Ding, F. Lipparini, F. Egidi, J. Goings, B. Peng, A. Petrone, 
 T. Henderson, D. Ranasinghe, V. G. Zakrzewski, J. Gao, N. Rega, 
 G. Zheng, W. Liang, M. Hada, M. Ehara, K. Toyota, R. Fukuda, 
 J. Hasegawa, M. Ishida, T. Nakajima, Y. Honda, O. Kitao, H. Nakai, 
 T. Vreven, K. Throssell, J. A. Montgomery, Jr., J. E. Peralta, 
 F. Ogliaro, M. J. Bearpark, J. J. Heyd, E. N. Brothers, K. N. Kudin, 
 V. N. Staroverov, T. A. Keith, R. Kobayashi, J. Normand, 
 K. Raghavachari, A. P. Rendell, J. C. Burant, S. S. Iyengar, 
 J. Tomasi, M. Cossi, J. M. Millam, M. Klene, C. Adamo, R. Cammi, 
 J. W. Ochterski, R. L. Martin, K. Morokuma, O. Farkas, 
 J. B. Foresman, and D. J. Fox, Gaussian, Inc., Wallingford CT, 2016.
 
 ******************************************
 Gaussian 16:  ES64L-G16RevA.03 25-Dec-2016
                27-Aug-2022 
 ******************************************
 %NProcShared=4
 Will use up to    4 processors via shared memory.
 %Mem=4GB
 %Chk=H2O_H2O_4127.chk
 ------------------
 #p CCSD(T)/cc-pVTZ
 ------------------
 1/38=1,172=1/1;
 2/12=2,17=6,18=5,40=1/2;
 3/5=16,6=1,11=9,25=1,30=1/1,2,3;
 4//1;
 5/5=2,38=5/2;
 8/6=4,9=120000,10=1/1,4;
 9/5=7,14=2/13;
 6/7=2,8=2,9=2,10=2/1;
 99/5=1,9=1/99;
 Leave Link    1 at Sat Aug 27 23:57:13 2022, MaxMem=   536870912 cpu:               9.7 elap:               3.2
 (Enter /usr/site/hpc/x86_64/glibc-2.17/broadwell/gaussian/g16_a.03/pgi-16.5/g16/l101.exe)
 ------------
 H2O_H2O_4127
 ------------
 Symbolic Z-matrix:
 Charge =  0 Multiplicity = 1
 O                     0.       -0.00983   0. 
 H                    -0.79957  -0.58097   0. 
 H                     0.79957  -0.58097   0. 
 O                    -4.33984  -3.10877   0. 
 H                    -5.20711  -3.57065   0. 
 H                    -3.62165  -3.77938   0. 
 
 ITRead=  0  0  0  0  0  0
 MicOpt= -1 -1 -1 -1 -1 -1
 NAtoms=      6 NQM=        6 NQMF=       0 NMMI=      0 NMMIF=      0
                NMic=       0 NMicF=      0.
                    Isotopes and Nuclear Properties:
 (Nuclear quadrupole moments (NQMom) in fm**2, nuclear magnetic moments (NMagM)
  in nuclear magnetons)

  Atom         1           2           3           4           5           6
 IAtWgt=          16           1           1          16           1           1
 AtmWgt=  15.9949146   1.0078250   1.0078250  15.9949146   1.0078250   1.0078250
 NucSpn=           0           1           1           0           1           1
 AtZEff=  -0.0000000  -0.0000000  -0.0000000  -0.0000000  -0.0000000  -0.0000000
 NQMom=    0.0000000   0.0000000   0.0000000   0.0000000   0.0000000   0.0000000
 NMagM=    0.0000000   2.7928460   2.7928460   0.0000000   2.7928460   2.7928460
 AtZNuc=   8.0000000   1.0000000   1.0000000   8.0000000   1.0000000   1.0000000
 Leave Link  101 at Sat Aug 27 23:57:14 2022, MaxMem=   536870912 cpu:               0.7 elap:               0.2
 (Enter /usr/site/hpc/x86_64/glibc-2.17/broadwell/gaussian/g16_a.03/pgi-16.5/g16/l202.exe)
                          Input orientation:                          
 ---------------------------------------------------------------------
 Center     Atomic      Atomic             Coordinates (Angstroms)
 Number     Number       Type             X           Y           Z
 ---------------------------------------------------------------------
      1          8           0        0.000000   -0.009833    0.000000
      2          1           0       -0.799571   -0.580965    0.000000
      3          1           0        0.799571   -0.580965    0.000000
      4          8           0       -4.339837   -3.108767    0.000000
      5          1           0       -5.207115   -3.570648    0.000000
      6          1           0       -3.621653   -3.779378    0.000000
 ---------------------------------------------------------------------
                    Distance matrix (angstroms):
                    1          2          3          4          5
     1  O    0.000000
     2  H    0.982601   0.000000
     3  H    0.982601   1.599142   0.000000
     4  O    5.332689   4.350088   5.727416   0.000000
     5  H    6.308205   5.325847   6.709581   0.982601   0.000000
     6  H    5.227412   4.265442   5.456837   0.982602   1.599143
                    6
     6  H    0.000000
 Stoichiometry    H4O2
 Framework group  CS[SG(H4O2)]
 Deg. of freedom     9
 Full point group                 CS      NOp   2
 Largest Abelian subgroup         CS      NOp   2
 Largest concise Abelian subgroup C1      NOp   1
                         Standard orientation:                         
 ---------------------------------------------------------------------
 Center     Atomic      Atomic             Coordinates (Angstroms)
 Number     Number       Type             X           Y           Z
 ---------------------------------------------------------------------
      1          8           0        0.088230   -2.738507    0.000000
      2          1           0        0.088079   -1.755905    0.000000
      3          1           0       -0.841214   -3.057315    0.000000
      4          8           0        0.088230    2.594183    0.000000
      5          1           0        0.216336    3.568397    0.000000
      6          1           0       -0.874877    2.399417    0.000000
 ---------------------------------------------------------------------
 Rotational constants (GHZ):         291.9977876           1.9533447           1.9403645
 Leave Link  202 at Sat Aug 27 23:57:14 2022, MaxMem=   536870912 cpu:               0.1 elap:               0.0
 (Enter /usr/site/hpc/x86_64/glibc-2.17/broadwell/gaussian/g16_a.03/pgi-16.5/g16/l301.exe)
 Standard basis: CC-pVTZ (5D, 7F)
 Ernie: Thresh=  0.10000D-02 Tol=  0.10000D-05 Strict=F.
 Ernie:  6 primitive shells out of 84 were deleted.
 There are    92 symmetry adapted cartesian basis functions of A'  symmetry.
 There are    38 symmetry adapted cartesian basis functions of A"  symmetry.
 There are    80 symmetry adapted basis functions of A'  symmetry.
 There are    36 symmetry adapted basis functions of A"  symmetry.
   116 basis functions,   172 primitive gaussians,   130 cartesian basis functions
    10 alpha electrons       10 beta electrons
       nuclear repulsion energy        27.8387672817 Hartrees.
 IExCor=    0 DFT=F Ex=HF Corr=None ExCW=0 ScaHFX=  1.000000
 ScaDFX=  1.000000  1.000000  1.000000  1.000000 ScalE2=  1.000000  1.000000
 IRadAn=      5 IRanWt=     -1 IRanGd=            0 ICorTp=0 IEmpDi=  4
 NAtoms=    6 NActive=    6 NUniq=    6 SFac= 1.00D+00 NAtFMM=   60 NAOKFM=F Big=F
 Integral buffers will be    131072 words long.
 Raffenetti 1 integral format.
 Two-electron integral symmetry is turned on.
 Leave Link  301 at Sat Aug 27 23:57:14 2022, MaxMem=   536870912 cpu:               0.2 elap:               0.1
 (Enter /usr/site/hpc/x86_64/glibc-2.17/broadwell/gaussian/g16_a.03/pgi-16.5/g16/l302.exe)
 NPDir=0 NMtPBC=     1 NCelOv=     1 NCel=       1 NClECP=     1 NCelD=      1
         NCelK=      1 NCelE2=     1 NClLst=     1 CellRange=     0.0.
 One-electron integrals computed using PRISM.
 One-electron integral symmetry used in STVInt
 NBasis=   116 RedAO= T EigKep=  2.64D-03  NBF=    80    36
 NBsUse=   116 1.00D-06 EigRej= -1.00D+00 NBFU=    80    36
 Leave Link  302 at Sat Aug 27 23:57:14 2022, MaxMem=   536870912 cpu:               0.4 elap:               0.1
 (Enter /usr/site/hpc/x86_64/glibc-2.17/broadwell/gaussian/g16_a.03/pgi-16.5/g16/l303.exe)
 DipDrv:  MaxL=1.
 Leave Link  303 at Sat Aug 27 23:57:14 2022, MaxMem=   536870912 cpu:               0.1 elap:               0.0
 (Enter /usr/site/hpc/x86_64/glibc-2.17/broadwell/gaussian/g16_a.03/pgi-16.5/g16/l401.exe)
 ExpMin= 1.03D-01 ExpMax= 1.53D+04 ExpMxC= 5.22D+02 IAcc=3 IRadAn=         5 AccDes= 0.00D+00
 Harris functional with IExCor=  205 and IRadAn=       5 diagonalized for initial guess.
 HarFok:  IExCor=  205 AccDes= 0.00D+00 IRadAn=         5 IDoV= 1 UseB2=F ITyADJ=14
 ICtDFT=  3500011 ScaDFX=  1.000000  1.000000  1.000000  1.000000
 FoFCou: FMM=F IPFlag=           0 FMFlag=      100000 FMFlg1=           0
         NFxFlg=           0 DoJE=T BraDBF=F KetDBF=T FulRan=T
         wScrn=  0.000000 ICntrl=       500 IOpCl=  0 I1Cent=   200000004 NGrid=           0
         NMat0=    1 NMatS0=      1 NMatT0=    0 NMatD0=    1 NMtDS0=    0 NMtDT0=    0
 Petite list used in FoFCou.
 Harris En= -152.298666973553    
 JPrj=0 DoOrth=F DoCkMO=F.
 Initial guess orbital symmetries:
       Occupied  (A') (A') (A') (A') (A') (A') (A') (A') (A") (A")
       Virtual   (A') (A') (A') (A') (A') (A') (A') (A') (A') (A')
                 (A") (A") (A') (A') (A') (A') (A") (A") (A") (A")
                 (A') (A') (A') (A') (A') (A') (A') (A') (A") (A")
                 (A") (A") (A') (A') (A') (A') (A') (A') (A') (A')
                 (A') (A') (A") (A") (A') (A') (A") (A") (A") (A")
                 (A') (A') (A') (A') (A') (A') (A") (A") (A') (A')
                 (A') (A') (A") (A") (A") (A") (A') (A') (A') (A')
                 (A") (A") (A') (A') (A') (A') (A') (A') (A') (A')
                 (A") (A") (A') (A') (A") (A") (A") (A") (A') (A')
                 (A") (A") (A') (A') (A') (A') (A") (A") (A') (A')
                 (A') (A') (A') (A') (A') (A')
 The electronic state of the initial guess is 1-A'.
 Leave Link  401 at Sat Aug 27 23:57:14 2022, MaxMem=   536870912 cpu:               0.7 elap:               0.2
 (Enter /usr/site/hpc/x86_64/glibc-2.17/broadwell/gaussian/g16_a.03/pgi-16.5/g16/l502.exe)
 Keep R1 ints in memory in symmetry-blocked form, NReq=34823457.
 FoFCou: FMM=F IPFlag=           0 FMFlag=           0 FMFlg1=           0
         NFxFlg=           0 DoJE=F BraDBF=F KetDBF=F FulRan=T
         wScrn=  0.000000 ICntrl=       600 IOpCl=  0 I1Cent=           0 NGrid=           0
         NMat0=    1 NMatS0=   6786 NMatT0=    0 NMatD0=    1 NMtDS0=    0 NMtDT0=    0
 Petite list used in FoFCou.
 Closed shell SCF:
 Using DIIS extrapolation, IDIIS=  1040.
 NGot=   536870912 LenX=   525040673 LenY=   525023332
 Requested convergence on RMS density matrix=1.00D-08 within 128 cycles.
 Requested convergence on MAX density matrix=1.00D-06.
 Requested convergence on             energy=1.00D-06.
 No special actions if energy rises.

 Cycle   1  Pass 1  IDiag  1:
 E= -151.927834471888    
 DIIS: error= 6.59D-02 at cycle   1 NSaved=   1.
 NSaved= 1 IEnMin= 1 EnMin= -151.927834471888     IErMin= 1 ErrMin= 6.59D-02
 ErrMax= 6.59D-02  0.00D+00 EMaxC= 1.00D-01 BMatC= 4.00D-01 BMatP= 4.00D-01
 IDIUse=3 WtCom= 3.41D-01 WtEn= 6.59D-01
 Coeff-Com:  0.100D+01
 Coeff-En:   0.100D+01
 Coeff:      0.100D+01
 Gap=     0.507 Goal=   None    Shift=    0.000
 GapD=    0.507 DampG=2.000 DampE=0.500 DampFc=1.0000 IDamp=-1.
 RMSDP=2.50D-03 MaxDP=6.66D-02              OVMax= 1.27D-01

 Cycle   2  Pass 1  IDiag  1:
 E= -152.039477499705     Delta-E=       -0.111643027817 Rises=F Damp=F
 DIIS: error= 4.15D-02 at cycle   2 NSaved=   2.
 NSaved= 2 IEnMin= 2 EnMin= -152.039477499705     IErMin= 2 ErrMin= 4.15D-02
 ErrMax= 4.15D-02  0.00D+00 EMaxC= 1.00D-01 BMatC= 1.13D-01 BMatP= 4.00D-01
 IDIUse=3 WtCom= 5.85D-01 WtEn= 4.15D-01
 Coeff-Com:  0.319D+00 0.681D+00
 Coeff-En:   0.166D+00 0.834D+00
 Coeff:      0.256D+00 0.744D+00
 Gap=     0.647 Goal=   None    Shift=    0.000
 RMSDP=1.33D-03 MaxDP=3.96D-02 DE=-1.12D-01 OVMax= 5.72D-02

 Cycle   3  Pass 1  IDiag  1:
 E= -152.104089439156     Delta-E=       -0.064611939451 Rises=F Damp=F
 DIIS: error= 8.97D-03 at cycle   3 NSaved=   3.
 NSaved= 3 IEnMin= 3 EnMin= -152.104089439156     IErMin= 3 ErrMin= 8.97D-03
 ErrMax= 8.97D-03  0.00D+00 EMaxC= 1.00D-01 BMatC= 5.97D-03 BMatP= 1.13D-01
 IDIUse=3 WtCom= 9.10D-01 WtEn= 8.97D-02
 Coeff-Com: -0.304D-01 0.156D+00 0.875D+00
 Coeff-En:   0.000D+00 0.000D+00 0.100D+01
 Coeff:     -0.277D-01 0.142D+00 0.886D+00
 Gap=     0.618 Goal=   None    Shift=    0.000
 RMSDP=2.43D-04 MaxDP=5.71D-03 DE=-6.46D-02 OVMax= 1.34D-02

 Cycle   4  Pass 1  IDiag  1:
 E= -152.107808857603     Delta-E=       -0.003719418447 Rises=F Damp=F
 DIIS: error= 8.56D-04 at cycle   4 NSaved=   4.
 NSaved= 4 IEnMin= 4 EnMin= -152.107808857603     IErMin= 4 ErrMin= 8.56D-04
 ErrMax= 8.56D-04  0.00D+00 EMaxC= 1.00D-01 BMatC= 3.73D-05 BMatP= 5.97D-03
 IDIUse=3 WtCom= 9.91D-01 WtEn= 8.56D-03
 Coeff-Com:  0.679D-02-0.612D-01-0.239D+00 0.129D+01
 Coeff-En:   0.000D+00 0.000D+00 0.000D+00 0.100D+01
 Coeff:      0.673D-02-0.607D-01-0.237D+00 0.129D+01
 Gap=     0.621 Goal=   None    Shift=    0.000
 RMSDP=5.18D-05 MaxDP=1.03D-03 DE=-3.72D-03 OVMax= 2.23D-03

 Cycle   5  Pass 1  IDiag  1:
 E= -152.107858959398     Delta-E=       -0.000050101794 Rises=F Damp=F
 DIIS: error= 1.94D-04 at cycle   5 NSaved=   5.
 NSaved= 5 IEnMin= 5 EnMin= -152.107858959398     IErMin= 5 ErrMin= 1.94D-04
 ErrMax= 1.94D-04  0.00D+00 EMaxC= 1.00D-01 BMatC= 1.35D-06 BMatP= 3.73D-05
 IDIUse=3 WtCom= 9.98D-01 WtEn= 1.94D-03
 Coeff-Com:  0.536D-03 0.501D-03-0.273D-02-0.222D+00 0.122D+01
 Coeff-En:   0.000D+00 0.000D+00 0.000D+00 0.000D+00 0.100D+01
 Coeff:      0.535D-03 0.500D-03-0.272D-02-0.222D+00 0.122D+01
 Gap=     0.622 Goal=   None    Shift=    0.000
 RMSDP=1.42D-05 MaxDP=2.90D-04 DE=-5.01D-05 OVMax= 6.89D-04

 Cycle   6  Pass 1  IDiag  1:
 E= -152.107861788679     Delta-E=       -0.000002829281 Rises=F Damp=F
 DIIS: error= 2.80D-05 at cycle   6 NSaved=   6.
 NSaved= 6 IEnMin= 6 EnMin= -152.107861788679     IErMin= 6 ErrMin= 2.80D-05
 ErrMax= 2.80D-05  0.00D+00 EMaxC= 1.00D-01 BMatC= 3.31D-08 BMatP= 1.35D-06
 IDIUse=1 WtCom= 1.00D+00 WtEn= 0.00D+00
 Coeff-Com: -0.269D-03 0.155D-02 0.665D-02 0.231D-02-0.262D+00 0.125D+01
 Coeff:     -0.269D-03 0.155D-02 0.665D-02 0.231D-02-0.262D+00 0.125D+01
 Gap=     0.622 Goal=   None    Shift=    0.000
 RMSDP=3.00D-06 MaxDP=6.50D-05 DE=-2.83D-06 OVMax= 1.52D-04

 Cycle   7  Pass 1  IDiag  1:
 E= -152.107861883227     Delta-E=       -0.000000094549 Rises=F Damp=F
 DIIS: error= 5.13D-06 at cycle   7 NSaved=   7.
 NSaved= 7 IEnMin= 7 EnMin= -152.107861883227     IErMin= 7 ErrMin= 5.13D-06
 ErrMax= 5.13D-06  0.00D+00 EMaxC= 1.00D-01 BMatC= 1.71D-09 BMatP= 3.31D-08
 IDIUse=1 WtCom= 1.00D+00 WtEn= 0.00D+00
 Coeff-Com:  0.310D-04-0.390D-03-0.156D-02 0.135D-01-0.121D-01-0.227D+00
 Coeff-Com:  0.123D+01
 Coeff:      0.310D-04-0.390D-03-0.156D-02 0.135D-01-0.121D-01-0.227D+00
 Coeff:      0.123D+01
 Gap=     0.622 Goal=   None    Shift=    0.000
 RMSDP=4.34D-07 MaxDP=8.58D-06 DE=-9.45D-08 OVMax= 2.91D-05

 Cycle   8  Pass 1  IDiag  1:
 E= -152.107861886899     Delta-E=       -0.000000003672 Rises=F Damp=F
 DIIS: error= 1.60D-06 at cycle   8 NSaved=   8.
 NSaved= 8 IEnMin= 8 EnMin= -152.107861886899     IErMin= 8 ErrMin= 1.60D-06
 ErrMax= 1.60D-06  0.00D+00 EMaxC= 1.00D-01 BMatC= 9.43D-11 BMatP= 1.71D-09
 IDIUse=1 WtCom= 1.00D+00 WtEn= 0.00D+00
 Coeff-Com:  0.460D-05 0.450D-04 0.193D-03-0.504D-02 0.197D-01 0.655D-02
 Coeff-Com: -0.395D+00 0.137D+01
 Coeff:      0.460D-05 0.450D-04 0.193D-03-0.504D-02 0.197D-01 0.655D-02
 Coeff:     -0.395D+00 0.137D+01
 Gap=     0.622 Goal=   None    Shift=    0.000
 RMSDP=1.13D-07 MaxDP=1.85D-06 DE=-3.67D-09 OVMax= 6.63D-06

 Cycle   9  Pass 1  IDiag  1:
 E= -152.107861887116     Delta-E=       -0.000000000216 Rises=F Damp=F
 DIIS: error= 2.21D-07 at cycle   9 NSaved=   9.
 NSaved= 9 IEnMin= 9 EnMin= -152.107861887116     IErMin= 9 ErrMin= 2.21D-07
 ErrMax= 2.21D-07  0.00D+00 EMaxC= 1.00D-01 BMatC= 4.23D-12 BMatP= 9.43D-11
 IDIUse=1 WtCom= 1.00D+00 WtEn= 0.00D+00
 Coeff-Com:  0.166D-06 0.198D-04 0.797D-04-0.142D-02 0.484D-02 0.509D-02
 Coeff-Com: -0.103D+00 0.246D+00 0.848D+00
 Coeff:      0.166D-06 0.198D-04 0.797D-04-0.142D-02 0.484D-02 0.509D-02
 Coeff:     -0.103D+00 0.246D+00 0.848D+00
 Gap=     0.622 Goal=   None    Shift=    0.000
 RMSDP=1.26D-08 MaxDP=3.42D-07 DE=-2.16D-10 OVMax= 8.33D-07

 Cycle  10  Pass 1  IDiag  1:
 E= -152.107861887120     Delta-E=       -0.000000000005 Rises=F Damp=F
 DIIS: error= 8.13D-08 at cycle  10 NSaved=  10.
 NSaved=10 IEnMin=10 EnMin= -152.107861887120     IErMin=10 ErrMin= 8.13D-08
 ErrMax= 8.13D-08  0.00D+00 EMaxC= 1.00D-01 BMatC= 5.74D-13 BMatP= 4.23D-12
 IDIUse=1 WtCom= 1.00D+00 WtEn= 0.00D+00
 Coeff-Com: -0.588D-06-0.402D-05-0.192D-04 0.529D-03-0.196D-02-0.150D-02
 Coeff-Com:  0.487D-01-0.183D+00 0.118D+00 0.102D+01
 Coeff:     -0.588D-06-0.402D-05-0.192D-04 0.529D-03-0.196D-02-0.150D-02
 Coeff:      0.487D-01-0.183D+00 0.118D+00 0.102D+01
 Gap=     0.622 Goal=   None    Shift=    0.000
 RMSDP=5.81D-09 MaxDP=1.92D-07 DE=-4.63D-12 OVMax= 3.77D-07

 SCF Done:  E(RHF) =  -152.107861887     A.U. after   10 cycles
            NFock= 10  Conv=0.58D-08     -V/T= 2.0020
 KE= 1.518038560744D+02 PE=-4.170607157684D+02 EE= 8.531023052516D+01
 Leave Link  502 at Sat Aug 27 23:57:15 2022, MaxMem=   536870912 cpu:               3.6 elap:               1.0
 (Enter /usr/site/hpc/x86_64/glibc-2.17/broadwell/gaussian/g16_a.03/pgi-16.5/g16/l801.exe)
 Windowed orbitals will be sorted by symmetry type.
 ExpMin= 1.03D-01 ExpMax= 1.53D+04 ExpMxC= 5.22D+02 IAcc=3 IRadAn=         5 AccDes= 0.00D+00
 HarFok:  IExCor=  205 AccDes= 0.00D+00 IRadAn=         5 IDoV=-2 UseB2=F ITyADJ=14
 ICtDFT= 12500011 ScaDFX=  1.000000  1.000000  1.000000  1.000000
 Largest valence mixing into a core orbital is  1.12D-04
 Largest core mixing into a valence orbital is  1.76D-05
 Range of M.O.s used for correlation:     3   116
 NBasis=   116 NAE=    10 NBE=    10 NFC=     2 NFV=     0
 NROrb=    114 NOA=     8 NOB=     8 NVA=   106 NVB=   106
 Leave Link  801 at Sat Aug 27 23:57:15 2022, MaxMem=   536870912 cpu:               0.3 elap:               0.1
 (Enter /usr/site/hpc/x86_64/glibc-2.17/broadwell/gaussian/g16_a.03/pgi-16.5/g16/l804.exe)
 Closed-shell transformation, MDV=   536870912 ITran=4 ISComp=2.
 Unit  1 TFree=        834515 TCopy=        406125.
 Semi-Direct transformation.
 ModeAB=           4 MOrb=             8 LenV=     536376294
 LASXX=      2873146 LTotXX=     2873146 LenRXX=     5831278
 LTotAB=     2958132 MaxLAS=     5542224 LenRXY=           0
 NonZer=     8704424 LenScr=    13107200 LnRSAI=     5542224
 LnScr1=     8388608 LExtra=           0 Total=     32869310
 MaxDsk=          -1 SrtSym=           T ITran=            4
 DoSDTr:  NPSUse=  4
 JobTyp=0 Pass  1:  I=   1 to   8.
 (rs|ai) integrals will be sorted in core.
 Complete sort for first half transformation.
 First half transformation complete.
 Complete sort for second half transformation.
 Second half transformation complete.
 Spin components of T(2) and E(2):
     alpha-alpha T2 =       0.1555946720D-01 E2=     -0.6380505240D-01
     alpha-beta  T2 =       0.9188691784D-01 E2=     -0.3982714641D+00
     beta-beta   T2 =       0.1555946720D-01 E2=     -0.6380505240D-01
 ANorm=    0.1059719705D+01
 E2 =    -0.5258815689D+00 EUMP2 =    -0.15263374345603D+03
 Leave Link  804 at Sat Aug 27 23:57:16 2022, MaxMem=   536870912 cpu:               3.0 elap:               0.8
 (Enter /usr/site/hpc/x86_64/glibc-2.17/broadwell/gaussian/g16_a.03/pgi-16.5/g16/l913.exe)
 CIDS:  MDV=   536870912.
 Frozen-core window:  NFC=   2 NFV=   0.
 IFCWin=0 IBDFC=1 NFBD=     0     0 NFCmp=     0     0 NFFFC=     0     0
 Using DD3R+UMP44R for 1st iteration.
 Using DD4RQ for 2nd and later iterations.
 Keep R2 and R3 ints in memory in symmetry-blocked form, NReq=35357534.
 FoFCou: FMM=F IPFlag=           0 FMFlag=           0 FMFlg1=           0
         NFxFlg=           0 DoJE=F BraDBF=F KetDBF=F FulRan=T
         wScrn=  0.000000 ICntrl=       600 IOpCl=  0 I1Cent=           0 NGrid=           0
         NMat0=    1 NMatS0=   6786 NMatT0=    0 NMatD0=    1 NMtDS0=    0 NMtDT0=    0
 Petite list used in FoFCou.
 CIDS: In Core Option IDoMem=           1.
 CCSD(T)
 =======
 Iterations=  50 Convergence= 0.100D-06
 Produce multiple copies of IABC intergrals
 Iteration Nr.   1
 **********************
 DD1Dir will call FoFMem   1 times, MxPair=        72
 NAB=    36 NAA=     0 NBB=     0.
 MP4(R+Q)=  0.75511023D-02
 Maximum subspace dimension=  5
 A-vector RMS=  1.7414345D-03 Max=  6.1944619D-03 conv= 1.00D-05.
 RLE energy=       -0.5258242470
 E3=       -0.75647654D-02        EUMP3=      -0.15264130822D+03
 E4(DQ)=   -0.15492646D-02        UMP4(DQ)=   -0.15264285749D+03
 E4(SDQ)=  -0.46027916D-02        UMP4(SDQ)=  -0.15264591101D+03
 VARIATIONAL ENERGIES WITH THE FIRST-ORDER WAVEFUNCTION:
 DE(Corr)= -0.52582425     E(Corr)=     -152.63368614    
 NORM(A)=   0.10600862D+01
 Iteration Nr.   2
 **********************
 DD1Dir will call FoFMem   1 times, MxPair=        72
 NAB=    36 NAA=     0 NBB=     0.
 A-vector RMS=  2.1255013D-04 Max=  2.3209246D-03 conv= 1.00D-05.
 RLE energy=       -0.5368789285
 DE(Corr)= -0.53571966     E(CORR)=     -152.64358155     Delta=-9.90D-03
 NORM(A)=   0.10638312D+01
 Iteration Nr.   3
 **********************
 DD1Dir will call FoFMem   1 times, MxPair=        72
 NAB=    36 NAA=     0 NBB=     0.
 A-vector RMS=  1.4108184D-04 Max=  7.5485742D-04 conv= 1.00D-05.
 RLE energy=       -0.5373742891
 DE(Corr)= -0.53678906     E(CORR)=     -152.64465095     Delta=-1.07D-03
 NORM(A)=   0.10644684D+01
 Iteration Nr.   4
 **********************
 DD1Dir will call FoFMem   1 times, MxPair=        72
 NAB=    36 NAA=     0 NBB=     0.
 A-vector RMS=  2.6186780D-05 Max=  1.3804430D-04 conv= 1.00D-05.
 RLE energy=       -0.5374573226
 DE(Corr)= -0.53742209     E(CORR)=     -152.64528398     Delta=-6.33D-04
 NORM(A)=   0.10645789D+01
 Iteration Nr.   5
 **********************
 DD1Dir will call FoFMem   1 times, MxPair=        72
 NAB=    36 NAA=     0 NBB=     0.
 A-vector RMS=  1.8750908D-05 Max=  1.3825707D-04 conv= 1.00D-05.
 RLE energy=       -0.5374657540
 DE(Corr)= -0.53745899     E(CORR)=     -152.64532087     Delta=-3.69D-05
 NORM(A)=   0.10645884D+01
 Iteration Nr.   6
 **********************
 DD1Dir will call FoFMem   1 times, MxPair=        72
 NAB=    36 NAA=     0 NBB=     0.
 A-vector RMS=  5.5957695D-06 Max=  4.1040715D-05 conv= 1.00D-05.
 RLE energy=       -0.5374566629
 DE(Corr)= -0.53746217     E(CORR)=     -152.64532406     Delta=-3.18D-06
 NORM(A)=   0.10645885D+01
 Iteration Nr.   7
 **********************
 DD1Dir will call FoFMem   1 times, MxPair=        72
 NAB=    36 NAA=     0 NBB=     0.
 A-vector RMS=  2.6821917D-06 Max=  1.9473431D-05 conv= 1.00D-05.
 RLE energy=       -0.5374631780
 DE(Corr)= -0.53746232     E(CORR)=     -152.64532421     Delta=-1.49D-07
 NORM(A)=   0.10645908D+01
 Iteration Nr.   8
 **********************
 DD1Dir will call FoFMem   1 times, MxPair=        72
 NAB=    36 NAA=     0 NBB=     0.
 A-vector RMS=  6.3560038D-07 Max=  5.2044519D-06 conv= 1.00D-05.
 RLE energy=       -0.5374617142
 DE(Corr)= -0.53746188     E(CORR)=     -152.64532377     Delta= 4.36D-07
 NORM(A)=   0.10645909D+01
 Iteration Nr.   9
 **********************
 DD1Dir will call FoFMem   1 times, MxPair=        72
 NAB=    36 NAA=     0 NBB=     0.
 A-vector RMS=  1.8016620D-07 Max=  1.7449650D-06 conv= 1.00D-05.
 RLE energy=       -0.5374620718
 DE(Corr)= -0.53746213     E(CORR)=     -152.64532401     Delta=-2.44D-07
 NORM(A)=   0.10645912D+01
 Iteration Nr.  10
 **********************
 DD1Dir will call FoFMem   1 times, MxPair=        72
 NAB=    36 NAA=     0 NBB=     0.
 A-vector RMS=  6.0402869D-08 Max=  5.3539253D-07 conv= 1.00D-05.
 RLE energy=       -0.5374621674
 DE(Corr)= -0.53746214     E(CORR)=     -152.64532403     Delta=-1.37D-08
 NORM(A)=   0.10645912D+01
 CI/CC converged in   10 iterations to DelEn=-1.37D-08 Conv= 1.00D-07 ErrA1= 6.04D-08 Conv= 1.00D-05
 Wavefunction amplitudes converged. E(Corr)=     -152.64532403    
 Largest amplitude= 4.79D-02
 IPart=  4 IA=    7   11.05% done.
 IPart=  4 IA=   13   21.46% done.
 IPart=  2 IA=   19   31.21% done.
 IPart=  4 IA=   25   40.32% done.
 IPart=  4 IA=   32   50.13% done.
 IPart=  4 IA=   40   60.27% done.
 IPart=  3 IA=   49   70.30% done.
 IPart=  1 IA=   60   80.58% done.
 IPart=  3 IA=   74   90.51% done.
 Time for triples=       49.21 seconds.
 T4(CCSD)= -0.16028795D-01
 T5(CCSD)=  0.40257933D-03
 CCSD(T)= -0.15266095024D+03
 Discarding MO integrals.
 Leave Link  913 at Sat Aug 27 23:57:35 2022, MaxMem=   536870912 cpu:              73.9 elap:              19.0
 (Enter /usr/site/hpc/x86_64/glibc-2.17/broadwell/gaussian/g16_a.03/pgi-16.5/g16/l601.exe)
 Copying SCF densities to generalized density rwf, IOpCl= 0 IROHF=0.

 **********************************************************************

            Population analysis using the SCF density.

 **********************************************************************

 Orbital symmetries:
       Occupied  (A') (A') (A') (A') (A') (A') (A') (A') (A") (A")
       Virtual   (A') (A') (A') (A') (A') (A') (A') (A') (A') (A')
                 (A") (A") (A') (A') (A') (A') (A") (A") (A") (A")
                 (A') (A') (A') (A') (A') (A') (A') (A') (A") (A")
                 (A") (A") (A') (A') (A') (A') (A') (A') (A') (A')
                 (A') (A') (A") (A") (A') (A') (A") (A") (A') (A')
                 (A") (A") (A') (A') (A') (A') (A") (A") (A") (A")
                 (A') (A') (A') (A') (A") (A") (A') (A') (A') (A')
                 (A") (A") (A') (A') (A') (A') (A') (A') (A') (A')
                 (A") (A") (A') (A') (A") (A") (A") (A") (A') (A')
                 (A") (A") (A') (A') (A') (A') (A") (A") (A') (A')
                 (A') (A') (A') (A') (A') (A')
 The electronic state is 1-A'.
 Alpha  occ. eigenvalues --  -20.56282 -20.55208  -1.33582  -1.32510  -0.70998
 Alpha  occ. eigenvalues --   -0.69905  -0.57050  -0.55966  -0.50694  -0.49625
 Alpha virt. eigenvalues --    0.12563   0.14952   0.19029   0.21802   0.53158
 Alpha virt. eigenvalues --    0.54948   0.56517   0.57816   0.66768   0.68722
 Alpha virt. eigenvalues --    0.78201   0.79244   0.79274   0.81281   0.82302
 Alpha virt. eigenvalues --    0.83001   0.84101   0.85162   0.96530   0.97580
 Alpha virt. eigenvalues --    1.13615   1.15504   1.16970   1.17509   1.51009
 Alpha virt. eigenvalues --    1.51238   1.52203   1.52500   1.99921   2.00993
 Alpha virt. eigenvalues --    2.05979   2.07065   2.08771   2.10034   2.14092
 Alpha virt. eigenvalues --    2.15203   2.24459   2.25511   2.60714   2.62077
 Alpha virt. eigenvalues --    2.91906   2.93959   3.38615   3.39692   3.49175
 Alpha virt. eigenvalues --    3.50262   3.52377   3.53440   3.58764   3.59878
 Alpha virt. eigenvalues --    3.77909   3.78980   3.84671   3.85775   3.86866
 Alpha virt. eigenvalues --    3.87945   3.92822   3.93908   4.02285   4.03359
 Alpha virt. eigenvalues --    4.07465   4.08574   4.14566   4.15685   4.29361
 Alpha virt. eigenvalues --    4.30439   4.39158   4.40244   4.44821   4.45909
 Alpha virt. eigenvalues --    4.65766   4.66835   4.80110   4.81379   5.03514
 Alpha virt. eigenvalues --    5.04617   5.23324   5.24432   5.53389   5.54354
 Alpha virt. eigenvalues --    5.97155   5.98229   6.39626   6.40699   6.85406
 Alpha virt. eigenvalues --    6.86488   6.88891   6.89969   6.93818   6.94951
 Alpha virt. eigenvalues --    6.98349   6.99428   7.07190   7.08205   7.11807
 Alpha virt. eigenvalues --    7.12801   7.17514   7.18600   7.46405   7.47571
 Alpha virt. eigenvalues --    7.69635   7.70658   8.14289   8.15535  12.48521
 Alpha virt. eigenvalues --   12.49940
          Condensed to atoms (all electrons):
               1          2          3          4          5          6
     1  O    7.818646   0.346448   0.345312  -0.000002   0.000000   0.000004
     2  H    0.346448   0.431614  -0.036719   0.000187  -0.000007  -0.000018
     3  H    0.345312  -0.036719   0.439688  -0.000003   0.000000   0.000002
     4  O   -0.000002   0.000187  -0.000003   7.819319   0.347818   0.344149
     5  H    0.000000  -0.000007   0.000000   0.347818   0.429472  -0.036181
     6  H    0.000004  -0.000018   0.000002   0.344149  -0.036181   0.439277
 Mulliken charges:
               1
     1  O   -0.510409
     2  H    0.258494
     3  H    0.251719
     4  O   -0.511469
     5  H    0.258898
     6  H    0.252767
 Sum of Mulliken charges =   0.00000
 Mulliken charges with hydrogens summed into heavy atoms:
               1
     1  O   -0.000196
     4  O    0.000196
 Electronic spatial extent (au):  <R**2>=            547.9519
 Charge=              0.0000 electrons
 Dipole moment (field-independent basis, Debye):
    X=             -3.0220    Y=              2.5415    Z=              0.0000  Tot=              3.9486
 Quadrupole moment (field-independent basis, Debye-Ang):
   XX=            -10.5514   YY=             -8.5281   ZZ=            -14.7126
   XY=              2.6549   XZ=              0.0000   YZ=              0.0000
 Traceless Quadrupole moment (field-independent basis, Debye-Ang):
   XX=              0.7127   YY=              2.7359   ZZ=             -3.4486
   XY=              2.6549   XZ=              0.0000   YZ=              0.0000
 Octapole moment (field-independent basis, Debye-Ang**2):
  XXX=             -3.7095  YYY=             55.9647  ZZZ=              0.0000  XYY=            -21.4194
  XXY=              0.1201  XXZ=              0.0000  XZZ=             -0.3946  YZZ=              0.3482
  YYZ=              0.0000  XYZ=              0.0000
 Hexadecapole moment (field-independent basis, Debye-Ang**3):
 XXXX=            -11.4352 YYYY=           -407.1616 ZZZZ=            -11.3373 XXXY=             -0.1417
 XXXZ=              0.0000 YYYX=             53.4767 YYYZ=              0.0000 ZZZX=              0.0000
 ZZZY=              0.0000 XXYY=            -78.3887 XXZZ=             -4.3312 YYZZ=           -109.3015
 XXYZ=              0.0000 YYXZ=              0.0000 ZZXY=             -0.3265
 N-N= 2.783876728173D+01 E-N=-4.170607149564D+02  KE= 1.518038560744D+02
 Symmetry A'   KE= 1.427666610485D+02
 Symmetry A"   KE= 9.037195025853D+00
 Leave Link  601 at Sat Aug 27 23:57:35 2022, MaxMem=   536870912 cpu:               0.1 elap:               0.1
 (Enter /usr/site/hpc/x86_64/glibc-2.17/broadwell/gaussian/g16_a.03/pgi-16.5/g16/l9999.exe)
 1\1\GINC-N002\SP\RCCSD(T)-FC\CC-pVTZ\H4O2\ROOT\27-Aug-2022\0\\#p CCSD(
 T)/cc-pVTZ\\H2O_H2O_4127\\0,1\O,0,0.,-0.009833,0.\H,0,-0.799571,-0.580
 965,0.\H,0,0.799571,-0.580965,0.\O,0,-4.339837,-3.108767,0.\H,0,-5.207
 115,-3.570648,0.\H,0,-3.621653,-3.779378,0.\\Version=ES64L-G16RevA.03\
 State=1-A'\HF=-152.1078619\MP2=-152.6337435\MP3=-152.6413082\MP4D=-152
 .6504086\MP4DQ=-152.6428575\MP4SDQ=-152.645911\CCSD=-152.645324\CCSD(T
 )=-152.6609502\RMSD=5.811e-09\PG=CS [SG(H4O2)]\\@


      TO SUSPECT YOUR OWN MORTALITY IS TO KNOW THE BEGINNING OF TERROR.
      TO LEARN IRREFUTABLY THAT YOU ARE MORTAL IS TO KNOW THE END
      OF TERROR.

                                                  -- JESSICA
                                                     CHILDREN OF DUNE
                                                     BY FRANK HERBERT
 Job cpu time:       0 days  0 hours  1 minutes 33.0 seconds.
 Elapsed time:       0 days  0 hours  0 minutes 24.9 seconds.
 File lengths (MBytes):  RWF=    320 Int=      0 D2E=      0 Chk=      8 Scr=      8
 Normal termination of Gaussian 16 at Sat Aug 27 23:57:35 2022.
