 Entering Gaussian System, Link 0=g16
 Input=H2O_H2O_1600.com
 Output=H2O_H2O_1600.log
 Initial command:
 /usr/site/hpc/x86_64/glibc-2.17/broadwell/gaussian/g16_a.03/pgi-16.5/g16/l1.exe "/gpfs/gpfs1/scratch/c7441284/ForceFieldModel/FittingData2/Gau-851918.inp" -scrdir="/gpfs/gpfs1/scratch/c7441284/ForceFieldModel/FittingData2/"
 Entering Link 1 = /usr/site/hpc/x86_64/glibc-2.17/broadwell/gaussian/g16_a.03/pgi-16.5/g16/l1.exe PID=    851919.
  
 Copyright (c) 1988,1990,1992,1993,1995,1998,2003,2009,2016,
            Gaussian, Inc.  All Rights Reserved.
  
 This is part of the Gaussian(R) 16 program.  It is based on
 the Gaussian(R) 09 system (copyright 2009, Gaussian, Inc.),
 the Gaussian(R) 03 system (copyright 2003, Gaussian, Inc.),
 the Gaussian(R) 98 system (copyright 1998, Gaussian, Inc.),
 the Gaussian(R) 94 system (copyright 1995, Gaussian, Inc.),
 the Gaussian 92(TM) system (copyright 1992, Gaussian, Inc.),
 the Gaussian 90(TM) system (copyright 1990, Gaussian, Inc.),
 the Gaussian 88(TM) system (copyright 1988, Gaussian, Inc.),
 the Gaussian 86(TM) system (copyright 1986, Carnegie Mellon
 University), and the Gaussian 82(TM) system (copyright 1983,
 Carnegie Mellon University). Gaussian is a federally registered
 trademark of Gaussian, Inc.
  
 This software contains proprietary and confidential information,
 including trade secrets, belonging to Gaussian, Inc.
  
 This software is provided under written license and may be
 used, copied, transmitted, or stored only in accord with that
 written license.
  
 The following legend is applicable only to US Government
 contracts under FAR:
  
                    RESTRICTED RIGHTS LEGEND
  
 Use, reproduction and disclosure by the US Government is
 subject to restrictions as set forth in subparagraphs (a)
 and (c) of the Commercial Computer Software - Restricted
 Rights clause in FAR 52.227-19.
  
 Gaussian, Inc.
 340 Quinnipiac St., Bldg. 40, Wallingford CT 06492
  
  
 ---------------------------------------------------------------
 Warning -- This program may not be used in any manner that
 competes with the business of Gaussian, Inc. or will provide
 assistance to any competitor of Gaussian, Inc.  The licensee
 of this program is prohibited from giving any competitor of
 Gaussian, Inc. access to this program.  By using this program,
 the user acknowledges that Gaussian, Inc. is engaged in the
 business of creating and licensing software in the field of
 computational chemistry and represents and warrants to the
 licensee that it is not a competitor of Gaussian, Inc. and that
 it will not use this program in any manner prohibited above.
 ---------------------------------------------------------------
  

 Cite this work as:
 Gaussian 16, Revision A.03,
 M. J. Frisch, G. W. Trucks, H. B. Schlegel, G. E. Scuseria, 
 M. A. Robb, J. R. Cheeseman, G. Scalmani, V. Barone, 
 G. A. Petersson, H. Nakatsuji, X. Li, M. Caricato, A. V. Marenich, 
 J. Bloino, B. G. Janesko, R. Gomperts, B. Mennucci, H. P. Hratchian, 
 J. V. Ortiz, A. F. Izmaylov, J. L. Sonnenberg, D. Williams-Young, 
 F. Ding, F. Lipparini, F. Egidi, J. Goings, B. Peng, A. Petrone, 
 T. Henderson, D. Ranasinghe, V. G. Zakrzewski, J. Gao, N. Rega, 
 G. Zheng, W. Liang, M. Hada, M. Ehara, K. Toyota, R. Fukuda, 
 J. Hasegawa, M. Ishida, T. Nakajima, Y. Honda, O. Kitao, H. Nakai, 
 T. Vreven, K. Throssell, J. A. Montgomery, Jr., J. E. Peralta, 
 F. Ogliaro, M. J. Bearpark, J. J. Heyd, E. N. Brothers, K. N. Kudin, 
 V. N. Staroverov, T. A. Keith, R. Kobayashi, J. Normand, 
 K. Raghavachari, A. P. Rendell, J. C. Burant, S. S. Iyengar, 
 J. Tomasi, M. Cossi, J. M. Millam, M. Klene, C. Adamo, R. Cammi, 
 J. W. Ochterski, R. L. Martin, K. Morokuma, O. Farkas, 
 J. B. Foresman, and D. J. Fox, Gaussian, Inc., Wallingford CT, 2016.
 
 ******************************************
 Gaussian 16:  ES64L-G16RevA.03 25-Dec-2016
                27-Aug-2022 
 ******************************************
 %NProcShared=4
 Will use up to    4 processors via shared memory.
 %Mem=4GB
 %Chk=H2O_H2O_1600.chk
 ------------------
 #p CCSD(T)/cc-pVTZ
 ------------------
 1/38=1,172=1/1;
 2/12=2,17=6,18=5,40=1/2;
 3/5=16,6=1,11=9,25=1,30=1/1,2,3;
 4//1;
 5/5=2,38=5/2;
 8/6=4,9=120000,10=1/1,4;
 9/5=7,14=2/13;
 6/7=2,8=2,9=2,10=2/1;
 99/5=1,9=1/99;
 Leave Link    1 at Sat Aug 27 23:47:13 2022, MaxMem=   536870912 cpu:               1.2 elap:               0.4
 (Enter /usr/site/hpc/x86_64/glibc-2.17/broadwell/gaussian/g16_a.03/pgi-16.5/g16/l101.exe)
 ------------
 H2O_H2O_1600
 ------------
 Symbolic Z-matrix:
 Charge =  0 Multiplicity = 1
 O                     0.       -0.00983   0. 
 H                    -0.79957  -0.58097   0. 
 H                     0.79957  -0.58097   0. 
 O                    -2.69944  -1.93803   0. 
 H                    -3.49901  -2.50917   0. 
 H                    -1.89986  -2.50917   0. 
 
 ITRead=  0  0  0  0  0  0
 MicOpt= -1 -1 -1 -1 -1 -1
 NAtoms=      6 NQM=        6 NQMF=       0 NMMI=      0 NMMIF=      0
                NMic=       0 NMicF=      0.
                    Isotopes and Nuclear Properties:
 (Nuclear quadrupole moments (NQMom) in fm**2, nuclear magnetic moments (NMagM)
  in nuclear magnetons)

  Atom         1           2           3           4           5           6
 IAtWgt=          16           1           1          16           1           1
 AtmWgt=  15.9949146   1.0078250   1.0078250  15.9949146   1.0078250   1.0078250
 NucSpn=           0           1           1           0           1           1
 AtZEff=  -0.0000000  -0.0000000  -0.0000000  -0.0000000  -0.0000000  -0.0000000
 NQMom=    0.0000000   0.0000000   0.0000000   0.0000000   0.0000000   0.0000000
 NMagM=    0.0000000   2.7928460   2.7928460   0.0000000   2.7928460   2.7928460
 AtZNuc=   8.0000000   1.0000000   1.0000000   8.0000000   1.0000000   1.0000000
 Leave Link  101 at Sat Aug 27 23:47:13 2022, MaxMem=   536870912 cpu:               0.6 elap:               0.2
 (Enter /usr/site/hpc/x86_64/glibc-2.17/broadwell/gaussian/g16_a.03/pgi-16.5/g16/l202.exe)
                          Input orientation:                          
 ---------------------------------------------------------------------
 Center     Atomic      Atomic             Coordinates (Angstroms)
 Number     Number       Type             X           Y           Z
 ---------------------------------------------------------------------
      1          8           0        0.000000   -0.009833    0.000000
      2          1           0       -0.799571   -0.580965    0.000000
      3          1           0        0.799571   -0.580965    0.000000
      4          8           0       -2.699435   -1.938033    0.000000
      5          1           0       -3.499006   -2.509165    0.000000
      6          1           0       -1.899863   -2.509165    0.000000
 ---------------------------------------------------------------------
                    Distance matrix (angstroms):
                    1          2          3          4          5
     1  O    0.000000
     2  H    0.982601   0.000000
     3  H    0.982601   1.599142   0.000000
     4  O    3.317364   2.334763   3.752956   0.000000
     5  H    4.299966   3.317364   4.711233   0.982601   0.000000
     6  H    3.139449   2.220045   3.317363   0.982602   1.599143
                    6
     6  H    0.000000
 Stoichiometry    H4O2
 Framework group  CS[SG(H4O2)]
 Deg. of freedom     9
 Full point group                 CS      NOp   2
 Largest Abelian subgroup         CS      NOp   2
 Largest concise Abelian subgroup C1      NOp   1
                         Standard orientation:                         
 ---------------------------------------------------------------------
 Center     Atomic      Atomic             Coordinates (Angstroms)
 Number     Number       Type             X           Y           Z
 ---------------------------------------------------------------------
      1          8           0        0.092949   -1.725075    0.000000
      2          1           0        0.092949   -0.742474    0.000000
      3          1           0       -0.836544   -2.043742    0.000000
      4          8           0        0.092949    1.592289    0.000000
      5          1           0        0.092949    2.574890    0.000000
      6          1           0       -0.836544    1.273621    0.000000
 ---------------------------------------------------------------------
 Rotational constants (GHZ):         308.2469399           4.9934777           4.9138749
 Leave Link  202 at Sat Aug 27 23:47:13 2022, MaxMem=   536870912 cpu:               0.0 elap:               0.0
 (Enter /usr/site/hpc/x86_64/glibc-2.17/broadwell/gaussian/g16_a.03/pgi-16.5/g16/l301.exe)
 Standard basis: CC-pVTZ (5D, 7F)
 Ernie: Thresh=  0.10000D-02 Tol=  0.10000D-05 Strict=F.
 Ernie:  6 primitive shells out of 84 were deleted.
 There are    92 symmetry adapted cartesian basis functions of A'  symmetry.
 There are    38 symmetry adapted cartesian basis functions of A"  symmetry.
 There are    80 symmetry adapted basis functions of A'  symmetry.
 There are    36 symmetry adapted basis functions of A"  symmetry.
   116 basis functions,   172 primitive gaussians,   130 cartesian basis functions
    10 alpha electrons       10 beta electrons
       nuclear repulsion energy        34.0483804373 Hartrees.
 IExCor=    0 DFT=F Ex=HF Corr=None ExCW=0 ScaHFX=  1.000000
 ScaDFX=  1.000000  1.000000  1.000000  1.000000 ScalE2=  1.000000  1.000000
 IRadAn=      5 IRanWt=     -1 IRanGd=            0 ICorTp=0 IEmpDi=  4
 NAtoms=    6 NActive=    6 NUniq=    6 SFac= 1.00D+00 NAtFMM=   60 NAOKFM=F Big=F
 Integral buffers will be    131072 words long.
 Raffenetti 1 integral format.
 Two-electron integral symmetry is turned on.
 Leave Link  301 at Sat Aug 27 23:47:13 2022, MaxMem=   536870912 cpu:               0.1 elap:               0.0
 (Enter /usr/site/hpc/x86_64/glibc-2.17/broadwell/gaussian/g16_a.03/pgi-16.5/g16/l302.exe)
 NPDir=0 NMtPBC=     1 NCelOv=     1 NCel=       1 NClECP=     1 NCelD=      1
         NCelK=      1 NCelE2=     1 NClLst=     1 CellRange=     0.0.
 One-electron integrals computed using PRISM.
 One-electron integral symmetry used in STVInt
 NBasis=   116 RedAO= T EigKep=  2.20D-03  NBF=    80    36
 NBsUse=   116 1.00D-06 EigRej= -1.00D+00 NBFU=    80    36
 Leave Link  302 at Sat Aug 27 23:47:13 2022, MaxMem=   536870912 cpu:               0.5 elap:               0.1
 (Enter /usr/site/hpc/x86_64/glibc-2.17/broadwell/gaussian/g16_a.03/pgi-16.5/g16/l303.exe)
 DipDrv:  MaxL=1.
 Leave Link  303 at Sat Aug 27 23:47:13 2022, MaxMem=   536870912 cpu:               0.1 elap:               0.0
 (Enter /usr/site/hpc/x86_64/glibc-2.17/broadwell/gaussian/g16_a.03/pgi-16.5/g16/l401.exe)
 ExpMin= 1.03D-01 ExpMax= 1.53D+04 ExpMxC= 5.22D+02 IAcc=3 IRadAn=         5 AccDes= 0.00D+00
 Harris functional with IExCor=  205 and IRadAn=       5 diagonalized for initial guess.
 HarFok:  IExCor=  205 AccDes= 0.00D+00 IRadAn=         5 IDoV= 1 UseB2=F ITyADJ=14
 ICtDFT=  3500011 ScaDFX=  1.000000  1.000000  1.000000  1.000000
 FoFCou: FMM=F IPFlag=           0 FMFlag=      100000 FMFlg1=           0
         NFxFlg=           0 DoJE=T BraDBF=F KetDBF=T FulRan=T
         wScrn=  0.000000 ICntrl=       500 IOpCl=  0 I1Cent=   200000004 NGrid=           0
         NMat0=    1 NMatS0=      1 NMatT0=    0 NMatD0=    1 NMtDS0=    0 NMtDT0=    0
 Petite list used in FoFCou.
 Harris En= -152.299163315137    
 JPrj=0 DoOrth=F DoCkMO=F.
 Initial guess orbital symmetries:
       Occupied  (A') (A') (A') (A') (A') (A') (A') (A') (A") (A")
       Virtual   (A') (A') (A') (A') (A') (A') (A') (A') (A') (A")
                 (A") (A') (A') (A') (A") (A') (A") (A') (A") (A")
                 (A') (A') (A') (A') (A') (A') (A') (A') (A") (A")
                 (A") (A") (A') (A') (A') (A') (A') (A') (A') (A')
                 (A') (A') (A") (A") (A') (A') (A") (A") (A") (A')
                 (A") (A') (A') (A') (A') (A") (A') (A") (A') (A')
                 (A") (A") (A') (A') (A") (A") (A') (A') (A') (A')
                 (A") (A") (A') (A') (A') (A') (A') (A') (A') (A')
                 (A") (A") (A') (A') (A") (A") (A") (A") (A') (A")
                 (A") (A') (A') (A') (A') (A') (A") (A") (A') (A')
                 (A') (A') (A') (A') (A') (A')
 The electronic state of the initial guess is 1-A'.
 Leave Link  401 at Sat Aug 27 23:47:13 2022, MaxMem=   536870912 cpu:               0.8 elap:               0.2
 (Enter /usr/site/hpc/x86_64/glibc-2.17/broadwell/gaussian/g16_a.03/pgi-16.5/g16/l502.exe)
 Keep R1 ints in memory in symmetry-blocked form, NReq=34823457.
 FoFCou: FMM=F IPFlag=           0 FMFlag=           0 FMFlg1=           0
         NFxFlg=           0 DoJE=F BraDBF=F KetDBF=F FulRan=T
         wScrn=  0.000000 ICntrl=       600 IOpCl=  0 I1Cent=           0 NGrid=           0
         NMat0=    1 NMatS0=   6786 NMatT0=    0 NMatD0=    1 NMtDS0=    0 NMtDT0=    0
 Petite list used in FoFCou.
 Closed shell SCF:
 Using DIIS extrapolation, IDIIS=  1040.
 NGot=   536870912 LenX=   525040673 LenY=   525023332
 Requested convergence on RMS density matrix=1.00D-08 within 128 cycles.
 Requested convergence on MAX density matrix=1.00D-06.
 Requested convergence on             energy=1.00D-06.
 No special actions if energy rises.

 Cycle   1  Pass 1  IDiag  1:
 E= -151.934130717615    
 DIIS: error= 6.50D-02 at cycle   1 NSaved=   1.
 NSaved= 1 IEnMin= 1 EnMin= -151.934130717615     IErMin= 1 ErrMin= 6.50D-02
 ErrMax= 6.50D-02  0.00D+00 EMaxC= 1.00D-01 BMatC= 3.94D-01 BMatP= 3.94D-01
 IDIUse=3 WtCom= 3.50D-01 WtEn= 6.50D-01
 Coeff-Com:  0.100D+01
 Coeff-En:   0.100D+01
 Coeff:      0.100D+01
 Gap=     0.503 Goal=   None    Shift=    0.000
 GapD=    0.503 DampG=2.000 DampE=0.500 DampFc=1.0000 IDamp=-1.
 RMSDP=2.60D-03 MaxDP=6.69D-02              OVMax= 1.24D-01

 Cycle   2  Pass 1  IDiag  1:
 E= -152.042967595252     Delta-E=       -0.108836877637 Rises=F Damp=F
 DIIS: error= 4.05D-02 at cycle   2 NSaved=   2.
 NSaved= 2 IEnMin= 2 EnMin= -152.042967595252     IErMin= 2 ErrMin= 4.05D-02
 ErrMax= 4.05D-02  0.00D+00 EMaxC= 1.00D-01 BMatC= 1.08D-01 BMatP= 3.94D-01
 IDIUse=3 WtCom= 5.95D-01 WtEn= 4.05D-01
 Coeff-Com:  0.316D+00 0.684D+00
 Coeff-En:   0.162D+00 0.838D+00
 Coeff:      0.253D+00 0.747D+00
 Gap=     0.629 Goal=   None    Shift=    0.000
 RMSDP=1.41D-03 MaxDP=3.98D-02 DE=-1.09D-01 OVMax= 5.67D-02

 Cycle   3  Pass 1  IDiag  1:
 E= -152.105121471237     Delta-E=       -0.062153875985 Rises=F Damp=F
 DIIS: error= 8.99D-03 at cycle   3 NSaved=   3.
 NSaved= 3 IEnMin= 3 EnMin= -152.105121471237     IErMin= 3 ErrMin= 8.99D-03
 ErrMax= 8.99D-03  0.00D+00 EMaxC= 1.00D-01 BMatC= 5.97D-03 BMatP= 1.08D-01
 IDIUse=3 WtCom= 9.10D-01 WtEn= 8.99D-02
 Coeff-Com: -0.305D-01 0.159D+00 0.872D+00
 Coeff-En:   0.000D+00 0.000D+00 0.100D+01
 Coeff:     -0.277D-01 0.144D+00 0.883D+00
 Gap=     0.601 Goal=   None    Shift=    0.000
 RMSDP=2.53D-04 MaxDP=5.88D-03 DE=-6.22D-02 OVMax= 1.32D-02

 Cycle   4  Pass 1  IDiag  1:
 E= -152.108831575184     Delta-E=       -0.003710103948 Rises=F Damp=F
 DIIS: error= 8.19D-04 at cycle   4 NSaved=   4.
 NSaved= 4 IEnMin= 4 EnMin= -152.108831575184     IErMin= 4 ErrMin= 8.19D-04
 ErrMax= 8.19D-04  0.00D+00 EMaxC= 1.00D-01 BMatC= 3.65D-05 BMatP= 5.97D-03
 IDIUse=3 WtCom= 9.92D-01 WtEn= 8.19D-03
 Coeff-Com:  0.688D-02-0.624D-01-0.241D+00 0.130D+01
 Coeff-En:   0.000D+00 0.000D+00 0.000D+00 0.100D+01
 Coeff:      0.683D-02-0.619D-01-0.239D+00 0.129D+01
 Gap=     0.604 Goal=   None    Shift=    0.000
 RMSDP=5.28D-05 MaxDP=9.93D-04 DE=-3.71D-03 OVMax= 2.54D-03

 Cycle   5  Pass 1  IDiag  1:
 E= -152.108882685896     Delta-E=       -0.000051110711 Rises=F Damp=F
 DIIS: error= 1.83D-04 at cycle   5 NSaved=   5.
 NSaved= 5 IEnMin= 5 EnMin= -152.108882685896     IErMin= 5 ErrMin= 1.83D-04
 ErrMax= 1.83D-04  0.00D+00 EMaxC= 1.00D-01 BMatC= 1.37D-06 BMatP= 3.65D-05
 IDIUse=3 WtCom= 9.98D-01 WtEn= 1.83D-03
 Coeff-Com:  0.595D-03-0.115D-03-0.472D-02-0.209D+00 0.121D+01
 Coeff-En:   0.000D+00 0.000D+00 0.000D+00 0.000D+00 0.100D+01
 Coeff:      0.594D-03-0.114D-03-0.472D-02-0.209D+00 0.121D+01
 Gap=     0.605 Goal=   None    Shift=    0.000
 RMSDP=1.40D-05 MaxDP=3.01D-04 DE=-5.11D-05 OVMax= 7.49D-04

 Cycle   6  Pass 1  IDiag  1:
 E= -152.108885530951     Delta-E=       -0.000002845055 Rises=F Damp=F
 DIIS: error= 3.00D-05 at cycle   6 NSaved=   6.
 NSaved= 6 IEnMin= 6 EnMin= -152.108885530951     IErMin= 6 ErrMin= 3.00D-05
 ErrMax= 3.00D-05  0.00D+00 EMaxC= 1.00D-01 BMatC= 4.71D-08 BMatP= 1.37D-06
 IDIUse=1 WtCom= 1.00D+00 WtEn= 0.00D+00
 Coeff-Com: -0.186D-03 0.180D-02 0.685D-02-0.427D-01-0.214D-01 0.106D+01
 Coeff:     -0.186D-03 0.180D-02 0.685D-02-0.427D-01-0.214D-01 0.106D+01
 Gap=     0.605 Goal=   None    Shift=    0.000
 RMSDP=2.72D-06 MaxDP=6.66D-05 DE=-2.85D-06 OVMax= 1.48D-04

 Cycle   7  Pass 1  IDiag  1:
 E= -152.108885627136     Delta-E=       -0.000000096184 Rises=F Damp=F
 DIIS: error= 1.02D-05 at cycle   7 NSaved=   7.
 NSaved= 7 IEnMin= 7 EnMin= -152.108885627136     IErMin= 7 ErrMin= 1.02D-05
 ErrMax= 1.02D-05  0.00D+00 EMaxC= 1.00D-01 BMatC= 8.42D-09 BMatP= 4.71D-08
 IDIUse=1 WtCom= 1.00D+00 WtEn= 0.00D+00
 Coeff-Com: -0.994D-04 0.385D-03 0.177D-02 0.127D-01-0.134D+00 0.271D+00
 Coeff-Com:  0.849D+00
 Coeff:     -0.994D-04 0.385D-03 0.177D-02 0.127D-01-0.134D+00 0.271D+00
 Coeff:      0.849D+00
 Gap=     0.605 Goal=   None    Shift=    0.000
 RMSDP=7.97D-07 MaxDP=2.57D-05 DE=-9.62D-08 OVMax= 4.84D-05

 Cycle   8  Pass 1  IDiag  1:
 E= -152.108885637413     Delta-E=       -0.000000010277 Rises=F Damp=F
 DIIS: error= 2.30D-06 at cycle   8 NSaved=   8.
 NSaved= 8 IEnMin= 8 EnMin= -152.108885637413     IErMin= 8 ErrMin= 2.30D-06
 ErrMax= 2.30D-06  0.00D+00 EMaxC= 1.00D-01 BMatC= 4.88D-10 BMatP= 8.42D-09
 IDIUse=1 WtCom= 1.00D+00 WtEn= 0.00D+00
 Coeff-Com:  0.254D-04-0.230D-03-0.912D-03 0.496D-02 0.755D-02-0.116D+00
 Coeff-Com: -0.425D-01 0.115D+01
 Coeff:      0.254D-04-0.230D-03-0.912D-03 0.496D-02 0.755D-02-0.116D+00
 Coeff:     -0.425D-01 0.115D+01
 Gap=     0.605 Goal=   None    Shift=    0.000
 RMSDP=2.27D-07 MaxDP=4.33D-06 DE=-1.03D-08 OVMax= 1.41D-05

 Cycle   9  Pass 1  IDiag  1:
 E= -152.108885638369     Delta-E=       -0.000000000956 Rises=F Damp=F
 DIIS: error= 6.75D-07 at cycle   9 NSaved=   9.
 NSaved= 9 IEnMin= 9 EnMin= -152.108885638369     IErMin= 9 ErrMin= 6.75D-07
 ErrMax= 6.75D-07  0.00D+00 EMaxC= 1.00D-01 BMatC= 2.71D-11 BMatP= 4.88D-10
 IDIUse=1 WtCom= 1.00D+00 WtEn= 0.00D+00
 Coeff-Com:  0.155D-05 0.262D-04 0.107D-03-0.241D-02 0.900D-02 0.734D-02
 Coeff-Com: -0.530D-01-0.250D+00 0.129D+01
 Coeff:      0.155D-05 0.262D-04 0.107D-03-0.241D-02 0.900D-02 0.734D-02
 Coeff:     -0.530D-01-0.250D+00 0.129D+01
 Gap=     0.605 Goal=   None    Shift=    0.000
 RMSDP=6.10D-08 MaxDP=1.05D-06 DE=-9.56D-10 OVMax= 3.48D-06

 Cycle  10  Pass 1  IDiag  1:
 E= -152.108885638428     Delta-E=       -0.000000000059 Rises=F Damp=F
 DIIS: error= 8.88D-08 at cycle  10 NSaved=  10.
 NSaved=10 IEnMin=10 EnMin= -152.108885638428     IErMin=10 ErrMin= 8.88D-08
 ErrMax= 8.88D-08  0.00D+00 EMaxC= 1.00D-01 BMatC= 4.79D-13 BMatP= 2.71D-11
 IDIUse=1 WtCom= 1.00D+00 WtEn= 0.00D+00
 Coeff-Com: -0.714D-06 0.269D-06-0.142D-05 0.288D-03-0.132D-02-0.316D-03
 Coeff-Com:  0.929D-02 0.345D-01-0.277D+00 0.123D+01
 Coeff:     -0.714D-06 0.269D-06-0.142D-05 0.288D-03-0.132D-02-0.316D-03
 Coeff:      0.929D-02 0.345D-01-0.277D+00 0.123D+01
 Gap=     0.605 Goal=   None    Shift=    0.000
 RMSDP=7.36D-09 MaxDP=1.59D-07 DE=-5.89D-11 OVMax= 3.96D-07

 SCF Done:  E(RHF) =  -152.108885638     A.U. after   10 cycles
            NFock= 10  Conv=0.74D-08     -V/T= 2.0020
 KE= 1.518005805394D+02 PE=-4.293911507162D+02 EE= 9.143330410109D+01
 Leave Link  502 at Sat Aug 27 23:47:15 2022, MaxMem=   536870912 cpu:               4.3 elap:               1.1
 (Enter /usr/site/hpc/x86_64/glibc-2.17/broadwell/gaussian/g16_a.03/pgi-16.5/g16/l801.exe)
 Windowed orbitals will be sorted by symmetry type.
 ExpMin= 1.03D-01 ExpMax= 1.53D+04 ExpMxC= 5.22D+02 IAcc=3 IRadAn=         5 AccDes= 0.00D+00
 HarFok:  IExCor=  205 AccDes= 0.00D+00 IRadAn=         5 IDoV=-2 UseB2=F ITyADJ=14
 ICtDFT= 12500011 ScaDFX=  1.000000  1.000000  1.000000  1.000000
 Largest valence mixing into a core orbital is  1.12D-04
 Largest core mixing into a valence orbital is  1.77D-05
 Range of M.O.s used for correlation:     3   116
 NBasis=   116 NAE=    10 NBE=    10 NFC=     2 NFV=     0
 NROrb=    114 NOA=     8 NOB=     8 NVA=   106 NVB=   106
 Leave Link  801 at Sat Aug 27 23:47:15 2022, MaxMem=   536870912 cpu:               0.3 elap:               0.1
 (Enter /usr/site/hpc/x86_64/glibc-2.17/broadwell/gaussian/g16_a.03/pgi-16.5/g16/l804.exe)
 Closed-shell transformation, MDV=   536870912 ITran=4 ISComp=2.
 Unit  1 TFree=        834515 TCopy=        406125.
 Semi-Direct transformation.
 ModeAB=           4 MOrb=             8 LenV=     536364382
 LASXX=      2873146 LTotXX=     2873146 LenRXX=     5831278
 LTotAB=     2958132 MaxLAS=     7485696 LenRXY=           0
 NonZer=     8704424 LenScr=    13107200 LnRSAI=     7485696
 LnScr1=    11534336 LExtra=           0 Total=     37958510
 MaxDsk=          -1 SrtSym=           T ITran=            4
 DoSDTr:  NPSUse=  4
 JobTyp=0 Pass  1:  I=   1 to   8.
 (rs|ai) integrals will be sorted in core.
 Complete sort for first half transformation.
 First half transformation complete.
 Complete sort for second half transformation.
 Second half transformation complete.
 Spin components of T(2) and E(2):
     alpha-alpha T2 =       0.1571216473D-01 E2=     -0.6418694155D-01
     alpha-beta  T2 =       0.9218677842D-01 E2=     -0.3990625598D+00
     beta-beta   T2 =       0.1571216473D-01 E2=     -0.6418694155D-01
 ANorm=    0.1060005240D+01
 E2 =    -0.5274364429D+00 EUMP2 =    -0.15263632208129D+03
 Leave Link  804 at Sat Aug 27 23:47:16 2022, MaxMem=   536870912 cpu:               4.4 elap:               1.1
 (Enter /usr/site/hpc/x86_64/glibc-2.17/broadwell/gaussian/g16_a.03/pgi-16.5/g16/l913.exe)
 CIDS:  MDV=   536870912.
 Frozen-core window:  NFC=   2 NFV=   0.
 IFCWin=0 IBDFC=1 NFBD=     0     0 NFCmp=     0     0 NFFFC=     0     0
 Using DD3R+UMP44R for 1st iteration.
 Using DD4RQ for 2nd and later iterations.
 Keep R2 and R3 ints in memory in symmetry-blocked form, NReq=35357534.
 FoFCou: FMM=F IPFlag=           0 FMFlag=           0 FMFlg1=           0
         NFxFlg=           0 DoJE=F BraDBF=F KetDBF=F FulRan=T
         wScrn=  0.000000 ICntrl=       600 IOpCl=  0 I1Cent=           0 NGrid=           0
         NMat0=    1 NMatS0=   6786 NMatT0=    0 NMatD0=    1 NMtDS0=    0 NMtDT0=    0
 Petite list used in FoFCou.
 CIDS: In Core Option IDoMem=           1.
 CCSD(T)
 =======
 Iterations=  50 Convergence= 0.100D-06
 Produce multiple copies of IABC intergrals
 Iteration Nr.   1
 **********************
 DD1Dir will call FoFMem   1 times, MxPair=        72
 NAB=    36 NAA=     0 NBB=     0.
 MP4(R+Q)=  0.76623955D-02
 Maximum subspace dimension=  5
 A-vector RMS=  1.8321439D-03 Max=  5.8995346D-03 conv= 1.00D-05.
 RLE energy=       -0.5269593651
 E3=       -0.72550595D-02        EUMP3=      -0.15264357714D+03
 E4(DQ)=   -0.14542882D-02        UMP4(DQ)=   -0.15264503143D+03
 E4(SDQ)=  -0.46112765D-02        UMP4(SDQ)=  -0.15264818842D+03
 VARIATIONAL ENERGIES WITH THE FIRST-ORDER WAVEFUNCTION:
 DE(Corr)= -0.52695894     E(Corr)=     -152.63584458    
 NORM(A)=   0.10602681D+01
 Iteration Nr.   2
 **********************
 DD1Dir will call FoFMem   1 times, MxPair=        72
 NAB=    36 NAA=     0 NBB=     0.
 A-vector RMS=  2.1315456D-04 Max=  1.8782731D-03 conv= 1.00D-05.
 RLE energy=       -0.5380796874
 DE(Corr)= -0.53696243     E(CORR)=     -152.64584807     Delta=-1.00D-02
 NORM(A)=   0.10640475D+01
 Iteration Nr.   3
 **********************
 DD1Dir will call FoFMem   1 times, MxPair=        72
 NAB=    36 NAA=     0 NBB=     0.
 A-vector RMS=  1.6909965D-04 Max=  1.2784896D-03 conv= 1.00D-05.
 RLE energy=       -0.5385808460
 DE(Corr)= -0.53798311     E(CORR)=     -152.64686875     Delta=-1.02D-03
 NORM(A)=   0.10646918D+01
 Iteration Nr.   4
 **********************
 DD1Dir will call FoFMem   1 times, MxPair=        72
 NAB=    36 NAA=     0 NBB=     0.
 A-vector RMS=  3.5591783D-05 Max=  2.4097405D-04 conv= 1.00D-05.
 RLE energy=       -0.5386587726
 DE(Corr)= -0.53862507     E(CORR)=     -152.64751071     Delta=-6.42D-04
 NORM(A)=   0.10648063D+01
 Iteration Nr.   5
 **********************
 DD1Dir will call FoFMem   1 times, MxPair=        72
 NAB=    36 NAA=     0 NBB=     0.
 A-vector RMS=  2.2398328D-05 Max=  2.4474843D-04 conv= 1.00D-05.
 RLE energy=       -0.5386733361
 DE(Corr)= -0.53866514     E(CORR)=     -152.64755078     Delta=-4.01D-05
 NORM(A)=   0.10648218D+01
 Iteration Nr.   6
 **********************
 DD1Dir will call FoFMem   1 times, MxPair=        72
 NAB=    36 NAA=     0 NBB=     0.
 A-vector RMS=  6.6515961D-06 Max=  4.5392735D-05 conv= 1.00D-05.
 RLE energy=       -0.5386658951
 DE(Corr)= -0.53866936     E(CORR)=     -152.64755500     Delta=-4.22D-06
 NORM(A)=   0.10648217D+01
 Iteration Nr.   7
 **********************
 DD1Dir will call FoFMem   1 times, MxPair=        72
 NAB=    36 NAA=     0 NBB=     0.
 A-vector RMS=  2.9986629D-06 Max=  3.1578729D-05 conv= 1.00D-05.
 RLE energy=       -0.5386680271
 DE(Corr)= -0.53866958     E(CORR)=     -152.64755522     Delta=-2.16D-07
 NORM(A)=   0.10648230D+01
 Iteration Nr.   8
 **********************
 DD1Dir will call FoFMem   1 times, MxPair=        72
 NAB=    36 NAA=     0 NBB=     0.
 A-vector RMS=  1.2211830D-06 Max=  8.7150393D-06 conv= 1.00D-05.
 RLE energy=       -0.5386688341
 DE(Corr)= -0.53866913     E(CORR)=     -152.64755476     Delta= 4.55D-07
 NORM(A)=   0.10648236D+01
 Iteration Nr.   9
 **********************
 DD1Dir will call FoFMem   1 times, MxPair=        72
 NAB=    36 NAA=     0 NBB=     0.
 A-vector RMS=  2.7454495D-07 Max=  2.3206532D-06 conv= 1.00D-05.
 RLE energy=       -0.5386691028
 DE(Corr)= -0.53866917     E(CORR)=     -152.64755481     Delta=-4.36D-08
 NORM(A)=   0.10648240D+01
 CI/CC converged in    9 iterations to DelEn=-4.36D-08 Conv= 1.00D-07 ErrA1= 2.75D-07 Conv= 1.00D-05
 Wavefunction amplitudes converged. E(Corr)=     -152.64755481    
 Largest amplitude= 3.96D-02
 IPart=  2 IA=    7   11.05% done.
 IPart=  2 IA=   13   21.46% done.
 IPart=  2 IA=   19   31.21% done.
 IPart=  3 IA=   25   40.32% done.
 IPart=  3 IA=   32   50.13% done.
 IPart=  4 IA=   40   60.27% done.
 IPart=  3 IA=   49   70.30% done.
 IPart=  3 IA=   60   80.58% done.
 IPart=  4 IA=   74   90.51% done.
 Time for triples=       61.07 seconds.
 T4(CCSD)= -0.16301508D-01
 T5(CCSD)=  0.42518198D-03
 CCSD(T)= -0.15266343113D+03
 Discarding MO integrals.
 Leave Link  913 at Sat Aug 27 23:47:40 2022, MaxMem=   536870912 cpu:              89.0 elap:              23.8
 (Enter /usr/site/hpc/x86_64/glibc-2.17/broadwell/gaussian/g16_a.03/pgi-16.5/g16/l601.exe)
 Copying SCF densities to generalized density rwf, IOpCl= 0 IROHF=0.

 **********************************************************************

            Population analysis using the SCF density.

 **********************************************************************

 Orbital symmetries:
       Occupied  (A') (A') (A') (A') (A') (A') (A') (A') (A") (A")
       Virtual   (A') (A') (A') (A') (A') (A') (A') (A') (A') (A')
                 (A") (A') (A") (A") (A') (A') (A") (A') (A") (A")
                 (A') (A') (A') (A') (A') (A') (A') (A') (A") (A")
                 (A") (A') (A") (A') (A') (A') (A') (A') (A') (A')
                 (A') (A') (A") (A") (A') (A") (A') (A") (A') (A')
                 (A") (A') (A") (A') (A') (A") (A") (A') (A") (A")
                 (A') (A') (A') (A') (A") (A") (A') (A') (A') (A')
                 (A") (A") (A') (A') (A') (A') (A') (A') (A') (A')
                 (A") (A") (A') (A') (A") (A") (A") (A") (A') (A")
                 (A") (A') (A') (A') (A') (A") (A') (A") (A') (A')
                 (A') (A') (A') (A') (A') (A')
 The electronic state is 1-A'.
 Alpha  occ. eigenvalues --  -20.57728 -20.54573  -1.35073  -1.31911  -0.72791
 Alpha  occ. eigenvalues --   -0.69129  -0.58558  -0.55292  -0.52134  -0.49010
 Alpha virt. eigenvalues --    0.11461   0.16246   0.20479   0.27252   0.50289
 Alpha virt. eigenvalues --    0.54488   0.57484   0.57990   0.67776   0.74188
 Alpha virt. eigenvalues --    0.74205   0.78045   0.80335   0.81982   0.83333
 Alpha virt. eigenvalues --    0.87007   0.87933   0.90477   0.95118   1.00616
 Alpha virt. eigenvalues --    1.11138   1.12468   1.22829   1.27891   1.48160
 Alpha virt. eigenvalues --    1.50879   1.53089   1.79159   1.98131   2.01690
 Alpha virt. eigenvalues --    2.04621   2.07050   2.08683   2.09632   2.17389
 Alpha virt. eigenvalues --    2.22977   2.25822   2.36921   2.60219   2.68377
 Alpha virt. eigenvalues --    2.91105   2.96920   3.37138   3.40163   3.47629
 Alpha virt. eigenvalues --    3.51105   3.51112   3.54188   3.55873   3.61330
 Alpha virt. eigenvalues --    3.76194   3.79408   3.80081   3.84832   3.88624
 Alpha virt. eigenvalues --    3.91027   3.95734   3.96359   4.01344   4.04408
 Alpha virt. eigenvalues --    4.09628   4.12648   4.14528   4.26622   4.27983
 Alpha virt. eigenvalues --    4.31166   4.40468   4.41424   4.46941   4.54428
 Alpha virt. eigenvalues --    4.64924   4.67498   4.82118   4.83839   5.03867
 Alpha virt. eigenvalues --    5.07234   5.22481   5.27929   5.53581   5.57773
 Alpha virt. eigenvalues --    5.95694   5.98832   6.38530   6.42961   6.83918
 Alpha virt. eigenvalues --    6.87102   6.87430   6.90775   6.92257   6.96857
 Alpha virt. eigenvalues --    7.00257   7.05199   7.06735   7.11501   7.12189
 Alpha virt. eigenvalues --    7.16061   7.17362   7.19346   7.49567   7.51080
 Alpha virt. eigenvalues --    7.70962   7.72921   8.13272   8.19319  12.53474
 Alpha virt. eigenvalues --   12.96069
          Condensed to atoms (all electrons):
               1          2          3          4          5          6
     1  O    7.816818   0.359161   0.343256  -0.002840   0.000059   0.002128
     2  H    0.359161   0.399927  -0.040564   0.014707  -0.000978  -0.002737
     3  H    0.343256  -0.040564   0.455908  -0.000338   0.000005   0.001074
     4  O   -0.002840   0.014707  -0.000338   7.833457   0.326402   0.314948
     5  H    0.000059  -0.000978   0.000005   0.326402   0.443391  -0.021402
     6  H    0.002128  -0.002737   0.001074   0.314948  -0.021402   0.464739
 Mulliken charges:
               1
     1  O   -0.518581
     2  H    0.270485
     3  H    0.240659
     4  O   -0.486337
     5  H    0.252523
     6  H    0.241250
 Sum of Mulliken charges =  -0.00000
 Mulliken charges with hydrogens summed into heavy atoms:
               1
     1  O   -0.007437
     4  O    0.007437
 Electronic spatial extent (au):  <R**2>=            235.1910
 Charge=             -0.0000 electrons
 Dipole moment (field-independent basis, Debye):
    X=             -3.1105    Y=              2.5596    Z=              0.0000  Tot=              4.0283
 Quadrupole moment (field-independent basis, Debye-Ang):
   XX=            -10.8942   YY=             -9.1442   ZZ=            -14.7109
   XY=              2.1215   XZ=              0.0000   YZ=              0.0000
 Traceless Quadrupole moment (field-independent basis, Debye-Ang):
   XX=              0.6889   YY=              2.4389   ZZ=             -3.1278
   XY=              2.1215   XZ=              0.0000   YZ=              0.0000
 Octapole moment (field-independent basis, Debye-Ang**2):
  XXX=             -3.4648  YYY=             24.9630  ZZZ=              0.0000  XYY=             -9.1029
  XXY=             -0.6933  XXZ=              0.0000  XZZ=             -0.3952  YZZ=              0.4067
  YYZ=              0.0000  XYZ=              0.0000
 Hexadecapole moment (field-independent basis, Debye-Ang**3):
 XXXX=            -11.8115 YYYY=           -163.1206 ZZZZ=            -11.3430 XXXY=              0.6788
 XXXZ=              0.0000 YYYX=             17.9066 YYYZ=              0.0000 ZZZX=              0.0000
 ZZZY=              0.0000 XXYY=            -34.2545 XXZZ=             -4.3384 YYZZ=            -44.8597
 XXYZ=              0.0000 YYXZ=              0.0000 ZZXY=             -0.1884
 N-N= 3.404838043731D+01 E-N=-4.293911498895D+02  KE= 1.518005805394D+02
 Symmetry A'   KE= 1.427600329318D+02
 Symmetry A"   KE= 9.040547607553D+00
 Leave Link  601 at Sat Aug 27 23:47:40 2022, MaxMem=   536870912 cpu:               0.2 elap:               0.0
 (Enter /usr/site/hpc/x86_64/glibc-2.17/broadwell/gaussian/g16_a.03/pgi-16.5/g16/l9999.exe)
 1\1\GINC-N002\SP\RCCSD(T)-FC\CC-pVTZ\H4O2\ROOT\27-Aug-2022\0\\#p CCSD(
 T)/cc-pVTZ\\H2O_H2O_1600\\0,1\O,0,0.,-0.009833,0.\H,0,-0.799571,-0.580
 965,0.\H,0,0.799571,-0.580965,0.\O,0,-2.699435,-1.938033,0.\H,0,-3.499
 006,-2.509165,0.\H,0,-1.899863,-2.509165,0.\\Version=ES64L-G16RevA.03\
 State=1-A'\HF=-152.1088856\MP2=-152.6363221\MP3=-152.6435771\MP4D=-152
 .6526938\MP4DQ=-152.6450314\MP4SDQ=-152.6481884\CCSD=-152.6475548\CCSD
 (T)=-152.6634311\RMSD=7.361e-09\PG=CS [SG(H4O2)]\\@


 KNIGHT- SIRE, I'VE JUST RETURNED FROM THE FRONT
 KING-   HOW GOES THE BATTLE                    
 KNIGHT- THE SITUATION IS QUITE FLUID           
 KING-   WHAT DOES *THAT* MEAN                  
 KNIGHT- WE'RE UP THE CREEK                     
                THE WIZARD OF ID                
 Job cpu time:       0 days  0 hours  1 minutes 41.9 seconds.
 Elapsed time:       0 days  0 hours  0 minutes 27.2 seconds.
 File lengths (MBytes):  RWF=    360 Int=      0 D2E=      0 Chk=      8 Scr=      8
 Normal termination of Gaussian 16 at Sat Aug 27 23:47:40 2022.
