 Entering Gaussian System, Link 0=g16
 Input=H2O_H2O_3932.com
 Output=H2O_H2O_3932.log
 Initial command:
 /usr/site/hpc/x86_64/glibc-2.17/broadwell/gaussian/g16_a.03/pgi-16.5/g16/l1.exe "/gpfs/gpfs1/scratch/c7441284/ForceFieldModel/FittingData2/Gau-608086.inp" -scrdir="/gpfs/gpfs1/scratch/c7441284/ForceFieldModel/FittingData2/"
 Entering Link 1 = /usr/site/hpc/x86_64/glibc-2.17/broadwell/gaussian/g16_a.03/pgi-16.5/g16/l1.exe PID=    608087.
  
 Copyright (c) 1988,1990,1992,1993,1995,1998,2003,2009,2016,
            Gaussian, Inc.  All Rights Reserved.
  
 This is part of the Gaussian(R) 16 program.  It is based on
 the Gaussian(R) 09 system (copyright 2009, Gaussian, Inc.),
 the Gaussian(R) 03 system (copyright 2003, Gaussian, Inc.),
 the Gaussian(R) 98 system (copyright 1998, Gaussian, Inc.),
 the Gaussian(R) 94 system (copyright 1995, Gaussian, Inc.),
 the Gaussian 92(TM) system (copyright 1992, Gaussian, Inc.),
 the Gaussian 90(TM) system (copyright 1990, Gaussian, Inc.),
 the Gaussian 88(TM) system (copyright 1988, Gaussian, Inc.),
 the Gaussian 86(TM) system (copyright 1986, Carnegie Mellon
 University), and the Gaussian 82(TM) system (copyright 1983,
 Carnegie Mellon University). Gaussian is a federally registered
 trademark of Gaussian, Inc.
  
 This software contains proprietary and confidential information,
 including trade secrets, belonging to Gaussian, Inc.
  
 This software is provided under written license and may be
 used, copied, transmitted, or stored only in accord with that
 written license.
  
 The following legend is applicable only to US Government
 contracts under FAR:
  
                    RESTRICTED RIGHTS LEGEND
  
 Use, reproduction and disclosure by the US Government is
 subject to restrictions as set forth in subparagraphs (a)
 and (c) of the Commercial Computer Software - Restricted
 Rights clause in FAR 52.227-19.
  
 Gaussian, Inc.
 340 Quinnipiac St., Bldg. 40, Wallingford CT 06492
  
  
 ---------------------------------------------------------------
 Warning -- This program may not be used in any manner that
 competes with the business of Gaussian, Inc. or will provide
 assistance to any competitor of Gaussian, Inc.  The licensee
 of this program is prohibited from giving any competitor of
 Gaussian, Inc. access to this program.  By using this program,
 the user acknowledges that Gaussian, Inc. is engaged in the
 business of creating and licensing software in the field of
 computational chemistry and represents and warrants to the
 licensee that it is not a competitor of Gaussian, Inc. and that
 it will not use this program in any manner prohibited above.
 ---------------------------------------------------------------
  

 Cite this work as:
 Gaussian 16, Revision A.03,
 M. J. Frisch, G. W. Trucks, H. B. Schlegel, G. E. Scuseria, 
 M. A. Robb, J. R. Cheeseman, G. Scalmani, V. Barone, 
 G. A. Petersson, H. Nakatsuji, X. Li, M. Caricato, A. V. Marenich, 
 J. Bloino, B. G. Janesko, R. Gomperts, B. Mennucci, H. P. Hratchian, 
 J. V. Ortiz, A. F. Izmaylov, J. L. Sonnenberg, D. Williams-Young, 
 F. Ding, F. Lipparini, F. Egidi, J. Goings, B. Peng, A. Petrone, 
 T. Henderson, D. Ranasinghe, V. G. Zakrzewski, J. Gao, N. Rega, 
 G. Zheng, W. Liang, M. Hada, M. Ehara, K. Toyota, R. Fukuda, 
 J. Hasegawa, M. Ishida, T. Nakajima, Y. Honda, O. Kitao, H. Nakai, 
 T. Vreven, K. Throssell, J. A. Montgomery, Jr., J. E. Peralta, 
 F. Ogliaro, M. J. Bearpark, J. J. Heyd, E. N. Brothers, K. N. Kudin, 
 V. N. Staroverov, T. A. Keith, R. Kobayashi, J. Normand, 
 K. Raghavachari, A. P. Rendell, J. C. Burant, S. S. Iyengar, 
 J. Tomasi, M. Cossi, J. M. Millam, M. Klene, C. Adamo, R. Cammi, 
 J. W. Ochterski, R. L. Martin, K. Morokuma, O. Farkas, 
 J. B. Foresman, and D. J. Fox, Gaussian, Inc., Wallingford CT, 2016.
 
 ******************************************
 Gaussian 16:  ES64L-G16RevA.03 25-Dec-2016
                27-Aug-2022 
 ******************************************
 %NProcShared=4
 Will use up to    4 processors via shared memory.
 %Mem=4GB
 %Chk=H2O_H2O_3932.chk
 ------------------
 #p CCSD(T)/cc-pVTZ
 ------------------
 1/38=1,172=1/1;
 2/12=2,17=6,18=5,40=1/2;
 3/5=16,6=1,11=9,25=1,30=1/1,2,3;
 4//1;
 5/5=2,38=5/2;
 8/6=4,9=120000,10=1/1,4;
 9/5=7,14=2/13;
 6/7=2,8=2,9=2,10=2/1;
 99/5=1,9=1/99;
 Leave Link    1 at Sat Aug 27 00:32:15 2022, MaxMem=   536870912 cpu:               0.3 elap:               0.1
 (Enter /usr/site/hpc/x86_64/glibc-2.17/broadwell/gaussian/g16_a.03/pgi-16.5/g16/l101.exe)
 ------------
 H2O_H2O_3932
 ------------
 Symbolic Z-matrix:
 Charge =  0 Multiplicity = 1
 O                     0.       -0.00983   0. 
 H                    -0.79957  -0.58097   0. 
 H                     0.79957  -0.58097   0. 
 O                    -4.21307  -3.0151    0. 
 H                    -5.18279  -3.17369   0. 
 H                    -3.74856  -3.88097   0. 
 
 ITRead=  0  0  0  0  0  0
 MicOpt= -1 -1 -1 -1 -1 -1
 NAtoms=      6 NQM=        6 NQMF=       0 NMMI=      0 NMMIF=      0
                NMic=       0 NMicF=      0.
                    Isotopes and Nuclear Properties:
 (Nuclear quadrupole moments (NQMom) in fm**2, nuclear magnetic moments (NMagM)
  in nuclear magnetons)

  Atom         1           2           3           4           5           6
 IAtWgt=          16           1           1          16           1           1
 AtmWgt=  15.9949146   1.0078250   1.0078250  15.9949146   1.0078250   1.0078250
 NucSpn=           0           1           1           0           1           1
 AtZEff=  -0.0000000  -0.0000000  -0.0000000  -0.0000000  -0.0000000  -0.0000000
 NQMom=    0.0000000   0.0000000   0.0000000   0.0000000   0.0000000   0.0000000
 NMagM=    0.0000000   2.7928460   2.7928460   0.0000000   2.7928460   2.7928460
 AtZNuc=   8.0000000   1.0000000   1.0000000   8.0000000   1.0000000   1.0000000
 Leave Link  101 at Sat Aug 27 00:32:15 2022, MaxMem=   536870912 cpu:               0.3 elap:               0.1
 (Enter /usr/site/hpc/x86_64/glibc-2.17/broadwell/gaussian/g16_a.03/pgi-16.5/g16/l202.exe)
                          Input orientation:                          
 ---------------------------------------------------------------------
 Center     Atomic      Atomic             Coordinates (Angstroms)
 Number     Number       Type             X           Y           Z
 ---------------------------------------------------------------------
      1          8           0        0.000000   -0.009833    0.000000
      2          1           0       -0.799571   -0.580965    0.000000
      3          1           0        0.799571   -0.580965    0.000000
      4          8           0       -4.213071   -3.015099    0.000000
      5          1           0       -5.182790   -3.173691    0.000000
      6          1           0       -3.748563   -3.880974    0.000000
 ---------------------------------------------------------------------
                    Distance matrix (angstroms):
                    1          2          3          4          5
     1  O    0.000000
     2  H    0.982601   0.000000
     3  H    0.982601   1.599142   0.000000
     4  O    5.175093   4.192492   5.572395   0.000000
     5  H    6.072175   5.092626   6.520036   0.982602   0.000000
     6  H    5.388641   4.425677   5.619215   0.982602   1.599142
                    6
     6  H    0.000000
 Stoichiometry    H4O2
 Framework group  CS[SG(H4O2)]
 Deg. of freedom     9
 Full point group                 CS      NOp   2
 Largest Abelian subgroup         CS      NOp   2
 Largest concise Abelian subgroup C1      NOp   1
                         Standard orientation:                         
 ---------------------------------------------------------------------
 Center     Atomic      Atomic             Coordinates (Angstroms)
 Number     Number       Type             X           Y           Z
 ---------------------------------------------------------------------
      1          8           0        0.073528    2.671024    0.000000
      2          1           0        0.072891    1.688423    0.000000
      3          1           0       -0.855758    2.990293    0.000000
      4          8           0        0.073528   -2.504069   -0.000000
      5          1           0        0.507550   -3.385620   -0.000000
      6          1           0       -0.901133   -2.628739   -0.000000
 ---------------------------------------------------------------------
 Rotational constants (GHZ):         259.7759183           2.0646981           2.0484173
 Leave Link  202 at Sat Aug 27 00:32:15 2022, MaxMem=   536870912 cpu:               0.1 elap:               0.0
 (Enter /usr/site/hpc/x86_64/glibc-2.17/broadwell/gaussian/g16_a.03/pgi-16.5/g16/l301.exe)
 Standard basis: CC-pVTZ (5D, 7F)
 Ernie: Thresh=  0.10000D-02 Tol=  0.10000D-05 Strict=F.
 Ernie:  6 primitive shells out of 84 were deleted.
 There are    92 symmetry adapted cartesian basis functions of A'  symmetry.
 There are    38 symmetry adapted cartesian basis functions of A"  symmetry.
 There are    80 symmetry adapted basis functions of A'  symmetry.
 There are    36 symmetry adapted basis functions of A"  symmetry.
   116 basis functions,   172 primitive gaussians,   130 cartesian basis functions
    10 alpha electrons       10 beta electrons
       nuclear repulsion energy        28.0907165982 Hartrees.
 IExCor=    0 DFT=F Ex=HF Corr=None ExCW=0 ScaHFX=  1.000000
 ScaDFX=  1.000000  1.000000  1.000000  1.000000 ScalE2=  1.000000  1.000000
 IRadAn=      5 IRanWt=     -1 IRanGd=            0 ICorTp=0 IEmpDi=  4
 NAtoms=    6 NActive=    6 NUniq=    6 SFac= 1.00D+00 NAtFMM=   60 NAOKFM=F Big=F
 Integral buffers will be    131072 words long.
 Raffenetti 1 integral format.
 Two-electron integral symmetry is turned on.
 Leave Link  301 at Sat Aug 27 00:32:15 2022, MaxMem=   536870912 cpu:               0.2 elap:               0.1
 (Enter /usr/site/hpc/x86_64/glibc-2.17/broadwell/gaussian/g16_a.03/pgi-16.5/g16/l302.exe)
 NPDir=0 NMtPBC=     1 NCelOv=     1 NCel=       1 NClECP=     1 NCelD=      1
         NCelK=      1 NCelE2=     1 NClLst=     1 CellRange=     0.0.
 One-electron integrals computed using PRISM.
 One-electron integral symmetry used in STVInt
 NBasis=   116 RedAO= T EigKep=  2.63D-03  NBF=    80    36
 NBsUse=   116 1.00D-06 EigRej= -1.00D+00 NBFU=    80    36
 Leave Link  302 at Sat Aug 27 00:32:15 2022, MaxMem=   536870912 cpu:               0.3 elap:               0.1
 (Enter /usr/site/hpc/x86_64/glibc-2.17/broadwell/gaussian/g16_a.03/pgi-16.5/g16/l303.exe)
 DipDrv:  MaxL=1.
 Leave Link  303 at Sat Aug 27 00:32:15 2022, MaxMem=   536870912 cpu:               0.1 elap:               0.0
 (Enter /usr/site/hpc/x86_64/glibc-2.17/broadwell/gaussian/g16_a.03/pgi-16.5/g16/l401.exe)
 ExpMin= 1.03D-01 ExpMax= 1.53D+04 ExpMxC= 5.22D+02 IAcc=3 IRadAn=         5 AccDes= 0.00D+00
 Harris functional with IExCor=  205 and IRadAn=       5 diagonalized for initial guess.
 HarFok:  IExCor=  205 AccDes= 0.00D+00 IRadAn=         5 IDoV= 1 UseB2=F ITyADJ=14
 ICtDFT=  3500011 ScaDFX=  1.000000  1.000000  1.000000  1.000000
 FoFCou: FMM=F IPFlag=           0 FMFlag=      100000 FMFlg1=           0
         NFxFlg=           0 DoJE=T BraDBF=F KetDBF=T FulRan=T
         wScrn=  0.000000 ICntrl=       500 IOpCl=  0 I1Cent=   200000004 NGrid=           0
         NMat0=    1 NMatS0=      1 NMatT0=    0 NMatD0=    1 NMtDS0=    0 NMtDT0=    0
 Petite list used in FoFCou.
 Harris En= -152.298703566570    
 JPrj=0 DoOrth=F DoCkMO=F.
 Initial guess orbital symmetries:
       Occupied  (A') (A') (A') (A') (A') (A') (A') (A') (A") (A")
       Virtual   (A') (A') (A') (A') (A') (A') (A') (A') (A') (A')
                 (A") (A") (A') (A') (A') (A') (A") (A") (A") (A")
                 (A') (A') (A') (A') (A') (A') (A') (A') (A") (A")
                 (A") (A") (A') (A') (A') (A') (A') (A') (A') (A')
                 (A') (A') (A") (A") (A') (A') (A") (A") (A") (A")
                 (A') (A') (A') (A') (A') (A') (A") (A") (A') (A')
                 (A') (A') (A") (A") (A") (A") (A') (A') (A') (A')
                 (A") (A") (A') (A') (A') (A') (A') (A') (A') (A')
                 (A") (A") (A') (A') (A") (A") (A") (A") (A') (A')
                 (A") (A") (A') (A') (A') (A') (A") (A") (A') (A')
                 (A') (A') (A') (A') (A') (A')
 The electronic state of the initial guess is 1-A'.
 Leave Link  401 at Sat Aug 27 00:32:15 2022, MaxMem=   536870912 cpu:               0.7 elap:               0.2
 (Enter /usr/site/hpc/x86_64/glibc-2.17/broadwell/gaussian/g16_a.03/pgi-16.5/g16/l502.exe)
 Keep R1 ints in memory in symmetry-blocked form, NReq=34823457.
 FoFCou: FMM=F IPFlag=           0 FMFlag=           0 FMFlg1=           0
         NFxFlg=           0 DoJE=F BraDBF=F KetDBF=F FulRan=T
         wScrn=  0.000000 ICntrl=       600 IOpCl=  0 I1Cent=           0 NGrid=           0
         NMat0=    1 NMatS0=   6786 NMatT0=    0 NMatD0=    1 NMtDS0=    0 NMtDT0=    0
 Petite list used in FoFCou.
 Closed shell SCF:
 Using DIIS extrapolation, IDIIS=  1040.
 NGot=   536870912 LenX=   525040673 LenY=   525023332
 Requested convergence on RMS density matrix=1.00D-08 within 128 cycles.
 Requested convergence on MAX density matrix=1.00D-06.
 Requested convergence on             energy=1.00D-06.
 No special actions if energy rises.

 Cycle   1  Pass 1  IDiag  1:
 E= -151.928810558352    
 DIIS: error= 6.59D-02 at cycle   1 NSaved=   1.
 NSaved= 1 IEnMin= 1 EnMin= -151.928810558352     IErMin= 1 ErrMin= 6.59D-02
 ErrMax= 6.59D-02  0.00D+00 EMaxC= 1.00D-01 BMatC= 3.99D-01 BMatP= 3.99D-01
 IDIUse=3 WtCom= 3.41D-01 WtEn= 6.59D-01
 Coeff-Com:  0.100D+01
 Coeff-En:   0.100D+01
 Coeff:      0.100D+01
 Gap=     0.509 Goal=   None    Shift=    0.000
 GapD=    0.509 DampG=2.000 DampE=0.500 DampFc=1.0000 IDamp=-1.
 RMSDP=2.50D-03 MaxDP=6.68D-02              OVMax= 1.26D-01

 Cycle   2  Pass 1  IDiag  1:
 E= -152.040253983458     Delta-E=       -0.111443425106 Rises=F Damp=F
 DIIS: error= 4.14D-02 at cycle   2 NSaved=   2.
 NSaved= 2 IEnMin= 2 EnMin= -152.040253983458     IErMin= 2 ErrMin= 4.14D-02
 ErrMax= 4.14D-02  0.00D+00 EMaxC= 1.00D-01 BMatC= 1.12D-01 BMatP= 3.99D-01
 IDIUse=3 WtCom= 5.86D-01 WtEn= 4.14D-01
 Coeff-Com:  0.319D+00 0.681D+00
 Coeff-En:   0.166D+00 0.834D+00
 Coeff:      0.256D+00 0.744D+00
 Gap=     0.646 Goal=   None    Shift=    0.000
 RMSDP=1.33D-03 MaxDP=3.96D-02 DE=-1.11D-01 OVMax= 5.71D-02

 Cycle   3  Pass 1  IDiag  1:
 E= -152.104623192261     Delta-E=       -0.064369208803 Rises=F Damp=F
 DIIS: error= 8.97D-03 at cycle   3 NSaved=   3.
 NSaved= 3 IEnMin= 3 EnMin= -152.104623192261     IErMin= 3 ErrMin= 8.97D-03
 ErrMax= 8.97D-03  0.00D+00 EMaxC= 1.00D-01 BMatC= 5.96D-03 BMatP= 1.12D-01
 IDIUse=3 WtCom= 9.10D-01 WtEn= 8.97D-02
 Coeff-Com: -0.304D-01 0.156D+00 0.875D+00
 Coeff-En:   0.000D+00 0.000D+00 0.100D+01
 Coeff:     -0.276D-01 0.142D+00 0.886D+00
 Gap=     0.618 Goal=   None    Shift=    0.000
 RMSDP=2.43D-04 MaxDP=5.72D-03 DE=-6.44D-02 OVMax= 1.33D-02

 Cycle   4  Pass 1  IDiag  1:
 E= -152.108332246929     Delta-E=       -0.003709054668 Rises=F Damp=F
 DIIS: error= 8.52D-04 at cycle   4 NSaved=   4.
 NSaved= 4 IEnMin= 4 EnMin= -152.108332246929     IErMin= 4 ErrMin= 8.52D-04
 ErrMax= 8.52D-04  0.00D+00 EMaxC= 1.00D-01 BMatC= 3.70D-05 BMatP= 5.96D-03
 IDIUse=3 WtCom= 9.91D-01 WtEn= 8.52D-03
 Coeff-Com:  0.678D-02-0.612D-01-0.238D+00 0.129D+01
 Coeff-En:   0.000D+00 0.000D+00 0.000D+00 0.100D+01
 Coeff:      0.673D-02-0.606D-01-0.236D+00 0.129D+01
 Gap=     0.621 Goal=   None    Shift=    0.000
 RMSDP=5.17D-05 MaxDP=1.03D-03 DE=-3.71D-03 OVMax= 2.21D-03

 Cycle   5  Pass 1  IDiag  1:
 E= -152.108381849387     Delta-E=       -0.000049602458 Rises=F Damp=F
 DIIS: error= 1.93D-04 at cycle   5 NSaved=   5.
 NSaved= 5 IEnMin= 5 EnMin= -152.108381849387     IErMin= 5 ErrMin= 1.93D-04
 ErrMax= 1.93D-04  0.00D+00 EMaxC= 1.00D-01 BMatC= 1.35D-06 BMatP= 3.70D-05
 IDIUse=3 WtCom= 9.98D-01 WtEn= 1.93D-03
 Coeff-Com:  0.527D-03 0.567D-03-0.248D-02-0.224D+00 0.123D+01
 Coeff-En:   0.000D+00 0.000D+00 0.000D+00 0.000D+00 0.100D+01
 Coeff:      0.526D-03 0.566D-03-0.248D-02-0.224D+00 0.123D+01
 Gap=     0.622 Goal=   None    Shift=    0.000
 RMSDP=1.43D-05 MaxDP=2.95D-04 DE=-4.96D-05 OVMax= 6.86D-04

 Cycle   6  Pass 1  IDiag  1:
 E= -152.108384660538     Delta-E=       -0.000002811151 Rises=F Damp=F
 DIIS: error= 2.77D-05 at cycle   6 NSaved=   6.
 NSaved= 6 IEnMin= 6 EnMin= -152.108384660538     IErMin= 6 ErrMin= 2.77D-05
 ErrMax= 2.77D-05  0.00D+00 EMaxC= 1.00D-01 BMatC= 3.33D-08 BMatP= 1.35D-06
 IDIUse=1 WtCom= 1.00D+00 WtEn= 0.00D+00
 Coeff-Com: -0.260D-03 0.154D-02 0.655D-02-0.453D-03-0.244D+00 0.124D+01
 Coeff:     -0.260D-03 0.154D-02 0.655D-02-0.453D-03-0.244D+00 0.124D+01
 Gap=     0.622 Goal=   None    Shift=    0.000
 RMSDP=2.97D-06 MaxDP=6.68D-05 DE=-2.81D-06 OVMax= 1.54D-04

 Cycle   7  Pass 1  IDiag  1:
 E= -152.108384753531     Delta-E=       -0.000000092993 Rises=F Damp=F
 DIIS: error= 4.80D-06 at cycle   7 NSaved=   7.
 NSaved= 7 IEnMin= 7 EnMin= -152.108384753531     IErMin= 7 ErrMin= 4.80D-06
 ErrMax= 4.80D-06  0.00D+00 EMaxC= 1.00D-01 BMatC= 2.38D-09 BMatP= 3.33D-08
 IDIUse=1 WtCom= 1.00D+00 WtEn= 0.00D+00
 Coeff-Com: -0.203D-04-0.940D-04-0.264D-03 0.137D-01-0.626D-01 0.570D-02
 Coeff-Com:  0.104D+01
 Coeff:     -0.203D-04-0.940D-04-0.264D-03 0.137D-01-0.626D-01 0.570D-02
 Coeff:      0.104D+01
 Gap=     0.622 Goal=   None    Shift=    0.000
 RMSDP=4.19D-07 MaxDP=1.16D-05 DE=-9.30D-08 OVMax= 3.11D-05

 Cycle   8  Pass 1  IDiag  1:
 E= -152.108384757401     Delta-E=       -0.000000003870 Rises=F Damp=F
 DIIS: error= 1.91D-06 at cycle   8 NSaved=   8.
 NSaved= 8 IEnMin= 8 EnMin= -152.108384757401     IErMin= 8 ErrMin= 1.91D-06
 ErrMax= 1.91D-06  0.00D+00 EMaxC= 1.00D-01 BMatC= 3.99D-10 BMatP= 2.38D-09
 IDIUse=1 WtCom= 1.00D+00 WtEn= 0.00D+00
 Coeff-Com:  0.244D-04-0.199D-03-0.805D-03 0.340D-02 0.127D-01-0.135D+00
 Coeff-Com:  0.242D+00 0.878D+00
 Coeff:      0.244D-04-0.199D-03-0.805D-03 0.340D-02 0.127D-01-0.135D+00
 Coeff:      0.242D+00 0.878D+00
 Gap=     0.622 Goal=   None    Shift=    0.000
 RMSDP=1.28D-07 MaxDP=3.31D-06 DE=-3.87D-09 OVMax= 9.85D-06

 Cycle   9  Pass 1  IDiag  1:
 E= -152.108384757911     Delta-E=       -0.000000000510 Rises=F Damp=F
 DIIS: error= 8.65D-07 at cycle   9 NSaved=   9.
 NSaved= 9 IEnMin= 9 EnMin= -152.108384757911     IErMin= 9 ErrMin= 8.65D-07
 ErrMax= 8.65D-07  0.00D+00 EMaxC= 1.00D-01 BMatC= 2.75D-11 BMatP= 3.99D-10
 IDIUse=1 WtCom= 1.00D+00 WtEn= 0.00D+00
 Coeff-Com:  0.839D-06 0.305D-04 0.125D-03-0.245D-02 0.856D-02 0.805D-02
 Coeff-Com: -0.150D+00-0.617D-01 0.120D+01
 Coeff:      0.839D-06 0.305D-04 0.125D-03-0.245D-02 0.856D-02 0.805D-02
 Coeff:     -0.150D+00-0.617D-01 0.120D+01
 Gap=     0.622 Goal=   None    Shift=    0.000
 RMSDP=5.39D-08 MaxDP=1.07D-06 DE=-5.10D-10 OVMax= 3.05D-06

 Cycle  10  Pass 1  IDiag  1:
 E= -152.108384757962     Delta-E=       -0.000000000051 Rises=F Damp=F
 DIIS: error= 1.01D-07 at cycle  10 NSaved=  10.
 NSaved=10 IEnMin=10 EnMin= -152.108384757962     IErMin=10 ErrMin= 1.01D-07
 ErrMax= 1.01D-07  0.00D+00 EMaxC= 1.00D-01 BMatC= 4.34D-13 BMatP= 2.75D-11
 IDIUse=1 WtCom= 1.00D+00 WtEn= 0.00D+00
 Coeff-Com: -0.597D-06-0.392D-05-0.186D-04 0.527D-03-0.197D-02-0.139D-02
 Coeff-Com:  0.388D-01 0.365D-02-0.358D+00 0.132D+01
 Coeff:     -0.597D-06-0.392D-05-0.186D-04 0.527D-03-0.197D-02-0.139D-02
 Coeff:      0.388D-01 0.365D-02-0.358D+00 0.132D+01
 Gap=     0.622 Goal=   None    Shift=    0.000
 RMSDP=7.17D-09 MaxDP=1.92D-07 DE=-5.11D-11 OVMax= 4.18D-07

 SCF Done:  E(RHF) =  -152.108384758     A.U. after   10 cycles
            NFock= 10  Conv=0.72D-08     -V/T= 2.0020
 KE= 1.518029736323D+02 PE=-4.175863837743D+02 EE= 8.558430878586D+01
 Leave Link  502 at Sat Aug 27 00:32:16 2022, MaxMem=   536870912 cpu:               3.5 elap:               1.0
 (Enter /usr/site/hpc/x86_64/glibc-2.17/broadwell/gaussian/g16_a.03/pgi-16.5/g16/l801.exe)
 Windowed orbitals will be sorted by symmetry type.
 ExpMin= 1.03D-01 ExpMax= 1.53D+04 ExpMxC= 5.22D+02 IAcc=3 IRadAn=         5 AccDes= 0.00D+00
 HarFok:  IExCor=  205 AccDes= 0.00D+00 IRadAn=         5 IDoV=-2 UseB2=F ITyADJ=14
 ICtDFT= 12500011 ScaDFX=  1.000000  1.000000  1.000000  1.000000
 Largest valence mixing into a core orbital is  1.12D-04
 Largest core mixing into a valence orbital is  1.76D-05
 Range of M.O.s used for correlation:     3   116
 NBasis=   116 NAE=    10 NBE=    10 NFC=     2 NFV=     0
 NROrb=    114 NOA=     8 NOB=     8 NVA=   106 NVB=   106
 Leave Link  801 at Sat Aug 27 00:32:17 2022, MaxMem=   536870912 cpu:               0.3 elap:               0.1
 (Enter /usr/site/hpc/x86_64/glibc-2.17/broadwell/gaussian/g16_a.03/pgi-16.5/g16/l804.exe)
 Closed-shell transformation, MDV=   536870912 ITran=4 ISComp=2.
 Unit  1 TFree=        834515 TCopy=        406125.
 Semi-Direct transformation.
 ModeAB=           4 MOrb=             8 LenV=     536375901
 LASXX=      2873146 LTotXX=     2873146 LenRXX=     5831278
 LTotAB=     2958132 MaxLAS=     5596944 LenRXY=           0
 NonZer=     8704424 LenScr=    13107200 LnRSAI=     5596944
 LnScr1=     8912896 LExtra=           0 Total=     33448318
 MaxDsk=          -1 SrtSym=           T ITran=            4
 DoSDTr:  NPSUse=  4
 JobTyp=0 Pass  1:  I=   1 to   8.
 (rs|ai) integrals will be sorted in core.
 Complete sort for first half transformation.
 First half transformation complete.
 Complete sort for second half transformation.
 Second half transformation complete.
 Spin components of T(2) and E(2):
     alpha-alpha T2 =       0.1555783070D-01 E2=     -0.6380674910D-01
     alpha-beta  T2 =       0.9186520119D-01 E2=     -0.3982460221D+00
     beta-beta   T2 =       0.1555783070D-01 E2=     -0.6380674910D-01
 ANorm=    0.1059707914D+01
 E2 =    -0.5258595203D+00 EUMP2 =    -0.15263424427829D+03
 Leave Link  804 at Sat Aug 27 00:32:17 2022, MaxMem=   536870912 cpu:               3.5 elap:               1.0
 (Enter /usr/site/hpc/x86_64/glibc-2.17/broadwell/gaussian/g16_a.03/pgi-16.5/g16/l913.exe)
 CIDS:  MDV=   536870912.
 Frozen-core window:  NFC=   2 NFV=   0.
 IFCWin=0 IBDFC=1 NFBD=     0     0 NFCmp=     0     0 NFFFC=     0     0
 Using DD3R+UMP44R for 1st iteration.
 Using DD4RQ for 2nd and later iterations.
 Keep R2 and R3 ints in memory in symmetry-blocked form, NReq=35357534.
 FoFCou: FMM=F IPFlag=           0 FMFlag=           0 FMFlg1=           0
         NFxFlg=           0 DoJE=F BraDBF=F KetDBF=F FulRan=T
         wScrn=  0.000000 ICntrl=       600 IOpCl=  0 I1Cent=           0 NGrid=           0
         NMat0=    1 NMatS0=   6786 NMatT0=    0 NMatD0=    1 NMtDS0=    0 NMtDT0=    0
 Petite list used in FoFCou.
 CIDS: In Core Option IDoMem=           1.
 CCSD(T)
 =======
 Iterations=  50 Convergence= 0.100D-06
 Produce multiple copies of IABC intergrals
 Iteration Nr.   1
 **********************
 DD1Dir will call FoFMem   1 times, MxPair=        72
 NAB=    36 NAA=     0 NBB=     0.
 MP4(R+Q)=  0.75470454D-02
 Maximum subspace dimension=  5
 A-vector RMS=  1.7401006D-03 Max=  6.1868741D-03 conv= 1.00D-05.
 RLE energy=       -0.5257990188
 E3=       -0.75573812D-02        EUMP3=      -0.15264180166D+03
 E4(DQ)=   -0.15492279D-02        UMP4(DQ)=   -0.15264335089D+03
 E4(SDQ)=  -0.46000048D-02        UMP4(SDQ)=  -0.15264640166D+03
 VARIATIONAL ENERGIES WITH THE FIRST-ORDER WAVEFUNCTION:
 DE(Corr)= -0.52579902     E(Corr)=     -152.63418378    
 NORM(A)=   0.10600717D+01
 Iteration Nr.   2
 **********************
 DD1Dir will call FoFMem   1 times, MxPair=        72
 NAB=    36 NAA=     0 NBB=     0.
 A-vector RMS=  2.1268955D-04 Max=  2.3197234D-03 conv= 1.00D-05.
 RLE energy=       -0.5368473128
 DE(Corr)= -0.53568885     E(CORR)=     -152.64407360     Delta=-9.89D-03
 NORM(A)=   0.10638131D+01
 Iteration Nr.   3
 **********************
 DD1Dir will call FoFMem   1 times, MxPair=        72
 NAB=    36 NAA=     0 NBB=     0.
 A-vector RMS=  1.4062234D-04 Max=  7.9791620D-04 conv= 1.00D-05.
 RLE energy=       -0.5373423284
 DE(Corr)= -0.53675771     E(CORR)=     -152.64514246     Delta=-1.07D-03
 NORM(A)=   0.10644491D+01
 Iteration Nr.   4
 **********************
 DD1Dir will call FoFMem   1 times, MxPair=        72
 NAB=    36 NAA=     0 NBB=     0.
 A-vector RMS=  2.6231147D-05 Max=  1.3825576D-04 conv= 1.00D-05.
 RLE energy=       -0.5374252602
 DE(Corr)= -0.53739008     E(CORR)=     -152.64577484     Delta=-6.32D-04
 NORM(A)=   0.10645593D+01
 Iteration Nr.   5
 **********************
 DD1Dir will call FoFMem   1 times, MxPair=        72
 NAB=    36 NAA=     0 NBB=     0.
 A-vector RMS=  1.8602426D-05 Max=  1.4658362D-04 conv= 1.00D-05.
 RLE energy=       -0.5374336650
 DE(Corr)= -0.53742693     E(CORR)=     -152.64581169     Delta=-3.68D-05
 NORM(A)=   0.10645687D+01
 Iteration Nr.   6
 **********************
 DD1Dir will call FoFMem   1 times, MxPair=        72
 NAB=    36 NAA=     0 NBB=     0.
 A-vector RMS=  5.5749988D-06 Max=  4.3146300D-05 conv= 1.00D-05.
 RLE energy=       -0.5374246449
 DE(Corr)= -0.53743010     E(CORR)=     -152.64581486     Delta=-3.17D-06
 NORM(A)=   0.10645687D+01
 Iteration Nr.   7
 **********************
 DD1Dir will call FoFMem   1 times, MxPair=        72
 NAB=    36 NAA=     0 NBB=     0.
 A-vector RMS=  2.6597602D-06 Max=  2.0650598D-05 conv= 1.00D-05.
 RLE energy=       -0.5374310851
 DE(Corr)= -0.53743025     E(CORR)=     -152.64581501     Delta=-1.52D-07
 NORM(A)=   0.10645710D+01
 Iteration Nr.   8
 **********************
 DD1Dir will call FoFMem   1 times, MxPair=        72
 NAB=    36 NAA=     0 NBB=     0.
 A-vector RMS=  6.3835181D-07 Max=  5.4493074D-06 conv= 1.00D-05.
 RLE energy=       -0.5374296527
 DE(Corr)= -0.53742982     E(CORR)=     -152.64581458     Delta= 4.33D-07
 NORM(A)=   0.10645711D+01
 Iteration Nr.   9
 **********************
 DD1Dir will call FoFMem   1 times, MxPair=        72
 NAB=    36 NAA=     0 NBB=     0.
 A-vector RMS=  1.6936185D-07 Max=  1.5129629D-06 conv= 1.00D-05.
 RLE energy=       -0.5374299989
 DE(Corr)= -0.53743006     E(CORR)=     -152.64581482     Delta=-2.37D-07
 NORM(A)=   0.10645714D+01
 Iteration Nr.  10
 **********************
 DD1Dir will call FoFMem   1 times, MxPair=        72
 NAB=    36 NAA=     0 NBB=     0.
 A-vector RMS=  5.9268358D-08 Max=  5.0484409D-07 conv= 1.00D-05.
 RLE energy=       -0.5374301026
 DE(Corr)= -0.53743008     E(CORR)=     -152.64581483     Delta=-1.81D-08
 NORM(A)=   0.10645714D+01
 CI/CC converged in   10 iterations to DelEn=-1.81D-08 Conv= 1.00D-07 ErrA1= 5.93D-08 Conv= 1.00D-05
 Wavefunction amplitudes converged. E(Corr)=     -152.64581483    
 Largest amplitude= 4.80D-02
 IPart=  2 IA=    7   11.05% done.
 IPart=  4 IA=   13   21.46% done.
 IPart=  1 IA=   19   31.21% done.
 IPart=  2 IA=   25   40.32% done.
 IPart=  2 IA=   32   50.13% done.
 IPart=  3 IA=   40   60.27% done.
 IPart=  2 IA=   49   70.30% done.
 IPart=  1 IA=   60   80.58% done.
 IPart=  4 IA=   74   90.51% done.
 Time for triples=       45.78 seconds.
 T4(CCSD)= -0.16023478D-01
 T5(CCSD)=  0.40192904D-03
 CCSD(T)= -0.15266143638D+03
 Discarding MO integrals.
 Leave Link  913 at Sat Aug 27 00:32:35 2022, MaxMem=   536870912 cpu:              68.7 elap:              17.5
 (Enter /usr/site/hpc/x86_64/glibc-2.17/broadwell/gaussian/g16_a.03/pgi-16.5/g16/l601.exe)
 Copying SCF densities to generalized density rwf, IOpCl= 0 IROHF=0.

 **********************************************************************

            Population analysis using the SCF density.

 **********************************************************************

 Orbital symmetries:
       Occupied  (A') (A') (A') (A') (A') (A') (A') (A') (A") (A")
       Virtual   (A') (A') (A') (A') (A') (A') (A') (A') (A') (A')
                 (A") (A') (A") (A') (A') (A") (A') (A") (A") (A")
                 (A') (A') (A') (A') (A') (A') (A') (A') (A") (A")
                 (A") (A") (A') (A') (A') (A') (A') (A') (A') (A')
                 (A') (A') (A") (A") (A') (A') (A") (A") (A') (A')
                 (A") (A") (A') (A') (A') (A') (A") (A") (A") (A")
                 (A') (A') (A') (A') (A") (A") (A') (A') (A') (A')
                 (A") (A") (A') (A') (A') (A') (A') (A') (A') (A')
                 (A") (A") (A') (A') (A") (A") (A") (A") (A') (A')
                 (A") (A") (A') (A') (A') (A') (A") (A") (A') (A')
                 (A') (A') (A') (A') (A') (A')
 The electronic state is 1-A'.
 Alpha  occ. eigenvalues --  -20.56319 -20.54945  -1.33618  -1.32252  -0.71027
 Alpha  occ. eigenvalues --   -0.69647  -0.57106  -0.55719  -0.50734  -0.49373
 Alpha virt. eigenvalues --    0.12811   0.15148   0.19425   0.21478   0.53308
 Alpha virt. eigenvalues --    0.55004   0.56523   0.57884   0.66702   0.69031
 Alpha virt. eigenvalues --    0.78162   0.78986   0.79483   0.80485   0.82740
 Alpha virt. eigenvalues --    0.84100   0.84706   0.85441   0.96499   0.97843
 Alpha virt. eigenvalues --    1.13785   1.15308   1.17215   1.17788   1.50963
 Alpha virt. eigenvalues --    1.51254   1.52370   1.52888   1.99877   2.01243
 Alpha virt. eigenvalues --    2.05946   2.07318   2.08815   2.10150   2.14108
 Alpha virt. eigenvalues --    2.15465   2.24654   2.25789   2.60718   2.62330
 Alpha virt. eigenvalues --    2.92008   2.94083   3.38598   3.39963   3.49159
 Alpha virt. eigenvalues --    3.50533   3.52364   3.53718   3.58746   3.60160
 Alpha virt. eigenvalues --    3.77878   3.79243   3.84682   3.86004   3.86981
 Alpha virt. eigenvalues --    3.88233   3.92810   3.94180   4.02266   4.03635
 Alpha virt. eigenvalues --    4.07411   4.08867   4.14516   4.15940   4.29339
 Alpha virt. eigenvalues --    4.30713   4.39186   4.40505   4.44820   4.46193
 Alpha virt. eigenvalues --    4.65737   4.67097   4.80146   4.81634   5.03499
 Alpha virt. eigenvalues --    5.04869   5.23287   5.24682   5.53359   5.54612
 Alpha virt. eigenvalues --    5.97113   5.98485   6.39590   6.40964   6.85369
 Alpha virt. eigenvalues --    6.86746   6.88858   6.90230   6.93791   6.95194
 Alpha virt. eigenvalues --    6.98304   6.99680   7.07159   7.08460   7.11915
 Alpha virt. eigenvalues --    7.13056   7.17471   7.18852   7.46368   7.47833
 Alpha virt. eigenvalues --    7.69567   7.70907   8.14275   8.15782  12.48217
 Alpha virt. eigenvalues --   12.50577
          Condensed to atoms (all electrons):
               1          2          3          4          5          6
     1  O    7.821137   0.346337   0.345431  -0.000005   0.000000   0.000003
     2  H    0.346337   0.429415  -0.036785   0.000408  -0.000014  -0.000030
     3  H    0.345431  -0.036785   0.439580  -0.000006   0.000000   0.000002
     4  O   -0.000005   0.000408  -0.000006   7.821382   0.347535   0.344327
     5  H    0.000000  -0.000014   0.000000   0.347535   0.429163  -0.036088
     6  H    0.000003  -0.000030   0.000002   0.344327  -0.036088   0.437094
 Mulliken charges:
               1
     1  O   -0.512902
     2  H    0.260670
     3  H    0.251778
     4  O   -0.513641
     5  H    0.259402
     6  H    0.254693
 Sum of Mulliken charges =  -0.00000
 Mulliken charges with hydrogens summed into heavy atoms:
               1
     1  O   -0.000455
     4  O    0.000455
 Electronic spatial extent (au):  <R**2>=            521.0800
 Charge=             -0.0000 electrons
 Dipole moment (field-independent basis, Debye):
    X=             -2.5168    Y=             -2.9489    Z=             -0.0000  Tot=              3.8769
 Quadrupole moment (field-independent basis, Debye-Ang):
   XX=             -9.8108   YY=             -7.2733   ZZ=            -14.7146
   XY=             -3.7992   XZ=             -0.0000   YZ=              0.0000
 Traceless Quadrupole moment (field-independent basis, Debye-Ang):
   XX=              0.7888   YY=              3.3263   ZZ=             -4.1151
   XY=             -3.7992   XZ=             -0.0000   YZ=              0.0000
 Octapole moment (field-independent basis, Debye-Ang**2):
  XXX=             -3.4668  YYY=            -55.6076  ZZZ=             -0.0000  XYY=            -17.1962
  XXY=             -2.6522  XXZ=             -0.0000  XZZ=             -0.3288  YZZ=             -0.4071
  YYZ=             -0.0000  XYZ=             -0.0000
 Hexadecapole moment (field-independent basis, Debye-Ang**3):
 XXXX=            -11.3102 YYYY=           -393.7381 ZZZZ=            -11.3415 XXXY=              0.9551
 XXXZ=              0.0000 YYYX=            -58.9770 YYYZ=             -0.0000 ZZZX=             -0.0000
 ZZZY=             -0.0000 XXYY=            -64.7464 XXZZ=             -4.3943 YYZZ=           -103.7655
 XXYZ=             -0.0000 YYXZ=             -0.0000 ZZXY=              0.6924
 N-N= 2.809071659819D+01 E-N=-4.175863825950D+02  KE= 1.518029736323D+02
 Symmetry A'   KE= 1.427667930515D+02
 Symmetry A"   KE= 9.036180580811D+00
 Leave Link  601 at Sat Aug 27 00:32:35 2022, MaxMem=   536870912 cpu:               0.1 elap:               0.0
 (Enter /usr/site/hpc/x86_64/glibc-2.17/broadwell/gaussian/g16_a.03/pgi-16.5/g16/l9999.exe)
 1\1\GINC-N004\SP\RCCSD(T)-FC\CC-pVTZ\H4O2\C7441284\27-Aug-2022\0\\#p C
 CSD(T)/cc-pVTZ\\H2O_H2O_3932\\0,1\O,0,0.,-0.009833,0.\H,0,-0.799571,-0
 .580965,0.\H,0,0.799571,-0.580965,0.\O,0,-4.213071,-3.015099,0.\H,0,-5
 .18279,-3.173691,0.\H,0,-3.748563,-3.880974,0.\\Version=ES64L-G16RevA.
 03\State=1-A'\HF=-152.1083848\MP2=-152.6342443\MP3=-152.6418017\MP4D=-
 152.6508979\MP4DQ=-152.6433509\MP4SDQ=-152.6464017\CCSD=-152.6458148\C
 CSD(T)=-152.6614364\RMSD=7.173e-09\PG=CS [SG(H4O2)]\\@


 SUPPORT THE RIGHT TO ARM BEARS!
 (ADD A CLAWS TO THE BILL OF RIGHTS)
 Job cpu time:       0 days  0 hours  1 minutes 18.3 seconds.
 Elapsed time:       0 days  0 hours  0 minutes 20.2 seconds.
 File lengths (MBytes):  RWF=    324 Int=      0 D2E=      0 Chk=      8 Scr=      8
 Normal termination of Gaussian 16 at Sat Aug 27 00:32:35 2022.
