 Entering Gaussian System, Link 0=g16
 Input=H2O_H2O_3343.com
 Output=H2O_H2O_3343.log
 Initial command:
 /usr/site/hpc/x86_64/glibc-2.17/broadwell/gaussian/g16_a.03/pgi-16.5/g16/l1.exe "/gpfs/gpfs1/scratch/c7441284/ForceFieldModel/FittingData2/Gau-508424.inp" -scrdir="/gpfs/gpfs1/scratch/c7441284/ForceFieldModel/FittingData2/"
 Entering Link 1 = /usr/site/hpc/x86_64/glibc-2.17/broadwell/gaussian/g16_a.03/pgi-16.5/g16/l1.exe PID=    508425.
  
 Copyright (c) 1988,1990,1992,1993,1995,1998,2003,2009,2016,
            Gaussian, Inc.  All Rights Reserved.
  
 This is part of the Gaussian(R) 16 program.  It is based on
 the Gaussian(R) 09 system (copyright 2009, Gaussian, Inc.),
 the Gaussian(R) 03 system (copyright 2003, Gaussian, Inc.),
 the Gaussian(R) 98 system (copyright 1998, Gaussian, Inc.),
 the Gaussian(R) 94 system (copyright 1995, Gaussian, Inc.),
 the Gaussian 92(TM) system (copyright 1992, Gaussian, Inc.),
 the Gaussian 90(TM) system (copyright 1990, Gaussian, Inc.),
 the Gaussian 88(TM) system (copyright 1988, Gaussian, Inc.),
 the Gaussian 86(TM) system (copyright 1986, Carnegie Mellon
 University), and the Gaussian 82(TM) system (copyright 1983,
 Carnegie Mellon University). Gaussian is a federally registered
 trademark of Gaussian, Inc.
  
 This software contains proprietary and confidential information,
 including trade secrets, belonging to Gaussian, Inc.
  
 This software is provided under written license and may be
 used, copied, transmitted, or stored only in accord with that
 written license.
  
 The following legend is applicable only to US Government
 contracts under FAR:
  
                    RESTRICTED RIGHTS LEGEND
  
 Use, reproduction and disclosure by the US Government is
 subject to restrictions as set forth in subparagraphs (a)
 and (c) of the Commercial Computer Software - Restricted
 Rights clause in FAR 52.227-19.
  
 Gaussian, Inc.
 340 Quinnipiac St., Bldg. 40, Wallingford CT 06492
  
  
 ---------------------------------------------------------------
 Warning -- This program may not be used in any manner that
 competes with the business of Gaussian, Inc. or will provide
 assistance to any competitor of Gaussian, Inc.  The licensee
 of this program is prohibited from giving any competitor of
 Gaussian, Inc. access to this program.  By using this program,
 the user acknowledges that Gaussian, Inc. is engaged in the
 business of creating and licensing software in the field of
 computational chemistry and represents and warrants to the
 licensee that it is not a competitor of Gaussian, Inc. and that
 it will not use this program in any manner prohibited above.
 ---------------------------------------------------------------
  

 Cite this work as:
 Gaussian 16, Revision A.03,
 M. J. Frisch, G. W. Trucks, H. B. Schlegel, G. E. Scuseria, 
 M. A. Robb, J. R. Cheeseman, G. Scalmani, V. Barone, 
 G. A. Petersson, H. Nakatsuji, X. Li, M. Caricato, A. V. Marenich, 
 J. Bloino, B. G. Janesko, R. Gomperts, B. Mennucci, H. P. Hratchian, 
 J. V. Ortiz, A. F. Izmaylov, J. L. Sonnenberg, D. Williams-Young, 
 F. Ding, F. Lipparini, F. Egidi, J. Goings, B. Peng, A. Petrone, 
 T. Henderson, D. Ranasinghe, V. G. Zakrzewski, J. Gao, N. Rega, 
 G. Zheng, W. Liang, M. Hada, M. Ehara, K. Toyota, R. Fukuda, 
 J. Hasegawa, M. Ishida, T. Nakajima, Y. Honda, O. Kitao, H. Nakai, 
 T. Vreven, K. Throssell, J. A. Montgomery, Jr., J. E. Peralta, 
 F. Ogliaro, M. J. Bearpark, J. J. Heyd, E. N. Brothers, K. N. Kudin, 
 V. N. Staroverov, T. A. Keith, R. Kobayashi, J. Normand, 
 K. Raghavachari, A. P. Rendell, J. C. Burant, S. S. Iyengar, 
 J. Tomasi, M. Cossi, J. M. Millam, M. Klene, C. Adamo, R. Cammi, 
 J. W. Ochterski, R. L. Martin, K. Morokuma, O. Farkas, 
 J. B. Foresman, and D. J. Fox, Gaussian, Inc., Wallingford CT, 2016.
 
 ******************************************
 Gaussian 16:  ES64L-G16RevA.03 25-Dec-2016
                26-Aug-2022 
 ******************************************
 %NProcShared=4
 Will use up to    4 processors via shared memory.
 %Mem=4GB
 %Chk=H2O_H2O_3343.chk
 ------------------
 #p CCSD(T)/cc-pVTZ
 ------------------
 1/38=1,172=1/1;
 2/12=2,17=6,18=5,40=1/2;
 3/5=16,6=1,11=9,25=1,30=1/1,2,3;
 4//1;
 5/5=2,38=5/2;
 8/6=4,9=120000,10=1/1,4;
 9/5=7,14=2/13;
 6/7=2,8=2,9=2,10=2/1;
 99/5=1,9=1/99;
 Leave Link    1 at Fri Aug 26 21:10:15 2022, MaxMem=   536870912 cpu:               0.2 elap:               0.1
 (Enter /usr/site/hpc/x86_64/glibc-2.17/broadwell/gaussian/g16_a.03/pgi-16.5/g16/l101.exe)
 ------------
 H2O_H2O_3343
 ------------
 Symbolic Z-matrix:
 Charge =  0 Multiplicity = 1
 O                     0.       -0.00983   0. 
 H                    -0.79957  -0.58097   0. 
 H                     0.79957  -0.58097   0. 
 O                    -3.82831  -2.73183   0. 
 H                    -4.66195  -2.21168   0. 
 H                    -4.04999  -3.6891    0. 
 
 ITRead=  0  0  0  0  0  0
 MicOpt= -1 -1 -1 -1 -1 -1
 NAtoms=      6 NQM=        6 NQMF=       0 NMMI=      0 NMMIF=      0
                NMic=       0 NMicF=      0.
                    Isotopes and Nuclear Properties:
 (Nuclear quadrupole moments (NQMom) in fm**2, nuclear magnetic moments (NMagM)
  in nuclear magnetons)

  Atom         1           2           3           4           5           6
 IAtWgt=          16           1           1          16           1           1
 AtmWgt=  15.9949146   1.0078250   1.0078250  15.9949146   1.0078250   1.0078250
 NucSpn=           0           1           1           0           1           1
 AtZEff=  -0.0000000  -0.0000000  -0.0000000  -0.0000000  -0.0000000  -0.0000000
 NQMom=    0.0000000   0.0000000   0.0000000   0.0000000   0.0000000   0.0000000
 NMagM=    0.0000000   2.7928460   2.7928460   0.0000000   2.7928460   2.7928460
 AtZNuc=   8.0000000   1.0000000   1.0000000   8.0000000   1.0000000   1.0000000
 Leave Link  101 at Fri Aug 26 21:10:15 2022, MaxMem=   536870912 cpu:               0.3 elap:               0.1
 (Enter /usr/site/hpc/x86_64/glibc-2.17/broadwell/gaussian/g16_a.03/pgi-16.5/g16/l202.exe)
                          Input orientation:                          
 ---------------------------------------------------------------------
 Center     Atomic      Atomic             Coordinates (Angstroms)
 Number     Number       Type             X           Y           Z
 ---------------------------------------------------------------------
      1          8           0        0.000000   -0.009833    0.000000
      2          1           0       -0.799571   -0.580965    0.000000
      3          1           0        0.799571   -0.580965    0.000000
      4          8           0       -3.828313   -2.731829    0.000000
      5          1           0       -4.661953   -2.211684    0.000000
      6          1           0       -4.049987   -3.689099    0.000000
 ---------------------------------------------------------------------
                    Distance matrix (angstroms):
                    1          2          3          4          5
     1  O    0.000000
     2  H    0.982601   0.000000
     3  H    0.982601   1.599142   0.000000
     4  O    4.697366   3.714767   5.103286   0.000000
     5  H    5.155769   4.192522   5.699780   0.982602   0.000000
     6  H    5.471690   4.497299   5.760096   0.982601   1.599143
                    6
     6  H    0.000000
 Stoichiometry    H4O2
 Framework group  CS[SG(H4O2)]
 Deg. of freedom     9
 Full point group                 CS      NOp   2
 Largest Abelian subgroup         CS      NOp   2
 Largest concise Abelian subgroup C1      NOp   1
                         Standard orientation:                         
 ---------------------------------------------------------------------
 Center     Atomic      Atomic             Coordinates (Angstroms)
 Number     Number       Type             X           Y           Z
 ---------------------------------------------------------------------
      1          8           0        0.033783    2.437447    0.000000
      2          1           0        0.031645    1.454848    0.000000
      3          1           0       -0.895014    2.758135   -0.000000
      4          8           0        0.033783   -2.259918    0.000000
      5          1           0        0.940769   -2.637918    0.000000
      6          1           0       -0.617930   -2.995293   -0.000000
 ---------------------------------------------------------------------
 Rotational constants (GHZ):         244.2986135           2.4949247           2.4697026
 Leave Link  202 at Fri Aug 26 21:10:15 2022, MaxMem=   536870912 cpu:               0.1 elap:               0.0
 (Enter /usr/site/hpc/x86_64/glibc-2.17/broadwell/gaussian/g16_a.03/pgi-16.5/g16/l301.exe)
 Standard basis: CC-pVTZ (5D, 7F)
 Ernie: Thresh=  0.10000D-02 Tol=  0.10000D-05 Strict=F.
 Ernie:  6 primitive shells out of 84 were deleted.
 There are    92 symmetry adapted cartesian basis functions of A'  symmetry.
 There are    38 symmetry adapted cartesian basis functions of A"  symmetry.
 There are    80 symmetry adapted basis functions of A'  symmetry.
 There are    36 symmetry adapted basis functions of A"  symmetry.
   116 basis functions,   172 primitive gaussians,   130 cartesian basis functions
    10 alpha electrons       10 beta electrons
       nuclear repulsion energy        29.0977529163 Hartrees.
 IExCor=    0 DFT=F Ex=HF Corr=None ExCW=0 ScaHFX=  1.000000
 ScaDFX=  1.000000  1.000000  1.000000  1.000000 ScalE2=  1.000000  1.000000
 IRadAn=      5 IRanWt=     -1 IRanGd=            0 ICorTp=0 IEmpDi=  4
 NAtoms=    6 NActive=    6 NUniq=    6 SFac= 1.00D+00 NAtFMM=   60 NAOKFM=F Big=F
 Integral buffers will be    131072 words long.
 Raffenetti 1 integral format.
 Two-electron integral symmetry is turned on.
 Leave Link  301 at Fri Aug 26 21:10:15 2022, MaxMem=   536870912 cpu:               0.2 elap:               0.1
 (Enter /usr/site/hpc/x86_64/glibc-2.17/broadwell/gaussian/g16_a.03/pgi-16.5/g16/l302.exe)
 NPDir=0 NMtPBC=     1 NCelOv=     1 NCel=       1 NClECP=     1 NCelD=      1
         NCelK=      1 NCelE2=     1 NClLst=     1 CellRange=     0.0.
 One-electron integrals computed using PRISM.
 One-electron integral symmetry used in STVInt
 NBasis=   116 RedAO= T EigKep=  2.59D-03  NBF=    80    36
 NBsUse=   116 1.00D-06 EigRej= -1.00D+00 NBFU=    80    36
 Leave Link  302 at Fri Aug 26 21:10:15 2022, MaxMem=   536870912 cpu:               0.4 elap:               0.1
 (Enter /usr/site/hpc/x86_64/glibc-2.17/broadwell/gaussian/g16_a.03/pgi-16.5/g16/l303.exe)
 DipDrv:  MaxL=1.
 Leave Link  303 at Fri Aug 26 21:10:15 2022, MaxMem=   536870912 cpu:               0.1 elap:               0.0
 (Enter /usr/site/hpc/x86_64/glibc-2.17/broadwell/gaussian/g16_a.03/pgi-16.5/g16/l401.exe)
 ExpMin= 1.03D-01 ExpMax= 1.53D+04 ExpMxC= 5.22D+02 IAcc=3 IRadAn=         5 AccDes= 0.00D+00
 Harris functional with IExCor=  205 and IRadAn=       5 diagonalized for initial guess.
 HarFok:  IExCor=  205 AccDes= 0.00D+00 IRadAn=         5 IDoV= 1 UseB2=F ITyADJ=14
 ICtDFT=  3500011 ScaDFX=  1.000000  1.000000  1.000000  1.000000
 FoFCou: FMM=F IPFlag=           0 FMFlag=      100000 FMFlg1=           0
         NFxFlg=           0 DoJE=T BraDBF=F KetDBF=T FulRan=T
         wScrn=  0.000000 ICntrl=       500 IOpCl=  0 I1Cent=   200000004 NGrid=           0
         NMat0=    1 NMatS0=      1 NMatT0=    0 NMatD0=    1 NMtDS0=    0 NMtDT0=    0
 Petite list used in FoFCou.
 Harris En= -152.298802851821    
 JPrj=0 DoOrth=F DoCkMO=F.
 Initial guess orbital symmetries:
       Occupied  (A') (A') (A') (A') (A') (A') (A') (A') (A") (A")
       Virtual   (A') (A') (A') (A') (A') (A') (A') (A') (A') (A')
                 (A") (A") (A') (A') (A') (A") (A") (A') (A") (A")
                 (A') (A') (A') (A') (A') (A') (A') (A') (A") (A")
                 (A") (A") (A') (A') (A') (A') (A') (A') (A') (A')
                 (A') (A') (A") (A") (A') (A') (A") (A") (A") (A")
                 (A') (A') (A') (A') (A') (A') (A") (A") (A') (A')
                 (A') (A') (A") (A") (A") (A") (A') (A') (A') (A')
                 (A") (A") (A') (A') (A') (A') (A') (A') (A') (A')
                 (A") (A") (A') (A') (A") (A") (A") (A") (A') (A')
                 (A") (A") (A') (A') (A') (A') (A") (A") (A') (A')
                 (A') (A') (A') (A') (A') (A')
 The electronic state of the initial guess is 1-A'.
 Leave Link  401 at Fri Aug 26 21:10:15 2022, MaxMem=   536870912 cpu:               0.7 elap:               0.2
 (Enter /usr/site/hpc/x86_64/glibc-2.17/broadwell/gaussian/g16_a.03/pgi-16.5/g16/l502.exe)
 Keep R1 ints in memory in symmetry-blocked form, NReq=34823457.
 FoFCou: FMM=F IPFlag=           0 FMFlag=           0 FMFlg1=           0
         NFxFlg=           0 DoJE=F BraDBF=F KetDBF=F FulRan=T
         wScrn=  0.000000 ICntrl=       600 IOpCl=  0 I1Cent=           0 NGrid=           0
         NMat0=    1 NMatS0=   6786 NMatT0=    0 NMatD0=    1 NMtDS0=    0 NMtDT0=    0
 Petite list used in FoFCou.
 Closed shell SCF:
 Using DIIS extrapolation, IDIIS=  1040.
 NGot=   536870912 LenX=   525040673 LenY=   525023332
 Requested convergence on RMS density matrix=1.00D-08 within 128 cycles.
 Requested convergence on MAX density matrix=1.00D-06.
 Requested convergence on             energy=1.00D-06.
 No special actions if energy rises.

 Cycle   1  Pass 1  IDiag  1:
 E= -151.930975713634    
 DIIS: error= 6.59D-02 at cycle   1 NSaved=   1.
 NSaved= 1 IEnMin= 1 EnMin= -151.930975713634     IErMin= 1 ErrMin= 6.59D-02
 ErrMax= 6.59D-02  0.00D+00 EMaxC= 1.00D-01 BMatC= 3.98D-01 BMatP= 3.98D-01
 IDIUse=3 WtCom= 3.41D-01 WtEn= 6.59D-01
 Coeff-Com:  0.100D+01
 Coeff-En:   0.100D+01
 Coeff:      0.100D+01
 Gap=     0.508 Goal=   None    Shift=    0.000
 GapD=    0.508 DampG=2.000 DampE=0.500 DampFc=1.0000 IDamp=-1.
 RMSDP=2.50D-03 MaxDP=6.73D-02              OVMax= 1.26D-01

 Cycle   2  Pass 1  IDiag  1:
 E= -152.041885382210     Delta-E=       -0.110909668576 Rises=F Damp=F
 DIIS: error= 4.13D-02 at cycle   2 NSaved=   2.
 NSaved= 2 IEnMin= 2 EnMin= -152.041885382210     IErMin= 2 ErrMin= 4.13D-02
 ErrMax= 4.13D-02  0.00D+00 EMaxC= 1.00D-01 BMatC= 1.11D-01 BMatP= 3.98D-01
 IDIUse=3 WtCom= 5.87D-01 WtEn= 4.13D-01
 Coeff-Com:  0.318D+00 0.682D+00
 Coeff-En:   0.165D+00 0.835D+00
 Coeff:      0.255D+00 0.745D+00
 Gap=     0.642 Goal=   None    Shift=    0.000
 RMSDP=1.33D-03 MaxDP=3.97D-02 DE=-1.11D-01 OVMax= 5.69D-02

 Cycle   3  Pass 1  IDiag  1:
 E= -152.105727430306     Delta-E=       -0.063842048096 Rises=F Damp=F
 DIIS: error= 8.98D-03 at cycle   3 NSaved=   3.
 NSaved= 3 IEnMin= 3 EnMin= -152.105727430306     IErMin= 3 ErrMin= 8.98D-03
 ErrMax= 8.98D-03  0.00D+00 EMaxC= 1.00D-01 BMatC= 5.94D-03 BMatP= 1.11D-01
 IDIUse=3 WtCom= 9.10D-01 WtEn= 8.98D-02
 Coeff-Com: -0.303D-01 0.156D+00 0.874D+00
 Coeff-En:   0.000D+00 0.000D+00 0.100D+01
 Coeff:     -0.276D-01 0.142D+00 0.885D+00
 Gap=     0.614 Goal=   None    Shift=    0.000
 RMSDP=2.43D-04 MaxDP=5.75D-03 DE=-6.38D-02 OVMax= 1.33D-02

 Cycle   4  Pass 1  IDiag  1:
 E= -152.109415808790     Delta-E=       -0.003688378484 Rises=F Damp=F
 DIIS: error= 8.44D-04 at cycle   4 NSaved=   4.
 NSaved= 4 IEnMin= 4 EnMin= -152.109415808790     IErMin= 4 ErrMin= 8.44D-04
 ErrMax= 8.44D-04  0.00D+00 EMaxC= 1.00D-01 BMatC= 3.63D-05 BMatP= 5.94D-03
 IDIUse=3 WtCom= 9.92D-01 WtEn= 8.44D-03
 Coeff-Com:  0.676D-02-0.610D-01-0.238D+00 0.129D+01
 Coeff-En:   0.000D+00 0.000D+00 0.000D+00 0.100D+01
 Coeff:      0.671D-02-0.605D-01-0.236D+00 0.129D+01
 Gap=     0.616 Goal=   None    Shift=    0.000
 RMSDP=5.17D-05 MaxDP=1.04D-03 DE=-3.69D-03 OVMax= 2.20D-03

 Cycle   5  Pass 1  IDiag  1:
 E= -152.109464487259     Delta-E=       -0.000048678469 Rises=F Damp=F
 DIIS: error= 1.91D-04 at cycle   5 NSaved=   5.
 NSaved= 5 IEnMin= 5 EnMin= -152.109464487259     IErMin= 5 ErrMin= 1.91D-04
 ErrMax= 1.91D-04  0.00D+00 EMaxC= 1.00D-01 BMatC= 1.34D-06 BMatP= 3.63D-05
 IDIUse=3 WtCom= 9.98D-01 WtEn= 1.91D-03
 Coeff-Com:  0.553D-03 0.296D-03-0.359D-02-0.219D+00 0.122D+01
 Coeff-En:   0.000D+00 0.000D+00 0.000D+00 0.000D+00 0.100D+01
 Coeff:      0.552D-03 0.295D-03-0.359D-02-0.219D+00 0.122D+01
 Gap=     0.617 Goal=   None    Shift=    0.000
 RMSDP=1.44D-05 MaxDP=3.08D-04 DE=-4.87D-05 OVMax= 6.92D-04

 Cycle   6  Pass 1  IDiag  1:
 E= -152.109467261317     Delta-E=       -0.000002774057 Rises=F Damp=F
 DIIS: error= 2.79D-05 at cycle   6 NSaved=   6.
 NSaved= 6 IEnMin= 6 EnMin= -152.109467261317     IErMin= 6 ErrMin= 2.79D-05
 ErrMax= 2.79D-05  0.00D+00 EMaxC= 1.00D-01 BMatC= 4.39D-08 BMatP= 1.34D-06
 IDIUse=1 WtCom= 1.00D+00 WtEn= 0.00D+00
 Coeff-Com: -0.187D-03 0.172D-02 0.656D-02-0.378D-01-0.420D-01 0.107D+01
 Coeff:     -0.187D-03 0.172D-02 0.656D-02-0.378D-01-0.420D-01 0.107D+01
 Gap=     0.617 Goal=   None    Shift=    0.000
 RMSDP=2.71D-06 MaxDP=7.08D-05 DE=-2.77D-06 OVMax= 1.48D-04

 Cycle   7  Pass 1  IDiag  1:
 E= -152.109467354455     Delta-E=       -0.000000093139 Rises=F Damp=F
 DIIS: error= 9.28D-06 at cycle   7 NSaved=   7.
 NSaved= 7 IEnMin= 7 EnMin= -152.109467354455     IErMin= 7 ErrMin= 9.28D-06
 ErrMax= 9.28D-06  0.00D+00 EMaxC= 1.00D-01 BMatC= 8.14D-09 BMatP= 4.39D-08
 IDIUse=1 WtCom= 1.00D+00 WtEn= 0.00D+00
 Coeff-Com: -0.974D-04 0.345D-03 0.166D-02 0.148D-01-0.141D+00 0.278D+00
 Coeff-Com:  0.846D+00
 Coeff:     -0.974D-04 0.345D-03 0.166D-02 0.148D-01-0.141D+00 0.278D+00
 Coeff:      0.846D+00
 Gap=     0.617 Goal=   None    Shift=    0.000
 RMSDP=6.92D-07 MaxDP=2.11D-05 DE=-9.31D-08 OVMax= 4.63D-05

 Cycle   8  Pass 1  IDiag  1:
 E= -152.109467364237     Delta-E=       -0.000000009782 Rises=F Damp=F
 DIIS: error= 2.49D-06 at cycle   8 NSaved=   8.
 NSaved= 8 IEnMin= 8 EnMin= -152.109467364237     IErMin= 8 ErrMin= 2.49D-06
 ErrMax= 2.49D-06  0.00D+00 EMaxC= 1.00D-01 BMatC= 4.52D-10 BMatP= 8.14D-09
 IDIUse=1 WtCom= 1.00D+00 WtEn= 0.00D+00
 Coeff-Com:  0.257D-04-0.215D-03-0.869D-03 0.391D-02 0.126D-01-0.122D+00
 Coeff-Com: -0.545D-01 0.116D+01
 Coeff:      0.257D-04-0.215D-03-0.869D-03 0.391D-02 0.126D-01-0.122D+00
 Coeff:     -0.545D-01 0.116D+01
 Gap=     0.617 Goal=   None    Shift=    0.000
 RMSDP=1.99D-07 MaxDP=3.94D-06 DE=-9.78D-09 OVMax= 1.43D-05

 Cycle   9  Pass 1  IDiag  1:
 E= -152.109467365130     Delta-E=       -0.000000000893 Rises=F Damp=F
 DIIS: error= 8.89D-07 at cycle   9 NSaved=   9.
 NSaved= 9 IEnMin= 9 EnMin= -152.109467365130     IErMin= 9 ErrMin= 8.89D-07
 ErrMax= 8.89D-07  0.00D+00 EMaxC= 1.00D-01 BMatC= 2.45D-11 BMatP= 4.52D-10
 IDIUse=1 WtCom= 1.00D+00 WtEn= 0.00D+00
 Coeff-Com:  0.807D-06 0.302D-04 0.124D-03-0.243D-02 0.845D-02 0.843D-02
 Coeff-Com: -0.484D-01-0.259D+00 0.129D+01
 Coeff:      0.807D-06 0.302D-04 0.124D-03-0.243D-02 0.845D-02 0.843D-02
 Coeff:     -0.484D-01-0.259D+00 0.129D+01
 Gap=     0.617 Goal=   None    Shift=    0.000
 RMSDP=5.65D-08 MaxDP=1.04D-06 DE=-8.93D-10 OVMax= 2.98D-06

 Cycle  10  Pass 1  IDiag  1:
 E= -152.109467365183     Delta-E=       -0.000000000053 Rises=F Damp=F
 DIIS: error= 9.72D-08 at cycle  10 NSaved=  10.
 NSaved=10 IEnMin=10 EnMin= -152.109467365183     IErMin=10 ErrMin= 9.72D-08
 ErrMax= 9.72D-08  0.00D+00 EMaxC= 1.00D-01 BMatC= 4.06D-13 BMatP= 2.45D-11
 IDIUse=1 WtCom= 1.00D+00 WtEn= 0.00D+00
 Coeff-Com: -0.580D-06-0.384D-05-0.180D-04 0.517D-03-0.193D-02-0.143D-02
 Coeff-Com:  0.126D-01 0.598D-01-0.385D+00 0.132D+01
 Coeff:     -0.580D-06-0.384D-05-0.180D-04 0.517D-03-0.193D-02-0.143D-02
 Coeff:      0.126D-01 0.598D-01-0.385D+00 0.132D+01
 Gap=     0.617 Goal=   None    Shift=    0.000
 RMSDP=6.94D-09 MaxDP=1.85D-07 DE=-5.27D-11 OVMax= 3.96D-07

 SCF Done:  E(RHF) =  -152.109467365     A.U. after   10 cycles
            NFock= 10  Conv=0.69D-08     -V/T= 2.0020
 KE= 1.518004610045D+02 PE=-4.196148536090D+02 EE= 8.660717232302D+01
 Leave Link  502 at Fri Aug 26 21:10:16 2022, MaxMem=   536870912 cpu:               3.6 elap:               1.0
 (Enter /usr/site/hpc/x86_64/glibc-2.17/broadwell/gaussian/g16_a.03/pgi-16.5/g16/l801.exe)
 Windowed orbitals will be sorted by symmetry type.
 ExpMin= 1.03D-01 ExpMax= 1.53D+04 ExpMxC= 5.22D+02 IAcc=3 IRadAn=         5 AccDes= 0.00D+00
 HarFok:  IExCor=  205 AccDes= 0.00D+00 IRadAn=         5 IDoV=-2 UseB2=F ITyADJ=14
 ICtDFT= 12500011 ScaDFX=  1.000000  1.000000  1.000000  1.000000
 Largest valence mixing into a core orbital is  1.12D-04
 Largest core mixing into a valence orbital is  1.77D-05
 Range of M.O.s used for correlation:     3   116
 NBasis=   116 NAE=    10 NBE=    10 NFC=     2 NFV=     0
 NROrb=    114 NOA=     8 NOB=     8 NVA=   106 NVB=   106
 Leave Link  801 at Fri Aug 26 21:10:16 2022, MaxMem=   536870912 cpu:               0.3 elap:               0.1
 (Enter /usr/site/hpc/x86_64/glibc-2.17/broadwell/gaussian/g16_a.03/pgi-16.5/g16/l804.exe)
 Closed-shell transformation, MDV=   536870912 ITran=4 ISComp=2.
 Unit  1 TFree=        834515 TCopy=        406125.
 Semi-Direct transformation.
 ModeAB=           4 MOrb=             8 LenV=     536374306
 LASXX=      2873146 LTotXX=     2873146 LenRXX=     5831278
 LTotAB=     2958132 MaxLAS=     5887872 LenRXY=           0
 NonZer=     8704424 LenScr=    13107200 LnRSAI=     5887872
 LnScr1=     8912896 LExtra=           0 Total=     33739246
 MaxDsk=          -1 SrtSym=           T ITran=            4
 DoSDTr:  NPSUse=  4
 JobTyp=0 Pass  1:  I=   1 to   8.
 (rs|ai) integrals will be sorted in core.
 Complete sort for first half transformation.
 First half transformation complete.
 Complete sort for second half transformation.
 Second half transformation complete.
 Spin components of T(2) and E(2):
     alpha-alpha T2 =       0.1556052432D-01 E2=     -0.6382130695D-01
     alpha-beta  T2 =       0.9184015418D-01 E2=     -0.3982241818D+00
     beta-beta   T2 =       0.1556052432D-01 E2=     -0.6382130695D-01
 ANorm=    0.1059698638D+01
 E2 =    -0.5258667957D+00 EUMP2 =    -0.15263533416090D+03
 Leave Link  804 at Fri Aug 26 21:10:17 2022, MaxMem=   536870912 cpu:               3.1 elap:               0.8
 (Enter /usr/site/hpc/x86_64/glibc-2.17/broadwell/gaussian/g16_a.03/pgi-16.5/g16/l913.exe)
 CIDS:  MDV=   536870912.
 Frozen-core window:  NFC=   2 NFV=   0.
 IFCWin=0 IBDFC=1 NFBD=     0     0 NFCmp=     0     0 NFFFC=     0     0
 Using DD3R+UMP44R for 1st iteration.
 Using DD4RQ for 2nd and later iterations.
 Keep R2 and R3 ints in memory in symmetry-blocked form, NReq=35357534.
 FoFCou: FMM=F IPFlag=           0 FMFlag=           0 FMFlg1=           0
         NFxFlg=           0 DoJE=F BraDBF=F KetDBF=F FulRan=T
         wScrn=  0.000000 ICntrl=       600 IOpCl=  0 I1Cent=           0 NGrid=           0
         NMat0=    1 NMatS0=   6786 NMatT0=    0 NMatD0=    1 NMtDS0=    0 NMtDT0=    0
 Petite list used in FoFCou.
 CIDS: In Core Option IDoMem=           1.
 CCSD(T)
 =======
 Iterations=  50 Convergence= 0.100D-06
 Produce multiple copies of IABC intergrals
 Iteration Nr.   1
 **********************
 DD1Dir will call FoFMem   1 times, MxPair=        72
 NAB=    36 NAA=     0 NBB=     0.
 MP4(R+Q)=  0.75415424D-02
 Maximum subspace dimension=  5
 A-vector RMS=  1.7407751D-03 Max=  6.1782127D-03 conv= 1.00D-05.
 RLE energy=       -0.5257838567
 E3=       -0.75290863D-02        EUMP3=      -0.15264286325D+03
 E4(DQ)=   -0.15486620D-02        UMP4(DQ)=   -0.15264441191D+03
 E4(SDQ)=  -0.45978069D-02        UMP4(SDQ)=  -0.15264746105D+03
 VARIATIONAL ENERGIES WITH THE FIRST-ORDER WAVEFUNCTION:
 DE(Corr)= -0.52578385     E(Corr)=     -152.63525122    
 NORM(A)=   0.10600529D+01
 Iteration Nr.   2
 **********************
 DD1Dir will call FoFMem   1 times, MxPair=        72
 NAB=    36 NAA=     0 NBB=     0.
 A-vector RMS=  2.1299528D-04 Max=  2.3141196D-03 conv= 1.00D-05.
 RLE energy=       -0.5368228440
 DE(Corr)= -0.53566728     E(CORR)=     -152.64513464     Delta=-9.88D-03
 NORM(A)=   0.10637891D+01
 Iteration Nr.   3
 **********************
 DD1Dir will call FoFMem   1 times, MxPair=        72
 NAB=    36 NAA=     0 NBB=     0.
 A-vector RMS=  1.4048316D-04 Max=  7.7999360D-04 conv= 1.00D-05.
 RLE energy=       -0.5373175618
 DE(Corr)= -0.53673365     E(CORR)=     -152.64620101     Delta=-1.07D-03
 NORM(A)=   0.10644232D+01
 Iteration Nr.   4
 **********************
 DD1Dir will call FoFMem   1 times, MxPair=        72
 NAB=    36 NAA=     0 NBB=     0.
 A-vector RMS=  2.6727382D-05 Max=  1.4091682D-04 conv= 1.00D-05.
 RLE energy=       -0.5374000675
 DE(Corr)= -0.53736509     E(CORR)=     -152.64683245     Delta=-6.31D-04
 NORM(A)=   0.10645327D+01
 Iteration Nr.   5
 **********************
 DD1Dir will call FoFMem   1 times, MxPair=        72
 NAB=    36 NAA=     0 NBB=     0.
 A-vector RMS=  1.8422103D-05 Max=  1.4255153D-04 conv= 1.00D-05.
 RLE energy=       -0.5374086750
 DE(Corr)= -0.53740195     E(CORR)=     -152.64686931     Delta=-3.69D-05
 NORM(A)=   0.10645421D+01
 Iteration Nr.   6
 **********************
 DD1Dir will call FoFMem   1 times, MxPair=        72
 NAB=    36 NAA=     0 NBB=     0.
 A-vector RMS=  5.6159448D-06 Max=  4.4749723D-05 conv= 1.00D-05.
 RLE energy=       -0.5373998540
 DE(Corr)= -0.53740513     E(CORR)=     -152.64687249     Delta=-3.18D-06
 NORM(A)=   0.10645420D+01
 Iteration Nr.   7
 **********************
 DD1Dir will call FoFMem   1 times, MxPair=        72
 NAB=    36 NAA=     0 NBB=     0.
 A-vector RMS=  2.6412152D-06 Max=  2.0106844D-05 conv= 1.00D-05.
 RLE energy=       -0.5374058554
 DE(Corr)= -0.53740529     E(CORR)=     -152.64687265     Delta=-1.63D-07
 NORM(A)=   0.10645442D+01
 Iteration Nr.   8
 **********************
 DD1Dir will call FoFMem   1 times, MxPair=        72
 NAB=    36 NAA=     0 NBB=     0.
 A-vector RMS=  7.3090145D-07 Max=  6.5185129D-06 conv= 1.00D-05.
 RLE energy=       -0.5374046805
 DE(Corr)= -0.53740485     E(CORR)=     -152.64687222     Delta= 4.35D-07
 NORM(A)=   0.10645443D+01
 Iteration Nr.   9
 **********************
 DD1Dir will call FoFMem   1 times, MxPair=        72
 NAB=    36 NAA=     0 NBB=     0.
 A-vector RMS=  1.6118665D-07 Max=  1.4214996D-06 conv= 1.00D-05.
 RLE energy=       -0.5374049757
 DE(Corr)= -0.53740505     E(CORR)=     -152.64687241     Delta=-1.92D-07
 NORM(A)=   0.10645446D+01
 Iteration Nr.  10
 **********************
 DD1Dir will call FoFMem   1 times, MxPair=        72
 NAB=    36 NAA=     0 NBB=     0.
 A-vector RMS=  6.3773571D-08 Max=  5.0270425D-07 conv= 1.00D-05.
 RLE energy=       -0.5374051247
 DE(Corr)= -0.53740510     E(CORR)=     -152.64687247     Delta=-5.52D-08
 NORM(A)=   0.10645447D+01
 CI/CC converged in   10 iterations to DelEn=-5.52D-08 Conv= 1.00D-07 ErrA1= 6.38D-08 Conv= 1.00D-05
 Wavefunction amplitudes converged. E(Corr)=     -152.64687247    
 Largest amplitude= 4.79D-02
 IPart=  2 IA=    7   11.05% done.
 IPart=  4 IA=   13   21.46% done.
 IPart=  4 IA=   19   31.21% done.
 IPart=  2 IA=   25   40.32% done.
 IPart=  2 IA=   32   50.13% done.
 IPart=  1 IA=   40   60.27% done.
 IPart=  2 IA=   49   70.30% done.
 IPart=  4 IA=   60   80.58% done.
 IPart=  1 IA=   74   90.51% done.
 Time for triples=       45.84 seconds.
 T4(CCSD)= -0.16022073D-01
 T5(CCSD)=  0.40151645D-03
 CCSD(T)= -0.15266249302D+03
 Discarding MO integrals.
 Leave Link  913 at Fri Aug 26 21:10:35 2022, MaxMem=   536870912 cpu:              68.9 elap:              17.4
 (Enter /usr/site/hpc/x86_64/glibc-2.17/broadwell/gaussian/g16_a.03/pgi-16.5/g16/l601.exe)
 Copying SCF densities to generalized density rwf, IOpCl= 0 IROHF=0.

 **********************************************************************

            Population analysis using the SCF density.

 **********************************************************************

 Orbital symmetries:
       Occupied  (A') (A') (A') (A') (A') (A') (A') (A') (A") (A")
       Virtual   (A') (A') (A') (A') (A') (A') (A') (A') (A') (A')
                 (A") (A') (A') (A") (A') (A") (A") (A') (A") (A")
                 (A') (A') (A') (A') (A') (A') (A') (A') (A") (A")
                 (A") (A") (A') (A') (A') (A') (A') (A') (A') (A')
                 (A') (A') (A") (A") (A') (A') (A") (A") (A') (A')
                 (A") (A") (A') (A') (A') (A') (A") (A") (A") (A")
                 (A') (A') (A') (A') (A") (A") (A') (A') (A') (A')
                 (A") (A") (A') (A') (A') (A') (A') (A') (A') (A')
                 (A") (A") (A') (A') (A") (A") (A") (A") (A') (A')
                 (A") (A") (A') (A') (A') (A') (A") (A") (A') (A')
                 (A') (A') (A') (A') (A') (A')
 The electronic state is 1-A'.
 Alpha  occ. eigenvalues --  -20.56494 -20.54607  -1.33782  -1.31924  -0.71183
 Alpha  occ. eigenvalues --   -0.69324  -0.57312  -0.55411  -0.50909  -0.49057
 Alpha virt. eigenvalues --    0.12655   0.15669   0.19484   0.22109   0.53350
 Alpha virt. eigenvalues --    0.55274   0.56483   0.58127   0.67314   0.69349
 Alpha virt. eigenvalues --    0.77996   0.78876   0.79746   0.79777   0.83094
 Alpha virt. eigenvalues --    0.84012   0.85809   0.88086   0.96341   0.98201
 Alpha virt. eigenvalues --    1.13752   1.15785   1.17212   1.18376   1.50828
 Alpha virt. eigenvalues --    1.51149   1.52812   1.53398   1.99694   2.01560
 Alpha virt. eigenvalues --    2.05786   2.07632   2.08662   2.10317   2.14051
 Alpha virt. eigenvalues --    2.15767   2.25776   2.25905   2.60578   2.62875
 Alpha virt. eigenvalues --    2.91910   2.94908   3.38472   3.40315   3.49037
 Alpha virt. eigenvalues --    3.50883   3.52246   3.54086   3.58628   3.60556
 Alpha virt. eigenvalues --    3.77722   3.79581   3.84507   3.86334   3.87399
 Alpha virt. eigenvalues --    3.88626   3.92693   3.94528   4.02130   4.04009
 Alpha virt. eigenvalues --    4.07268   4.09222   4.14322   4.16365   4.29203
 Alpha virt. eigenvalues --    4.31074   4.39205   4.40917   4.44705   4.46569
 Alpha virt. eigenvalues --    4.65588   4.67433   4.80068   4.81934   5.03428
 Alpha virt. eigenvalues --    5.05267   5.23156   5.25049   5.53124   5.54994
 Alpha virt. eigenvalues --    5.96932   5.98810   6.39424   6.41328   6.85200
 Alpha virt. eigenvalues --    6.87072   6.88698   6.90562   6.93658   6.95584
 Alpha virt. eigenvalues --    6.98115   6.99996   7.06961   7.08776   7.12217
 Alpha virt. eigenvalues --    7.13495   7.17287   7.19165   7.46201   7.48349
 Alpha virt. eigenvalues --    7.69357   7.71245   8.14085   8.16320  12.46809
 Alpha virt. eigenvalues --   12.53527
          Condensed to atoms (all electrons):
               1          2          3          4          5          6
     1  O    7.825411   0.346521   0.346136  -0.000038   0.000004   0.000002
     2  H    0.346521   0.426056  -0.037178   0.001627  -0.000089  -0.000059
     3  H    0.346136  -0.037178   0.437860  -0.000034   0.000002   0.000002
     4  O   -0.000038   0.001627  -0.000034   7.826445   0.344053   0.343746
     5  H    0.000004  -0.000089   0.000002   0.344053   0.431565  -0.034963
     6  H    0.000002  -0.000059   0.000002   0.343746  -0.034963   0.433194
 Mulliken charges:
               1
     1  O   -0.518037
     2  H    0.263122
     3  H    0.253213
     4  O   -0.515801
     5  H    0.259427
     6  H    0.258076
 Sum of Mulliken charges =  -0.00000
 Mulliken charges with hydrogens summed into heavy atoms:
               1
     1  O   -0.001702
     4  O    0.001702
 Electronic spatial extent (au):  <R**2>=            437.7358
 Charge=             -0.0000 electrons
 Dipole moment (field-independent basis, Debye):
    X=             -1.1546    Y=             -3.1695    Z=              0.0000  Tot=              3.3732
 Quadrupole moment (field-independent basis, Debye-Ang):
   XX=             -9.1860   YY=             -7.0761   ZZ=            -14.7185
   XY=             -5.5042   XZ=              0.0000   YZ=             -0.0000
 Traceless Quadrupole moment (field-independent basis, Debye-Ang):
   XX=              1.1409   YY=              3.2508   ZZ=             -4.3916
   XY=             -5.5042   XZ=              0.0000   YZ=             -0.0000
 Octapole moment (field-independent basis, Debye-Ang**2):
  XXX=             -0.5895  YYY=            -46.3532  ZZZ=              0.0000  XYY=            -13.8864
  XXY=             -3.8068  XXZ=             -0.0000  XZZ=             -0.1508  YZZ=             -0.4480
  YYZ=             -0.0000  XYZ=             -0.0000
 Hexadecapole moment (field-independent basis, Debye-Ang**3):
 XXXX=            -10.8979 YYYY=           -339.5136 ZZZZ=            -11.3503 XXXY=             -3.4148
 XXXZ=             -0.0000 YYYX=            -32.5920 YYYZ=              0.0000 ZZZX=             -0.0000
 ZZZY=              0.0000 XXYY=            -47.2038 XXZZ=             -4.4442 YYZZ=            -86.5817
 XXYZ=             -0.0000 YYXZ=              0.0000 ZZXY=              1.4661
 N-N= 2.909775291627D+01 E-N=-4.196148524823D+02  KE= 1.518004610045D+02
 Symmetry A'   KE= 1.427655511394D+02
 Symmetry A"   KE= 9.034909865062D+00
 Leave Link  601 at Fri Aug 26 21:10:35 2022, MaxMem=   536870912 cpu:               0.1 elap:               0.0
 (Enter /usr/site/hpc/x86_64/glibc-2.17/broadwell/gaussian/g16_a.03/pgi-16.5/g16/l9999.exe)
 1\1\GINC-N004\SP\RCCSD(T)-FC\CC-pVTZ\H4O2\C7441284\26-Aug-2022\0\\#p C
 CSD(T)/cc-pVTZ\\H2O_H2O_3343\\0,1\O,0,0.,-0.009833,0.\H,0,-0.799571,-0
 .580965,0.\H,0,0.799571,-0.580965,0.\O,0,-3.828313,-2.731829,0.\H,0,-4
 .661953,-2.211684,0.\H,0,-4.049987,-3.689099,0.\\Version=ES64L-G16RevA
 .03\State=1-A'\HF=-152.1094674\MP2=-152.6353342\MP3=-152.6428632\MP4D=
 -152.6519535\MP4DQ=-152.6444119\MP4SDQ=-152.6474611\CCSD=-152.6468725\
 CCSD(T)=-152.662493\RMSD=6.938e-09\PG=CS [SG(H4O2)]\\@


 THIS CURIOUS WORLD WHICH WE INHABIT IS MORE WONDERFUL THAN IT IS CONVENIENT;
 MORE BEAUTIFUL THAN IT IS USEFUL;
 IT IS MORE TO BE ADMIRED THAN IT IS TO BE USED.

                                                                 -- THOREAU
 Job cpu time:       0 days  0 hours  1 minutes 18.1 seconds.
 Elapsed time:       0 days  0 hours  0 minutes 20.0 seconds.
 File lengths (MBytes):  RWF=    328 Int=      0 D2E=      0 Chk=      8 Scr=      8
 Normal termination of Gaussian 16 at Fri Aug 26 21:10:35 2022.
