 Entering Gaussian System, Link 0=g16
 Input=H2O_H2O_4618.com
 Output=H2O_H2O_4618.log
 Initial command:
 /usr/site/hpc/x86_64/glibc-2.17/broadwell/gaussian/g16_a.03/pgi-16.5/g16/l1.exe "/gpfs/gpfs1/scratch/c7441284/ForceFieldModel/FittingData2/Gau-994190.inp" -scrdir="/gpfs/gpfs1/scratch/c7441284/ForceFieldModel/FittingData2/"
 Entering Link 1 = /usr/site/hpc/x86_64/glibc-2.17/broadwell/gaussian/g16_a.03/pgi-16.5/g16/l1.exe PID=    994191.
  
 Copyright (c) 1988,1990,1992,1993,1995,1998,2003,2009,2016,
            Gaussian, Inc.  All Rights Reserved.
  
 This is part of the Gaussian(R) 16 program.  It is based on
 the Gaussian(R) 09 system (copyright 2009, Gaussian, Inc.),
 the Gaussian(R) 03 system (copyright 2003, Gaussian, Inc.),
 the Gaussian(R) 98 system (copyright 1998, Gaussian, Inc.),
 the Gaussian(R) 94 system (copyright 1995, Gaussian, Inc.),
 the Gaussian 92(TM) system (copyright 1992, Gaussian, Inc.),
 the Gaussian 90(TM) system (copyright 1990, Gaussian, Inc.),
 the Gaussian 88(TM) system (copyright 1988, Gaussian, Inc.),
 the Gaussian 86(TM) system (copyright 1986, Carnegie Mellon
 University), and the Gaussian 82(TM) system (copyright 1983,
 Carnegie Mellon University). Gaussian is a federally registered
 trademark of Gaussian, Inc.
  
 This software contains proprietary and confidential information,
 including trade secrets, belonging to Gaussian, Inc.
  
 This software is provided under written license and may be
 used, copied, transmitted, or stored only in accord with that
 written license.
  
 The following legend is applicable only to US Government
 contracts under FAR:
  
                    RESTRICTED RIGHTS LEGEND
  
 Use, reproduction and disclosure by the US Government is
 subject to restrictions as set forth in subparagraphs (a)
 and (c) of the Commercial Computer Software - Restricted
 Rights clause in FAR 52.227-19.
  
 Gaussian, Inc.
 340 Quinnipiac St., Bldg. 40, Wallingford CT 06492
  
  
 ---------------------------------------------------------------
 Warning -- This program may not be used in any manner that
 competes with the business of Gaussian, Inc. or will provide
 assistance to any competitor of Gaussian, Inc.  The licensee
 of this program is prohibited from giving any competitor of
 Gaussian, Inc. access to this program.  By using this program,
 the user acknowledges that Gaussian, Inc. is engaged in the
 business of creating and licensing software in the field of
 computational chemistry and represents and warrants to the
 licensee that it is not a competitor of Gaussian, Inc. and that
 it will not use this program in any manner prohibited above.
 ---------------------------------------------------------------
  

 Cite this work as:
 Gaussian 16, Revision A.03,
 M. J. Frisch, G. W. Trucks, H. B. Schlegel, G. E. Scuseria, 
 M. A. Robb, J. R. Cheeseman, G. Scalmani, V. Barone, 
 G. A. Petersson, H. Nakatsuji, X. Li, M. Caricato, A. V. Marenich, 
 J. Bloino, B. G. Janesko, R. Gomperts, B. Mennucci, H. P. Hratchian, 
 J. V. Ortiz, A. F. Izmaylov, J. L. Sonnenberg, D. Williams-Young, 
 F. Ding, F. Lipparini, F. Egidi, J. Goings, B. Peng, A. Petrone, 
 T. Henderson, D. Ranasinghe, V. G. Zakrzewski, J. Gao, N. Rega, 
 G. Zheng, W. Liang, M. Hada, M. Ehara, K. Toyota, R. Fukuda, 
 J. Hasegawa, M. Ishida, T. Nakajima, Y. Honda, O. Kitao, H. Nakai, 
 T. Vreven, K. Throssell, J. A. Montgomery, Jr., J. E. Peralta, 
 F. Ogliaro, M. J. Bearpark, J. J. Heyd, E. N. Brothers, K. N. Kudin, 
 V. N. Staroverov, T. A. Keith, R. Kobayashi, J. Normand, 
 K. Raghavachari, A. P. Rendell, J. C. Burant, S. S. Iyengar, 
 J. Tomasi, M. Cossi, J. M. Millam, M. Klene, C. Adamo, R. Cammi, 
 J. W. Ochterski, R. L. Martin, K. Morokuma, O. Farkas, 
 J. B. Foresman, and D. J. Fox, Gaussian, Inc., Wallingford CT, 2016.
 
 ******************************************
 Gaussian 16:  ES64L-G16RevA.03 25-Dec-2016
                28-Aug-2022 
 ******************************************
 %NProcShared=4
 Will use up to    4 processors via shared memory.
 %Mem=4GB
 %Chk=H2O_H2O_4618.chk
 ------------------
 #p CCSD(T)/cc-pVTZ
 ------------------
 1/38=1,172=1/1;
 2/12=2,17=6,18=5,40=1/2;
 3/5=16,6=1,11=9,25=1,30=1/1,2,3;
 4//1;
 5/5=2,38=5/2;
 8/6=4,9=120000,10=1/1,4;
 9/5=7,14=2/13;
 6/7=2,8=2,9=2,10=2/1;
 99/5=1,9=1/99;
 Leave Link    1 at Sun Aug 28 04:23:31 2022, MaxMem=   536870912 cpu:               2.4 elap:               0.8
 (Enter /usr/site/hpc/x86_64/glibc-2.17/broadwell/gaussian/g16_a.03/pgi-16.5/g16/l101.exe)
 ------------
 H2O_H2O_4618
 ------------
 Symbolic Z-matrix:
 Charge =  0 Multiplicity = 1
 O                     0.       -0.00983   0. 
 H                    -0.79957  -0.58097   0. 
 H                     0.79957  -0.58097   0. 
 O                    -4.65599  -3.32303   0. 
 H                    -5.48963  -2.80289   0. 
 H                    -4.87766  -4.28031   0. 
 
 ITRead=  0  0  0  0  0  0
 MicOpt= -1 -1 -1 -1 -1 -1
 NAtoms=      6 NQM=        6 NQMF=       0 NMMI=      0 NMMIF=      0
                NMic=       0 NMicF=      0.
                    Isotopes and Nuclear Properties:
 (Nuclear quadrupole moments (NQMom) in fm**2, nuclear magnetic moments (NMagM)
  in nuclear magnetons)

  Atom         1           2           3           4           5           6
 IAtWgt=          16           1           1          16           1           1
 AtmWgt=  15.9949146   1.0078250   1.0078250  15.9949146   1.0078250   1.0078250
 NucSpn=           0           1           1           0           1           1
 AtZEff=  -0.0000000  -0.0000000  -0.0000000  -0.0000000  -0.0000000  -0.0000000
 NQMom=    0.0000000   0.0000000   0.0000000   0.0000000   0.0000000   0.0000000
 NMagM=    0.0000000   2.7928460   2.7928460   0.0000000   2.7928460   2.7928460
 AtZNuc=   8.0000000   1.0000000   1.0000000   8.0000000   1.0000000   1.0000000
 Leave Link  101 at Sun Aug 28 04:23:32 2022, MaxMem=   536870912 cpu:               3.0 elap:               0.9
 (Enter /usr/site/hpc/x86_64/glibc-2.17/broadwell/gaussian/g16_a.03/pgi-16.5/g16/l202.exe)
                          Input orientation:                          
 ---------------------------------------------------------------------
 Center     Atomic      Atomic             Coordinates (Angstroms)
 Number     Number       Type             X           Y           Z
 ---------------------------------------------------------------------
      1          8           0        0.000000   -0.009833    0.000000
      2          1           0       -0.799571   -0.580965    0.000000
      3          1           0        0.799571   -0.580965    0.000000
      4          8           0       -4.655987   -3.323035    0.000000
      5          1           0       -5.489627   -2.802890    0.000000
      6          1           0       -4.877662   -4.280305    0.000000
 ---------------------------------------------------------------------
                    Distance matrix (angstroms):
                    1          2          3          4          5
     1  O    0.000000
     2  H    0.982601   0.000000
     3  H    0.982601   1.599142   0.000000
     4  O    5.714501   4.731902   6.105904   0.000000
     5  H    6.159316   5.189757   6.670155   0.982602   0.000000
     6  H    6.482941   5.505992   6.776141   0.982601   1.599142
                    6
     6  H    0.000000
 Stoichiometry    H4O2
 Framework group  CS[SG(H4O2)]
 Deg. of freedom     9
 Full point group                 CS      NOp   2
 Largest Abelian subgroup         CS      NOp   2
 Largest concise Abelian subgroup C1      NOp   1
                         Standard orientation:                         
 ---------------------------------------------------------------------
 Center     Atomic      Atomic             Coordinates (Angstroms)
 Number     Number       Type             X           Y           Z
 ---------------------------------------------------------------------
      1          8           0        0.033749    2.946028    0.000000
      2          1           0        0.031991    1.963428    0.000000
      3          1           0       -0.895173    3.266356    0.000000
      4          8           0        0.033749   -2.768473    0.000000
      5          1           0        0.940881   -3.146121    0.000000
      6          1           0       -0.617679   -3.504101    0.000000
 ---------------------------------------------------------------------
 Rotational constants (GHZ):         244.1668919           1.6936843           1.6820169
 Leave Link  202 at Sun Aug 28 04:23:32 2022, MaxMem=   536870912 cpu:               0.0 elap:               0.0
 (Enter /usr/site/hpc/x86_64/glibc-2.17/broadwell/gaussian/g16_a.03/pgi-16.5/g16/l301.exe)
 Standard basis: CC-pVTZ (5D, 7F)
 Ernie: Thresh=  0.10000D-02 Tol=  0.10000D-05 Strict=F.
 Ernie:  6 primitive shells out of 84 were deleted.
 There are    92 symmetry adapted cartesian basis functions of A'  symmetry.
 There are    38 symmetry adapted cartesian basis functions of A"  symmetry.
 There are    80 symmetry adapted basis functions of A'  symmetry.
 There are    36 symmetry adapted basis functions of A"  symmetry.
   116 basis functions,   172 primitive gaussians,   130 cartesian basis functions
    10 alpha electrons       10 beta electrons
       nuclear repulsion energy        27.1057139789 Hartrees.
 IExCor=    0 DFT=F Ex=HF Corr=None ExCW=0 ScaHFX=  1.000000
 ScaDFX=  1.000000  1.000000  1.000000  1.000000 ScalE2=  1.000000  1.000000
 IRadAn=      5 IRanWt=     -1 IRanGd=            0 ICorTp=0 IEmpDi=  4
 NAtoms=    6 NActive=    6 NUniq=    6 SFac= 1.00D+00 NAtFMM=   60 NAOKFM=F Big=F
 Integral buffers will be    131072 words long.
 Raffenetti 1 integral format.
 Two-electron integral symmetry is turned on.
 Leave Link  301 at Sun Aug 28 04:23:32 2022, MaxMem=   536870912 cpu:               0.2 elap:               0.0
 (Enter /usr/site/hpc/x86_64/glibc-2.17/broadwell/gaussian/g16_a.03/pgi-16.5/g16/l302.exe)
 NPDir=0 NMtPBC=     1 NCelOv=     1 NCel=       1 NClECP=     1 NCelD=      1
         NCelK=      1 NCelE2=     1 NClLst=     1 CellRange=     0.0.
 One-electron integrals computed using PRISM.
 One-electron integral symmetry used in STVInt
 NBasis=   116 RedAO= T EigKep=  2.66D-03  NBF=    80    36
 NBsUse=   116 1.00D-06 EigRej= -1.00D+00 NBFU=    80    36
 Leave Link  302 at Sun Aug 28 04:23:32 2022, MaxMem=   536870912 cpu:               0.5 elap:               0.1
 (Enter /usr/site/hpc/x86_64/glibc-2.17/broadwell/gaussian/g16_a.03/pgi-16.5/g16/l303.exe)
 DipDrv:  MaxL=1.
 Leave Link  303 at Sun Aug 28 04:23:32 2022, MaxMem=   536870912 cpu:               0.1 elap:               0.0
 (Enter /usr/site/hpc/x86_64/glibc-2.17/broadwell/gaussian/g16_a.03/pgi-16.5/g16/l401.exe)
 ExpMin= 1.03D-01 ExpMax= 1.53D+04 ExpMxC= 5.22D+02 IAcc=3 IRadAn=         5 AccDes= 0.00D+00
 Harris functional with IExCor=  205 and IRadAn=       5 diagonalized for initial guess.
 HarFok:  IExCor=  205 AccDes= 0.00D+00 IRadAn=         5 IDoV= 1 UseB2=F ITyADJ=14
 ICtDFT=  3500011 ScaDFX=  1.000000  1.000000  1.000000  1.000000
 FoFCou: FMM=F IPFlag=           0 FMFlag=      100000 FMFlg1=           0
         NFxFlg=           0 DoJE=T BraDBF=F KetDBF=T FulRan=T
         wScrn=  0.000000 ICntrl=       500 IOpCl=  0 I1Cent=   200000004 NGrid=           0
         NMat0=    1 NMatS0=      1 NMatT0=    0 NMatD0=    1 NMtDS0=    0 NMtDT0=    0
 Petite list used in FoFCou.
 Harris En= -152.298686998890    
 JPrj=0 DoOrth=F DoCkMO=F.
 Initial guess orbital symmetries:
       Occupied  (A') (A') (A') (A') (A') (A') (A') (A') (A") (A")
       Virtual   (A') (A') (A') (A') (A') (A') (A') (A') (A') (A')
                 (A") (A") (A') (A') (A') (A') (A") (A") (A") (A")
                 (A') (A') (A') (A') (A') (A') (A') (A') (A") (A")
                 (A") (A") (A') (A') (A') (A') (A') (A') (A') (A')
                 (A') (A') (A") (A") (A') (A') (A") (A") (A") (A")
                 (A') (A') (A') (A') (A') (A') (A") (A") (A') (A')
                 (A') (A') (A") (A") (A") (A") (A') (A') (A') (A')
                 (A") (A") (A') (A') (A') (A') (A') (A') (A') (A')
                 (A") (A") (A') (A') (A") (A") (A") (A") (A') (A')
                 (A") (A") (A') (A') (A') (A') (A") (A") (A') (A')
                 (A') (A') (A') (A') (A') (A')
 The electronic state of the initial guess is 1-A'.
 Leave Link  401 at Sun Aug 28 04:23:33 2022, MaxMem=   536870912 cpu:               0.7 elap:               0.2
 (Enter /usr/site/hpc/x86_64/glibc-2.17/broadwell/gaussian/g16_a.03/pgi-16.5/g16/l502.exe)
 Keep R1 ints in memory in symmetry-blocked form, NReq=34823457.
 FoFCou: FMM=F IPFlag=           0 FMFlag=           0 FMFlg1=           0
         NFxFlg=           0 DoJE=F BraDBF=F KetDBF=F FulRan=T
         wScrn=  0.000000 ICntrl=       600 IOpCl=  0 I1Cent=           0 NGrid=           0
         NMat0=    1 NMatS0=   6786 NMatT0=    0 NMatD0=    1 NMtDS0=    0 NMtDT0=    0
 Petite list used in FoFCou.
 Closed shell SCF:
 Using DIIS extrapolation, IDIIS=  1040.
 NGot=   536870912 LenX=   525040673 LenY=   525023332
 Requested convergence on RMS density matrix=1.00D-08 within 128 cycles.
 Requested convergence on MAX density matrix=1.00D-06.
 Requested convergence on             energy=1.00D-06.
 No special actions if energy rises.

 Cycle   1  Pass 1  IDiag  1:
 E= -151.928901365693    
 DIIS: error= 6.58D-02 at cycle   1 NSaved=   1.
 NSaved= 1 IEnMin= 1 EnMin= -151.928901365693     IErMin= 1 ErrMin= 6.58D-02
 ErrMax= 6.58D-02  0.00D+00 EMaxC= 1.00D-01 BMatC= 3.99D-01 BMatP= 3.99D-01
 IDIUse=3 WtCom= 3.42D-01 WtEn= 6.58D-01
 Coeff-Com:  0.100D+01
 Coeff-En:   0.100D+01
 Coeff:      0.100D+01
 Gap=     0.516 Goal=   None    Shift=    0.000
 GapD=    0.516 DampG=2.000 DampE=0.500 DampFc=1.0000 IDamp=-1.
 RMSDP=2.50D-03 MaxDP=6.69D-02              OVMax= 1.26D-01

 Cycle   2  Pass 1  IDiag  1:
 E= -152.040385197881     Delta-E=       -0.111483832188 Rises=F Damp=F
 DIIS: error= 4.13D-02 at cycle   2 NSaved=   2.
 NSaved= 2 IEnMin= 2 EnMin= -152.040385197881     IErMin= 2 ErrMin= 4.13D-02
 ErrMax= 4.13D-02  0.00D+00 EMaxC= 1.00D-01 BMatC= 1.12D-01 BMatP= 3.99D-01
 IDIUse=3 WtCom= 5.87D-01 WtEn= 4.13D-01
 Coeff-Com:  0.319D+00 0.681D+00
 Coeff-En:   0.165D+00 0.835D+00
 Coeff:      0.255D+00 0.745D+00
 Gap=     0.653 Goal=   None    Shift=    0.000
 RMSDP=1.32D-03 MaxDP=3.96D-02 DE=-1.11D-01 OVMax= 5.70D-02

 Cycle   3  Pass 1  IDiag  1:
 E= -152.104669655860     Delta-E=       -0.064284457979 Rises=F Damp=F
 DIIS: error= 8.95D-03 at cycle   3 NSaved=   3.
 NSaved= 3 IEnMin= 3 EnMin= -152.104669655860     IErMin= 3 ErrMin= 8.95D-03
 ErrMax= 8.95D-03  0.00D+00 EMaxC= 1.00D-01 BMatC= 5.95D-03 BMatP= 1.12D-01
 IDIUse=3 WtCom= 9.11D-01 WtEn= 8.95D-02
 Coeff-Com: -0.303D-01 0.156D+00 0.875D+00
 Coeff-En:   0.000D+00 0.000D+00 0.100D+01
 Coeff:     -0.276D-01 0.142D+00 0.886D+00
 Gap=     0.625 Goal=   None    Shift=    0.000
 RMSDP=2.42D-04 MaxDP=5.73D-03 DE=-6.43D-02 OVMax= 1.33D-02

 Cycle   4  Pass 1  IDiag  1:
 E= -152.108369430097     Delta-E=       -0.003699774237 Rises=F Damp=F
 DIIS: error= 8.49D-04 at cycle   4 NSaved=   4.
 NSaved= 4 IEnMin= 4 EnMin= -152.108369430097     IErMin= 4 ErrMin= 8.49D-04
 ErrMax= 8.49D-04  0.00D+00 EMaxC= 1.00D-01 BMatC= 3.68D-05 BMatP= 5.95D-03
 IDIUse=3 WtCom= 9.92D-01 WtEn= 8.49D-03
 Coeff-Com:  0.679D-02-0.612D-01-0.239D+00 0.129D+01
 Coeff-En:   0.000D+00 0.000D+00 0.000D+00 0.100D+01
 Coeff:      0.673D-02-0.606D-01-0.237D+00 0.129D+01
 Gap=     0.627 Goal=   None    Shift=    0.000
 RMSDP=5.15D-05 MaxDP=1.03D-03 DE=-3.70D-03 OVMax= 2.20D-03

 Cycle   5  Pass 1  IDiag  1:
 E= -152.108418818518     Delta-E=       -0.000049388421 Rises=F Damp=F
 DIIS: error= 1.93D-04 at cycle   5 NSaved=   5.
 NSaved= 5 IEnMin= 5 EnMin= -152.108418818518     IErMin= 5 ErrMin= 1.93D-04
 ErrMax= 1.93D-04  0.00D+00 EMaxC= 1.00D-01 BMatC= 1.34D-06 BMatP= 3.68D-05
 IDIUse=3 WtCom= 9.98D-01 WtEn= 1.93D-03
 Coeff-Com:  0.514D-03 0.655D-03-0.208D-02-0.226D+00 0.123D+01
 Coeff-En:   0.000D+00 0.000D+00 0.000D+00 0.000D+00 0.100D+01
 Coeff:      0.513D-03 0.653D-03-0.208D-02-0.225D+00 0.123D+01
 Gap=     0.628 Goal=   None    Shift=    0.000
 RMSDP=1.42D-05 MaxDP=2.91D-04 DE=-4.94D-05 OVMax= 6.84D-04

 Cycle   6  Pass 1  IDiag  1:
 E= -152.108421615770     Delta-E=       -0.000002797252 Rises=F Damp=F
 DIIS: error= 2.76D-05 at cycle   6 NSaved=   6.
 NSaved= 6 IEnMin= 6 EnMin= -152.108421615770     IErMin= 6 ErrMin= 2.76D-05
 ErrMax= 2.76D-05  0.00D+00 EMaxC= 1.00D-01 BMatC= 3.23D-08 BMatP= 1.34D-06
 IDIUse=1 WtCom= 1.00D+00 WtEn= 0.00D+00
 Coeff-Com: -0.264D-03 0.151D-02 0.647D-02 0.315D-02-0.261D+00 0.125D+01
 Coeff:     -0.264D-03 0.151D-02 0.647D-02 0.315D-02-0.261D+00 0.125D+01
 Gap=     0.628 Goal=   None    Shift=    0.000
 RMSDP=2.98D-06 MaxDP=6.48D-05 DE=-2.80D-06 OVMax= 1.51D-04

 Cycle   7  Pass 1  IDiag  1:
 E= -152.108421708016     Delta-E=       -0.000000092246 Rises=F Damp=F
 DIIS: error= 5.30D-06 at cycle   7 NSaved=   7.
 NSaved= 7 IEnMin= 7 EnMin= -152.108421708016     IErMin= 7 ErrMin= 5.30D-06
 ErrMax= 5.30D-06  0.00D+00 EMaxC= 1.00D-01 BMatC= 1.74D-09 BMatP= 3.23D-08
 IDIUse=1 WtCom= 1.00D+00 WtEn= 0.00D+00
 Coeff-Com:  0.223D-04-0.337D-03-0.133D-02 0.133D-01-0.199D-01-0.187D+00
 Coeff-Com:  0.120D+01
 Coeff:      0.223D-04-0.337D-03-0.133D-02 0.133D-01-0.199D-01-0.187D+00
 Coeff:      0.120D+01
 Gap=     0.628 Goal=   None    Shift=    0.000
 RMSDP=4.24D-07 MaxDP=9.58D-06 DE=-9.22D-08 OVMax= 2.99D-05

 Cycle   8  Pass 1  IDiag  1:
 E= -152.108421711585     Delta-E=       -0.000000003569 Rises=F Damp=F
 DIIS: error= 1.56D-06 at cycle   8 NSaved=   8.
 NSaved= 8 IEnMin= 8 EnMin= -152.108421711585     IErMin= 8 ErrMin= 1.56D-06
 ErrMax= 1.56D-06  0.00D+00 EMaxC= 1.00D-01 BMatC= 1.58D-10 BMatP= 1.74D-09
 IDIUse=1 WtCom= 1.00D+00 WtEn= 0.00D+00
 Coeff-Com:  0.167D-04-0.104D-03-0.416D-03 0.945D-04 0.156D-01-0.817D-01
 Coeff-Com:  0.558D-01 0.101D+01
 Coeff:      0.167D-04-0.104D-03-0.416D-03 0.945D-04 0.156D-01-0.817D-01
 Coeff:      0.558D-01 0.101D+01
 Gap=     0.628 Goal=   None    Shift=    0.000
 RMSDP=9.77D-08 MaxDP=2.29D-06 DE=-3.57D-09 OVMax= 6.90D-06

 Cycle   9  Pass 1  IDiag  1:
 E= -152.108421711829     Delta-E=       -0.000000000244 Rises=F Damp=F
 DIIS: error= 6.14D-07 at cycle   9 NSaved=   9.
 NSaved= 9 IEnMin= 9 EnMin= -152.108421711829     IErMin= 9 ErrMin= 6.14D-07
 ErrMax= 6.14D-07  0.00D+00 EMaxC= 1.00D-01 BMatC= 2.80D-11 BMatP= 1.58D-10
 IDIUse=1 WtCom= 1.00D+00 WtEn= 0.00D+00
 Coeff-Com:  0.720D-06 0.306D-04 0.126D-03-0.241D-02 0.837D-02 0.809D-02
 Coeff-Com: -0.179D+00 0.257D+00 0.908D+00
 Coeff:      0.720D-06 0.306D-04 0.126D-03-0.241D-02 0.837D-02 0.809D-02
 Coeff:     -0.179D+00 0.257D+00 0.908D+00
 Gap=     0.628 Goal=   None    Shift=    0.000
 RMSDP=3.80D-08 MaxDP=8.40D-07 DE=-2.44D-10 OVMax= 2.39D-06

 Cycle  10  Pass 1  IDiag  1:
 E= -152.108421711863     Delta-E=       -0.000000000034 Rises=F Damp=F
 DIIS: error= 9.88D-08 at cycle  10 NSaved=  10.
 NSaved=10 IEnMin=10 EnMin= -152.108421711863     IErMin=10 ErrMin= 9.88D-08
 ErrMax= 9.88D-08  0.00D+00 EMaxC= 1.00D-01 BMatC= 4.34D-13 BMatP= 2.80D-11
 IDIUse=1 WtCom= 1.00D+00 WtEn= 0.00D+00
 Coeff-Com: -0.575D-06-0.446D-05-0.210D-04 0.557D-03-0.205D-02-0.155D-02
 Coeff-Com:  0.494D-01-0.103D+00-0.260D+00 0.132D+01
 Coeff:     -0.575D-06-0.446D-05-0.210D-04 0.557D-03-0.205D-02-0.155D-02
 Coeff:      0.494D-01-0.103D+00-0.260D+00 0.132D+01
 Gap=     0.628 Goal=   None    Shift=    0.000
 RMSDP=7.10D-09 MaxDP=2.00D-07 DE=-3.42D-11 OVMax= 4.17D-07

 SCF Done:  E(RHF) =  -152.108421712     A.U. after   10 cycles
            NFock= 10  Conv=0.71D-08     -V/T= 2.0020
 KE= 1.518032593290D+02 PE=-4.156282391069D+02 EE= 8.461084408715D+01
 Leave Link  502 at Sun Aug 28 04:23:34 2022, MaxMem=   536870912 cpu:               4.6 elap:               1.3
 (Enter /usr/site/hpc/x86_64/glibc-2.17/broadwell/gaussian/g16_a.03/pgi-16.5/g16/l801.exe)
 Windowed orbitals will be sorted by symmetry type.
 ExpMin= 1.03D-01 ExpMax= 1.53D+04 ExpMxC= 5.22D+02 IAcc=3 IRadAn=         5 AccDes= 0.00D+00
 HarFok:  IExCor=  205 AccDes= 0.00D+00 IRadAn=         5 IDoV=-2 UseB2=F ITyADJ=14
 ICtDFT= 12500011 ScaDFX=  1.000000  1.000000  1.000000  1.000000
 Largest valence mixing into a core orbital is  1.12D-04
 Largest core mixing into a valence orbital is  1.76D-05
 Range of M.O.s used for correlation:     3   116
 NBasis=   116 NAE=    10 NBE=    10 NFC=     2 NFV=     0
 NROrb=    114 NOA=     8 NOB=     8 NVA=   106 NVB=   106
 Leave Link  801 at Sun Aug 28 04:23:34 2022, MaxMem=   536870912 cpu:               0.4 elap:               0.1
 (Enter /usr/site/hpc/x86_64/glibc-2.17/broadwell/gaussian/g16_a.03/pgi-16.5/g16/l804.exe)
 Closed-shell transformation, MDV=   536870912 ITran=4 ISComp=2.
 Unit  1 TFree=        834515 TCopy=        406125.
 Semi-Direct transformation.
 ModeAB=           4 MOrb=             8 LenV=     536378334
 LASXX=      2873146 LTotXX=     2873146 LenRXX=     5831278
 LTotAB=     2958132 MaxLAS=     5265888 LenRXY=           0
 NonZer=     8704424 LenScr=    13107200 LnRSAI=     5265888
 LnScr1=     8388608 LExtra=           0 Total=     32592974
 MaxDsk=          -1 SrtSym=           T ITran=            4
 DoSDTr:  NPSUse=  4
 JobTyp=0 Pass  1:  I=   1 to   8.
 (rs|ai) integrals will be sorted in core.
 Complete sort for first half transformation.
 First half transformation complete.
 Complete sort for second half transformation.
 Second half transformation complete.
 Spin components of T(2) and E(2):
     alpha-alpha T2 =       0.1555089530D-01 E2=     -0.6379467514D-01
     alpha-beta  T2 =       0.9184139698D-01 E2=     -0.3982112420D+00
     beta-beta   T2 =       0.1555089530D-01 E2=     -0.6379467514D-01
 ANorm=    0.1059690138D+01
 E2 =    -0.5258005923D+00 EUMP2 =    -0.15263422230412D+03
 Leave Link  804 at Sun Aug 28 04:23:35 2022, MaxMem=   536870912 cpu:               3.5 elap:               0.9
 (Enter /usr/site/hpc/x86_64/glibc-2.17/broadwell/gaussian/g16_a.03/pgi-16.5/g16/l913.exe)
 CIDS:  MDV=   536870912.
 Frozen-core window:  NFC=   2 NFV=   0.
 IFCWin=0 IBDFC=1 NFBD=     0     0 NFCmp=     0     0 NFFFC=     0     0
 Using DD3R+UMP44R for 1st iteration.
 Using DD4RQ for 2nd and later iterations.
 Keep R2 and R3 ints in memory in symmetry-blocked form, NReq=35357534.
 FoFCou: FMM=F IPFlag=           0 FMFlag=           0 FMFlg1=           0
         NFxFlg=           0 DoJE=F BraDBF=F KetDBF=F FulRan=T
         wScrn=  0.000000 ICntrl=       600 IOpCl=  0 I1Cent=           0 NGrid=           0
         NMat0=    1 NMatS0=   6786 NMatT0=    0 NMatD0=    1 NMtDS0=    0 NMtDT0=    0
 Petite list used in FoFCou.
 CIDS: In Core Option IDoMem=           1.
 CCSD(T)
 =======
 Iterations=  50 Convergence= 0.100D-06
 Produce multiple copies of IABC intergrals
 Iteration Nr.   1
 **********************
 DD1Dir will call FoFMem   1 times, MxPair=        72
 NAB=    36 NAA=     0 NBB=     0.
 MP4(R+Q)=  0.75438694D-02
 Maximum subspace dimension=  5
 A-vector RMS=  1.7370469D-03 Max=  6.1765426D-03 conv= 1.00D-05.
 RLE energy=       -0.5257591429
 E3=       -0.75732217D-02        EUMP3=      -0.15264179553D+03
 E4(DQ)=   -0.15492104D-02        UMP4(DQ)=   -0.15264334474D+03
 E4(SDQ)=  -0.45958477D-02        UMP4(SDQ)=  -0.15264639137D+03
 VARIATIONAL ENERGIES WITH THE FIRST-ORDER WAVEFUNCTION:
 DE(Corr)= -0.52575915     E(Corr)=     -152.63418086    
 NORM(A)=   0.10600590D+01
 Iteration Nr.   2
 **********************
 DD1Dir will call FoFMem   1 times, MxPair=        72
 NAB=    36 NAA=     0 NBB=     0.
 A-vector RMS=  2.1254460D-04 Max=  2.3192926D-03 conv= 1.00D-05.
 RLE energy=       -0.5368029742
 DE(Corr)= -0.53564306     E(CORR)=     -152.64406477     Delta=-9.88D-03
 NORM(A)=   0.10637982D+01
 Iteration Nr.   3
 **********************
 DD1Dir will call FoFMem   1 times, MxPair=        72
 NAB=    36 NAA=     0 NBB=     0.
 A-vector RMS=  1.4002907D-04 Max=  8.6822421D-04 conv= 1.00D-05.
 RLE energy=       -0.5372975617
 DE(Corr)= -0.53671348     E(CORR)=     -152.64513520     Delta=-1.07D-03
 NORM(A)=   0.10644340D+01
 Iteration Nr.   4
 **********************
 DD1Dir will call FoFMem   1 times, MxPair=        72
 NAB=    36 NAA=     0 NBB=     0.
 A-vector RMS=  2.5747990D-05 Max=  1.3997690D-04 conv= 1.00D-05.
 RLE energy=       -0.5373806865
 DE(Corr)= -0.53734545     E(CORR)=     -152.64576716     Delta=-6.32D-04
 NORM(A)=   0.10645440D+01
 Iteration Nr.   5
 **********************
 DD1Dir will call FoFMem   1 times, MxPair=        72
 NAB=    36 NAA=     0 NBB=     0.
 A-vector RMS=  1.8519397D-05 Max=  1.6155513D-04 conv= 1.00D-05.
 RLE energy=       -0.5373888587
 DE(Corr)= -0.53738218     E(CORR)=     -152.64580389     Delta=-3.67D-05
 NORM(A)=   0.10645533D+01
 Iteration Nr.   6
 **********************
 DD1Dir will call FoFMem   1 times, MxPair=        72
 NAB=    36 NAA=     0 NBB=     0.
 A-vector RMS=  5.4908904D-06 Max=  4.3501771D-05 conv= 1.00D-05.
 RLE energy=       -0.5373798108
 DE(Corr)= -0.53738532     E(CORR)=     -152.64580704     Delta=-3.15D-06
 NORM(A)=   0.10645534D+01
 Iteration Nr.   7
 **********************
 DD1Dir will call FoFMem   1 times, MxPair=        72
 NAB=    36 NAA=     0 NBB=     0.
 A-vector RMS=  2.6367980D-06 Max=  2.3293490D-05 conv= 1.00D-05.
 RLE energy=       -0.5373864648
 DE(Corr)= -0.53738547     E(CORR)=     -152.64580718     Delta=-1.47D-07
 NORM(A)=   0.10645557D+01
 Iteration Nr.   8
 **********************
 DD1Dir will call FoFMem   1 times, MxPair=        72
 NAB=    36 NAA=     0 NBB=     0.
 A-vector RMS=  5.3950015D-07 Max=  4.6813375D-06 conv= 1.00D-05.
 RLE energy=       -0.5373848828
 DE(Corr)= -0.53738505     E(CORR)=     -152.64580676     Delta= 4.24D-07
 NORM(A)=   0.10645558D+01
 Iteration Nr.   9
 **********************
 DD1Dir will call FoFMem   1 times, MxPair=        72
 NAB=    36 NAA=     0 NBB=     0.
 A-vector RMS=  1.3361352D-07 Max=  7.4093694D-07 conv= 1.00D-05.
 RLE energy=       -0.5373853225
 DE(Corr)= -0.53738532     E(CORR)=     -152.64580703     Delta=-2.76D-07
 NORM(A)=   0.10645561D+01
 Iteration Nr.  10
 **********************
 DD1Dir will call FoFMem   1 times, MxPair=        72
 NAB=    36 NAA=     0 NBB=     0.
 A-vector RMS=  4.9875125D-08 Max=  3.9655376D-07 conv= 1.00D-05.
 RLE energy=       -0.5373853365
 DE(Corr)= -0.53738531     E(CORR)=     -152.64580702     Delta= 1.44D-08
 NORM(A)=   0.10645561D+01
 CI/CC converged in   10 iterations to DelEn= 1.44D-08 Conv= 1.00D-07 ErrA1= 4.99D-08 Conv= 1.00D-05
 Wavefunction amplitudes converged. E(Corr)=     -152.64580702    
 Largest amplitude= 4.80D-02
 IPart=  4 IA=    7   11.05% done.
 IPart=  1 IA=   13   21.46% done.
 IPart=  1 IA=   19   31.21% done.
 IPart=  4 IA=   25   40.32% done.
 IPart=  4 IA=   32   50.13% done.
 IPart=  4 IA=   40   60.27% done.
 IPart=  3 IA=   49   70.30% done.
 IPart=  3 IA=   60   80.58% done.
 IPart=  4 IA=   74   90.51% done.
 Time for triples=       53.37 seconds.
 T4(CCSD)= -0.16014237D-01
 T5(CCSD)=  0.40099454D-03
 CCSD(T)= -0.15266142026D+03
 Discarding MO integrals.
 Leave Link  913 at Sun Aug 28 04:23:56 2022, MaxMem=   536870912 cpu:              81.7 elap:              21.4
 (Enter /usr/site/hpc/x86_64/glibc-2.17/broadwell/gaussian/g16_a.03/pgi-16.5/g16/l601.exe)
 Copying SCF densities to generalized density rwf, IOpCl= 0 IROHF=0.

 **********************************************************************

            Population analysis using the SCF density.

 **********************************************************************

 Orbital symmetries:
       Occupied  (A') (A') (A') (A') (A') (A') (A') (A') (A") (A")
       Virtual   (A') (A') (A') (A') (A') (A') (A') (A') (A') (A')
                 (A") (A") (A') (A') (A') (A') (A") (A") (A") (A")
                 (A') (A') (A') (A') (A') (A') (A') (A') (A") (A")
                 (A") (A") (A') (A') (A') (A') (A') (A') (A') (A')
                 (A') (A') (A") (A") (A') (A') (A") (A") (A') (A')
                 (A") (A") (A') (A') (A') (A') (A") (A") (A") (A")
                 (A') (A') (A') (A') (A") (A") (A') (A') (A') (A')
                 (A") (A") (A') (A') (A') (A') (A') (A') (A') (A')
                 (A") (A") (A') (A') (A") (A") (A") (A") (A') (A')
                 (A") (A") (A') (A') (A') (A') (A") (A") (A') (A')
                 (A') (A') (A') (A') (A') (A')
 The electronic state is 1-A'.
 Alpha  occ. eigenvalues --  -20.56162 -20.54981  -1.33464  -1.32288  -0.70867
 Alpha  occ. eigenvalues --   -0.69692  -0.56957  -0.55760  -0.50583  -0.49412
 Alpha virt. eigenvalues --    0.13410   0.14889   0.19689   0.21023   0.53649
 Alpha virt. eigenvalues --    0.54849   0.56687   0.57792   0.66895   0.68671
 Alpha virt. eigenvalues --    0.78302   0.79445   0.79644   0.80347   0.82554
 Alpha virt. eigenvalues --    0.83069   0.84251   0.85405   0.96638   0.97804
 Alpha virt. eigenvalues --    1.14012   1.15445   1.16578   1.17716   1.51108
 Alpha virt. eigenvalues --    1.51390   1.52288   1.52698   2.00025   2.01202
 Alpha virt. eigenvalues --    2.06100   2.07271   2.08728   2.09936   2.14231
 Alpha virt. eigenvalues --    2.15399   2.24415   2.25615   2.60878   2.62106
 Alpha virt. eigenvalues --    2.92230   2.93532   3.38755   3.39927   3.49315
 Alpha virt. eigenvalues --    3.50486   3.52519   3.53689   3.58894   3.60085
 Alpha virt. eigenvalues --    3.78032   3.79207   3.84802   3.85974   3.87051
 Alpha virt. eigenvalues --    3.88198   3.92967   3.94136   4.02418   4.03595
 Alpha virt. eigenvalues --    4.07568   4.08789   4.14639   4.15857   4.29493
 Alpha virt. eigenvalues --    4.30674   4.39264   4.40444   4.44963   4.46146
 Alpha virt. eigenvalues --    4.65889   4.67058   4.80253   4.81474   5.03606
 Alpha virt. eigenvalues --    5.04791   5.23432   5.24617   5.53398   5.54563
 Alpha virt. eigenvalues --    5.97266   5.98448   6.39744   6.40928   6.85525
 Alpha virt. eigenvalues --    6.86704   6.89014   6.90190   6.93947   6.95131
 Alpha virt. eigenvalues --    6.98458   6.99638   7.07234   7.08412   7.11886
 Alpha virt. eigenvalues --    7.13012   7.17626   7.18807   7.46527   7.47722
 Alpha virt. eigenvalues --    7.69649   7.70839   8.14423   8.15614  12.48591
 Alpha virt. eigenvalues --   12.49945
          Condensed to atoms (all electrons):
               1          2          3          4          5          6
     1  O    7.821695   0.346454   0.345951  -0.000000   0.000000   0.000000
     2  H    0.346454   0.430018  -0.036607   0.000073  -0.000004  -0.000003
     3  H    0.345951  -0.036607   0.436718  -0.000001   0.000000   0.000000
     4  O   -0.000000   0.000073  -0.000001   7.821086   0.346723   0.346841
     5  H    0.000000  -0.000004   0.000000   0.346723   0.432110  -0.036568
     6  H    0.000000  -0.000003   0.000000   0.346841  -0.036568   0.432652
 Mulliken charges:
               1
     1  O   -0.514100
     2  H    0.260068
     3  H    0.253939
     4  O   -0.514723
     5  H    0.257738
     6  H    0.257077
 Sum of Mulliken charges =  -0.00000
 Mulliken charges with hydrogens summed into heavy atoms:
               1
     1  O   -0.000092
     4  O    0.000092
 Electronic spatial extent (au):  <R**2>=            627.8828
 Charge=              0.0000 electrons
 Dipole moment (field-independent basis, Debye):
    X=             -1.1582    Y=             -3.1134    Z=             -0.0000  Tot=              3.3218
 Quadrupole moment (field-independent basis, Debye-Ang):
   XX=             -9.1869   YY=             -6.3036   ZZ=            -14.7148
   XY=             -6.5440   XZ=             -0.0000   YZ=             -0.0000
 Traceless Quadrupole moment (field-independent basis, Debye-Ang):
   XX=              0.8815   YY=              3.7649   ZZ=             -4.6464
   XY=             -6.5440   XZ=             -0.0000   YZ=             -0.0000
 Octapole moment (field-independent basis, Debye-Ang**2):
  XXX=             -0.6011  YYY=            -68.3499  ZZZ=             -0.0000  XYY=            -18.4388
  XXY=             -4.4010  XXZ=             -0.0000  XZZ=             -0.1518  YZZ=             -0.4245
  YYZ=             -0.0000  XYZ=             -0.0000
 Hexadecapole moment (field-independent basis, Debye-Ang**3):
 XXXX=            -10.8993 YYYY=           -480.6057 ZZZZ=            -11.3415 XXXY=             -3.9779
 XXXZ=             -0.0000 YYYX=            -58.1969 YYYZ=             -0.0000 ZZZX=             -0.0000
 ZZZY=             -0.0000 XXYY=            -69.9649 XXZZ=             -4.4427 YYZZ=           -125.7624
 XXYZ=             -0.0000 YYXZ=             -0.0000 ZZXY=              1.7738
 N-N= 2.710571397893D+01 E-N=-4.156282379039D+02  KE= 1.518032593290D+02
 Symmetry A'   KE= 1.427678867402D+02
 Symmetry A"   KE= 9.035372588776D+00
 Leave Link  601 at Sun Aug 28 04:23:57 2022, MaxMem=   536870912 cpu:               0.7 elap:               0.2
 (Enter /usr/site/hpc/x86_64/glibc-2.17/broadwell/gaussian/g16_a.03/pgi-16.5/g16/l9999.exe)
 1\1\GINC-N002\SP\RCCSD(T)-FC\CC-pVTZ\H4O2\ROOT\28-Aug-2022\0\\#p CCSD(
 T)/cc-pVTZ\\H2O_H2O_4618\\0,1\O,0,0.,-0.009833,0.\H,0,-0.799571,-0.580
 965,0.\H,0,0.799571,-0.580965,0.\O,0,-4.655987,-3.323035,0.\H,0,-5.489
 627,-2.80289,0.\H,0,-4.877662,-4.280305,0.\\Version=ES64L-G16RevA.03\S
 tate=1-A'\HF=-152.1084217\MP2=-152.6342223\MP3=-152.6417955\MP4D=-152.
 6508886\MP4DQ=-152.6433447\MP4SDQ=-152.6463914\CCSD=-152.645807\CCSD(T
 )=-152.6614203\RMSD=7.103e-09\PG=CS [SG(H4O2)]\\@


 THE PROMISED LAND ALWAYS LIES ON THE OTHER SIDE OF A WILDERNESS.

                         -- HAVELOCK ELLIS
 Job cpu time:       0 days  0 hours  1 minutes 38.0 seconds.
 Elapsed time:       0 days  0 hours  0 minutes 26.1 seconds.
 File lengths (MBytes):  RWF=    320 Int=      0 D2E=      0 Chk=      8 Scr=      8
 Normal termination of Gaussian 16 at Sun Aug 28 04:23:57 2022.
