 Entering Gaussian System, Link 0=g16
 Input=H2O_H2O_2326.com
 Output=H2O_H2O_2326.log
 Initial command:
 /usr/site/hpc/x86_64/glibc-2.17/broadwell/gaussian/g16_a.03/pgi-16.5/g16/l1.exe "/gpfs/gpfs1/scratch/c7441284/ForceFieldModel/FittingData2/Gau-1054188.inp" -scrdir="/gpfs/gpfs1/scratch/c7441284/ForceFieldModel/FittingData2/"
 Entering Link 1 = /usr/site/hpc/x86_64/glibc-2.17/broadwell/gaussian/g16_a.03/pgi-16.5/g16/l1.exe PID=   1054189.
  
 Copyright (c) 1988,1990,1992,1993,1995,1998,2003,2009,2016,
            Gaussian, Inc.  All Rights Reserved.
  
 This is part of the Gaussian(R) 16 program.  It is based on
 the Gaussian(R) 09 system (copyright 2009, Gaussian, Inc.),
 the Gaussian(R) 03 system (copyright 2003, Gaussian, Inc.),
 the Gaussian(R) 98 system (copyright 1998, Gaussian, Inc.),
 the Gaussian(R) 94 system (copyright 1995, Gaussian, Inc.),
 the Gaussian 92(TM) system (copyright 1992, Gaussian, Inc.),
 the Gaussian 90(TM) system (copyright 1990, Gaussian, Inc.),
 the Gaussian 88(TM) system (copyright 1988, Gaussian, Inc.),
 the Gaussian 86(TM) system (copyright 1986, Carnegie Mellon
 University), and the Gaussian 82(TM) system (copyright 1983,
 Carnegie Mellon University). Gaussian is a federally registered
 trademark of Gaussian, Inc.
  
 This software contains proprietary and confidential information,
 including trade secrets, belonging to Gaussian, Inc.
  
 This software is provided under written license and may be
 used, copied, transmitted, or stored only in accord with that
 written license.
  
 The following legend is applicable only to US Government
 contracts under FAR:
  
                    RESTRICTED RIGHTS LEGEND
  
 Use, reproduction and disclosure by the US Government is
 subject to restrictions as set forth in subparagraphs (a)
 and (c) of the Commercial Computer Software - Restricted
 Rights clause in FAR 52.227-19.
  
 Gaussian, Inc.
 340 Quinnipiac St., Bldg. 40, Wallingford CT 06492
  
  
 ---------------------------------------------------------------
 Warning -- This program may not be used in any manner that
 competes with the business of Gaussian, Inc. or will provide
 assistance to any competitor of Gaussian, Inc.  The licensee
 of this program is prohibited from giving any competitor of
 Gaussian, Inc. access to this program.  By using this program,
 the user acknowledges that Gaussian, Inc. is engaged in the
 business of creating and licensing software in the field of
 computational chemistry and represents and warrants to the
 licensee that it is not a competitor of Gaussian, Inc. and that
 it will not use this program in any manner prohibited above.
 ---------------------------------------------------------------
  

 Cite this work as:
 Gaussian 16, Revision A.03,
 M. J. Frisch, G. W. Trucks, H. B. Schlegel, G. E. Scuseria, 
 M. A. Robb, J. R. Cheeseman, G. Scalmani, V. Barone, 
 G. A. Petersson, H. Nakatsuji, X. Li, M. Caricato, A. V. Marenich, 
 J. Bloino, B. G. Janesko, R. Gomperts, B. Mennucci, H. P. Hratchian, 
 J. V. Ortiz, A. F. Izmaylov, J. L. Sonnenberg, D. Williams-Young, 
 F. Ding, F. Lipparini, F. Egidi, J. Goings, B. Peng, A. Petrone, 
 T. Henderson, D. Ranasinghe, V. G. Zakrzewski, J. Gao, N. Rega, 
 G. Zheng, W. Liang, M. Hada, M. Ehara, K. Toyota, R. Fukuda, 
 J. Hasegawa, M. Ishida, T. Nakajima, Y. Honda, O. Kitao, H. Nakai, 
 T. Vreven, K. Throssell, J. A. Montgomery, Jr., J. E. Peralta, 
 F. Ogliaro, M. J. Bearpark, J. J. Heyd, E. N. Brothers, K. N. Kudin, 
 V. N. Staroverov, T. A. Keith, R. Kobayashi, J. Normand, 
 K. Raghavachari, A. P. Rendell, J. C. Burant, S. S. Iyengar, 
 J. Tomasi, M. Cossi, J. M. Millam, M. Klene, C. Adamo, R. Cammi, 
 J. W. Ochterski, R. L. Martin, K. Morokuma, O. Farkas, 
 J. B. Foresman, and D. J. Fox, Gaussian, Inc., Wallingford CT, 2016.
 
 ******************************************
 Gaussian 16:  ES64L-G16RevA.03 25-Dec-2016
                28-Aug-2022 
 ******************************************
 %NProcShared=4
 Will use up to    4 processors via shared memory.
 %Mem=4GB
 %Chk=H2O_H2O_2326.chk
 ------------------
 #p CCSD(T)/cc-pVTZ
 ------------------
 1/38=1,172=1/1;
 2/12=2,17=6,18=5,40=1/2;
 3/5=16,6=1,11=9,25=1,30=1/1,2,3;
 4//1;
 5/5=2,38=5/2;
 8/6=4,9=120000,10=1/1,4;
 9/5=7,14=2/13;
 6/7=2,8=2,9=2,10=2/1;
 99/5=1,9=1/99;
 Leave Link    1 at Sun Aug 28 06:19:44 2022, MaxMem=   536870912 cpu:               0.9 elap:               0.3
 (Enter /usr/site/hpc/x86_64/glibc-2.17/broadwell/gaussian/g16_a.03/pgi-16.5/g16/l101.exe)
 ------------
 H2O_H2O_2326
 ------------
 Symbolic Z-matrix:
 Charge =  0 Multiplicity = 1
 O                     0.       -0.00983   0. 
 H                    -0.79957  -0.58097   0. 
 H                     0.79957  -0.58097   0. 
 O                    -3.17072  -2.27419   0. 
 H                    -4.00593  -2.7918    0. 
 H                    -2.41021  -2.89639   0. 
 
 ITRead=  0  0  0  0  0  0
 MicOpt= -1 -1 -1 -1 -1 -1
 NAtoms=      6 NQM=        6 NQMF=       0 NMMI=      0 NMMIF=      0
                NMic=       0 NMicF=      0.
                    Isotopes and Nuclear Properties:
 (Nuclear quadrupole moments (NQMom) in fm**2, nuclear magnetic moments (NMagM)
  in nuclear magnetons)

  Atom         1           2           3           4           5           6
 IAtWgt=          16           1           1          16           1           1
 AtmWgt=  15.9949146   1.0078250   1.0078250  15.9949146   1.0078250   1.0078250
 NucSpn=           0           1           1           0           1           1
 AtZEff=  -0.0000000  -0.0000000  -0.0000000  -0.0000000  -0.0000000  -0.0000000
 NQMom=    0.0000000   0.0000000   0.0000000   0.0000000   0.0000000   0.0000000
 NMagM=    0.0000000   2.7928460   2.7928460   0.0000000   2.7928460   2.7928460
 AtZNuc=   8.0000000   1.0000000   1.0000000   8.0000000   1.0000000   1.0000000
 Leave Link  101 at Sun Aug 28 06:19:44 2022, MaxMem=   536870912 cpu:               0.7 elap:               0.2
 (Enter /usr/site/hpc/x86_64/glibc-2.17/broadwell/gaussian/g16_a.03/pgi-16.5/g16/l202.exe)
                          Input orientation:                          
 ---------------------------------------------------------------------
 Center     Atomic      Atomic             Coordinates (Angstroms)
 Number     Number       Type             X           Y           Z
 ---------------------------------------------------------------------
      1          8           0        0.000000   -0.009833    0.000000
      2          1           0       -0.799571   -0.580965    0.000000
      3          1           0        0.799571   -0.580965    0.000000
      4          8           0       -3.170716   -2.274188    0.000000
      5          1           0       -4.005929   -2.791802    0.000000
      6          1           0       -2.410210   -2.896391    0.000000
 ---------------------------------------------------------------------
                    Distance matrix (angstroms):
                    1          2          3          4          5
     1  O    0.000000
     2  H    0.982601   0.000000
     3  H    0.982601   1.599142   0.000000
     4  O    3.896247   2.913646   4.316270   0.000000
     5  H    4.877173   3.894680   5.289672   0.982601   0.000000
     6  H    3.760496   2.820524   3.957763   0.982602   1.599143
                    6
     6  H    0.000000
 Stoichiometry    H4O2
 Framework group  CS[SG(H4O2)]
 Deg. of freedom     9
 Full point group                 CS      NOp   2
 Largest Abelian subgroup         CS      NOp   2
 Largest concise Abelian subgroup C1      NOp   1
                         Standard orientation:                         
 ---------------------------------------------------------------------
 Center     Atomic      Atomic             Coordinates (Angstroms)
 Number     Number       Type             X           Y           Z
 ---------------------------------------------------------------------
      1          8           0        0.090686   -2.017477    0.000000
      2          1           0        0.090587   -1.034875    0.000000
      3          1           0       -0.838775   -2.336236    0.000000
      4          8           0        0.090686    1.878771    0.000000
      5          1           0        0.154853    2.859275    0.000000
      6          1           0       -0.857633    1.621482    0.000000
 ---------------------------------------------------------------------
 Rotational constants (GHZ):         300.0882587           3.6357899           3.5922669
 Leave Link  202 at Sun Aug 28 06:19:44 2022, MaxMem=   536870912 cpu:               0.0 elap:               0.0
 (Enter /usr/site/hpc/x86_64/glibc-2.17/broadwell/gaussian/g16_a.03/pgi-16.5/g16/l301.exe)
 Standard basis: CC-pVTZ (5D, 7F)
 Ernie: Thresh=  0.10000D-02 Tol=  0.10000D-05 Strict=F.
 Ernie:  6 primitive shells out of 84 were deleted.
 There are    92 symmetry adapted cartesian basis functions of A'  symmetry.
 There are    38 symmetry adapted cartesian basis functions of A"  symmetry.
 There are    80 symmetry adapted basis functions of A'  symmetry.
 There are    36 symmetry adapted basis functions of A"  symmetry.
   116 basis functions,   172 primitive gaussians,   130 cartesian basis functions
    10 alpha electrons       10 beta electrons
       nuclear repulsion energy        31.5724017019 Hartrees.
 IExCor=    0 DFT=F Ex=HF Corr=None ExCW=0 ScaHFX=  1.000000
 ScaDFX=  1.000000  1.000000  1.000000  1.000000 ScalE2=  1.000000  1.000000
 IRadAn=      5 IRanWt=     -1 IRanGd=            0 ICorTp=0 IEmpDi=  4
 NAtoms=    6 NActive=    6 NUniq=    6 SFac= 1.00D+00 NAtFMM=   60 NAOKFM=F Big=F
 Integral buffers will be    131072 words long.
 Raffenetti 1 integral format.
 Two-electron integral symmetry is turned on.
 Leave Link  301 at Sun Aug 28 06:19:44 2022, MaxMem=   536870912 cpu:               0.1 elap:               0.0
 (Enter /usr/site/hpc/x86_64/glibc-2.17/broadwell/gaussian/g16_a.03/pgi-16.5/g16/l302.exe)
 NPDir=0 NMtPBC=     1 NCelOv=     1 NCel=       1 NClECP=     1 NCelD=      1
         NCelK=      1 NCelE2=     1 NClLst=     1 CellRange=     0.0.
 One-electron integrals computed using PRISM.
 One-electron integral symmetry used in STVInt
 NBasis=   116 RedAO= T EigKep=  2.44D-03  NBF=    80    36
 NBsUse=   116 1.00D-06 EigRej= -1.00D+00 NBFU=    80    36
 Leave Link  302 at Sun Aug 28 06:19:44 2022, MaxMem=   536870912 cpu:               0.5 elap:               0.1
 (Enter /usr/site/hpc/x86_64/glibc-2.17/broadwell/gaussian/g16_a.03/pgi-16.5/g16/l303.exe)
 DipDrv:  MaxL=1.
 Leave Link  303 at Sun Aug 28 06:19:44 2022, MaxMem=   536870912 cpu:               0.1 elap:               0.0
 (Enter /usr/site/hpc/x86_64/glibc-2.17/broadwell/gaussian/g16_a.03/pgi-16.5/g16/l401.exe)
 ExpMin= 1.03D-01 ExpMax= 1.53D+04 ExpMxC= 5.22D+02 IAcc=3 IRadAn=         5 AccDes= 0.00D+00
 Harris functional with IExCor=  205 and IRadAn=       5 diagonalized for initial guess.
 HarFok:  IExCor=  205 AccDes= 0.00D+00 IRadAn=         5 IDoV= 1 UseB2=F ITyADJ=14
 ICtDFT=  3500011 ScaDFX=  1.000000  1.000000  1.000000  1.000000
 FoFCou: FMM=F IPFlag=           0 FMFlag=      100000 FMFlg1=           0
         NFxFlg=           0 DoJE=T BraDBF=F KetDBF=T FulRan=T
         wScrn=  0.000000 ICntrl=       500 IOpCl=  0 I1Cent=   200000004 NGrid=           0
         NMat0=    1 NMatS0=      1 NMatT0=    0 NMatD0=    1 NMtDS0=    0 NMtDT0=    0
 Petite list used in FoFCou.
 Harris En= -152.298833559677    
 JPrj=0 DoOrth=F DoCkMO=F.
 Initial guess orbital symmetries:
       Occupied  (A') (A') (A') (A') (A') (A') (A') (A') (A") (A")
       Virtual   (A') (A') (A') (A') (A') (A') (A') (A') (A') (A')
                 (A") (A") (A') (A') (A') (A") (A") (A') (A") (A")
                 (A') (A') (A') (A') (A') (A') (A') (A') (A") (A")
                 (A") (A") (A') (A') (A') (A') (A') (A') (A') (A')
                 (A') (A') (A") (A") (A') (A') (A") (A") (A") (A")
                 (A') (A') (A') (A') (A') (A') (A") (A") (A') (A')
                 (A') (A") (A') (A") (A") (A") (A') (A') (A') (A')
                 (A") (A") (A') (A') (A') (A') (A') (A') (A') (A')
                 (A") (A") (A') (A') (A") (A") (A") (A") (A') (A')
                 (A") (A") (A') (A') (A') (A') (A") (A") (A') (A')
                 (A') (A') (A') (A') (A') (A')
 The electronic state of the initial guess is 1-A'.
 Leave Link  401 at Sun Aug 28 06:19:45 2022, MaxMem=   536870912 cpu:               0.8 elap:               0.2
 (Enter /usr/site/hpc/x86_64/glibc-2.17/broadwell/gaussian/g16_a.03/pgi-16.5/g16/l502.exe)
 Keep R1 ints in memory in symmetry-blocked form, NReq=34823457.
 FoFCou: FMM=F IPFlag=           0 FMFlag=           0 FMFlg1=           0
         NFxFlg=           0 DoJE=F BraDBF=F KetDBF=F FulRan=T
         wScrn=  0.000000 ICntrl=       600 IOpCl=  0 I1Cent=           0 NGrid=           0
         NMat0=    1 NMatS0=   6786 NMatT0=    0 NMatD0=    1 NMtDS0=    0 NMtDT0=    0
 Petite list used in FoFCou.
 Closed shell SCF:
 Using DIIS extrapolation, IDIIS=  1040.
 NGot=   536870912 LenX=   525040673 LenY=   525023332
 Requested convergence on RMS density matrix=1.00D-08 within 128 cycles.
 Requested convergence on MAX density matrix=1.00D-06.
 Requested convergence on             energy=1.00D-06.
 No special actions if energy rises.

 Cycle   1  Pass 1  IDiag  1:
 E= -151.930785352633    
 DIIS: error= 6.58D-02 at cycle   1 NSaved=   1.
 NSaved= 1 IEnMin= 1 EnMin= -151.930785352633     IErMin= 1 ErrMin= 6.58D-02
 ErrMax= 6.58D-02  0.00D+00 EMaxC= 1.00D-01 BMatC= 3.98D-01 BMatP= 3.98D-01
 IDIUse=3 WtCom= 3.42D-01 WtEn= 6.58D-01
 Coeff-Com:  0.100D+01
 Coeff-En:   0.100D+01
 Coeff:      0.100D+01
 Gap=     0.497 Goal=   None    Shift=    0.000
 GapD=    0.497 DampG=2.000 DampE=0.500 DampFc=1.0000 IDamp=-1.
 RMSDP=2.54D-03 MaxDP=6.67D-02              OVMax= 1.26D-01

 Cycle   2  Pass 1  IDiag  1:
 E= -152.041143064074     Delta-E=       -0.110357711441 Rises=F Damp=F
 DIIS: error= 4.13D-02 at cycle   2 NSaved=   2.
 NSaved= 2 IEnMin= 2 EnMin= -152.041143064074     IErMin= 2 ErrMin= 4.13D-02
 ErrMax= 4.13D-02  0.00D+00 EMaxC= 1.00D-01 BMatC= 1.11D-01 BMatP= 3.98D-01
 IDIUse=3 WtCom= 5.87D-01 WtEn= 4.13D-01
 Coeff-Com:  0.318D+00 0.682D+00
 Coeff-En:   0.166D+00 0.834D+00
 Coeff:      0.255D+00 0.745D+00
 Gap=     0.632 Goal=   None    Shift=    0.000
 RMSDP=1.36D-03 MaxDP=3.95D-02 DE=-1.10D-01 OVMax= 5.70D-02

 Cycle   3  Pass 1  IDiag  1:
 E= -152.105088458568     Delta-E=       -0.063945394494 Rises=F Damp=F
 DIIS: error= 9.02D-03 at cycle   3 NSaved=   3.
 NSaved= 3 IEnMin= 3 EnMin= -152.105088458568     IErMin= 3 ErrMin= 9.02D-03
 ErrMax= 9.02D-03  0.00D+00 EMaxC= 1.00D-01 BMatC= 5.98D-03 BMatP= 1.11D-01
 IDIUse=3 WtCom= 9.10D-01 WtEn= 9.02D-02
 Coeff-Com: -0.304D-01 0.157D+00 0.874D+00
 Coeff-En:   0.000D+00 0.000D+00 0.100D+01
 Coeff:     -0.277D-01 0.142D+00 0.885D+00
 Gap=     0.604 Goal=   None    Shift=    0.000
 RMSDP=2.48D-04 MaxDP=5.74D-03 DE=-6.39D-02 OVMax= 1.34D-02

 Cycle   4  Pass 1  IDiag  1:
 E= -152.108807009462     Delta-E=       -0.003718550894 Rises=F Damp=F
 DIIS: error= 8.46D-04 at cycle   4 NSaved=   4.
 NSaved= 4 IEnMin= 4 EnMin= -152.108807009462     IErMin= 4 ErrMin= 8.46D-04
 ErrMax= 8.46D-04  0.00D+00 EMaxC= 1.00D-01 BMatC= 3.69D-05 BMatP= 5.98D-03
 IDIUse=3 WtCom= 9.92D-01 WtEn= 8.46D-03
 Coeff-Com:  0.679D-02-0.614D-01-0.238D+00 0.129D+01
 Coeff-En:   0.000D+00 0.000D+00 0.000D+00 0.100D+01
 Coeff:      0.674D-02-0.608D-01-0.236D+00 0.129D+01
 Gap=     0.607 Goal=   None    Shift=    0.000
 RMSDP=5.26D-05 MaxDP=1.01D-03 DE=-3.72D-03 OVMax= 2.34D-03

 Cycle   5  Pass 1  IDiag  1:
 E= -152.108857235150     Delta-E=       -0.000050225688 Rises=F Damp=F
 DIIS: error= 1.91D-04 at cycle   5 NSaved=   5.
 NSaved= 5 IEnMin= 5 EnMin= -152.108857235150     IErMin= 5 ErrMin= 1.91D-04
 ErrMax= 1.91D-04  0.00D+00 EMaxC= 1.00D-01 BMatC= 1.37D-06 BMatP= 3.69D-05
 IDIUse=3 WtCom= 9.98D-01 WtEn= 1.91D-03
 Coeff-Com:  0.590D-03 0.157D-04-0.462D-02-0.214D+00 0.122D+01
 Coeff-En:   0.000D+00 0.000D+00 0.000D+00 0.000D+00 0.100D+01
 Coeff:      0.589D-03 0.156D-04-0.461D-02-0.213D+00 0.122D+01
 Gap=     0.608 Goal=   None    Shift=    0.000
 RMSDP=1.44D-05 MaxDP=3.06D-04 DE=-5.02D-05 OVMax= 7.16D-04

 Cycle   6  Pass 1  IDiag  1:
 E= -152.108860080000     Delta-E=       -0.000002844849 Rises=F Damp=F
 DIIS: error= 2.86D-05 at cycle   6 NSaved=   6.
 NSaved= 6 IEnMin= 6 EnMin= -152.108860080000     IErMin= 6 ErrMin= 2.86D-05
 ErrMax= 2.86D-05  0.00D+00 EMaxC= 1.00D-01 BMatC= 4.45D-08 BMatP= 1.37D-06
 IDIUse=1 WtCom= 1.00D+00 WtEn= 0.00D+00
 Coeff-Com: -0.193D-03 0.173D-02 0.667D-02-0.364D-01-0.529D-01 0.108D+01
 Coeff:     -0.193D-03 0.173D-02 0.667D-02-0.364D-01-0.529D-01 0.108D+01
 Gap=     0.608 Goal=   None    Shift=    0.000
 RMSDP=2.77D-06 MaxDP=6.93D-05 DE=-2.84D-06 OVMax= 1.52D-04

 Cycle   7  Pass 1  IDiag  1:
 E= -152.108860176076     Delta-E=       -0.000000096076 Rises=F Damp=F
 DIIS: error= 9.33D-06 at cycle   7 NSaved=   7.
 NSaved= 7 IEnMin= 7 EnMin= -152.108860176076     IErMin= 7 ErrMin= 9.33D-06
 ErrMax= 9.33D-06  0.00D+00 EMaxC= 1.00D-01 BMatC= 8.01D-09 BMatP= 4.45D-08
 IDIUse=1 WtCom= 1.00D+00 WtEn= 0.00D+00
 Coeff-Com: -0.988D-04 0.365D-03 0.173D-02 0.137D-01-0.137D+00 0.278D+00
 Coeff-Com:  0.843D+00
 Coeff:     -0.988D-04 0.365D-03 0.173D-02 0.137D-01-0.137D+00 0.278D+00
 Coeff:      0.843D+00
 Gap=     0.608 Goal=   None    Shift=    0.000
 RMSDP=7.05D-07 MaxDP=2.09D-05 DE=-9.61D-08 OVMax= 4.60D-05

 Cycle   8  Pass 1  IDiag  1:
 E= -152.108860185696     Delta-E=       -0.000000009621 Rises=F Damp=F
 DIIS: error= 2.37D-06 at cycle   8 NSaved=   8.
 NSaved= 8 IEnMin= 8 EnMin= -152.108860185696     IErMin= 8 ErrMin= 2.37D-06
 ErrMax= 2.37D-06  0.00D+00 EMaxC= 1.00D-01 BMatC= 4.84D-10 BMatP= 8.01D-09
 IDIUse=1 WtCom= 1.00D+00 WtEn= 0.00D+00
 Coeff-Com:  0.258D-04-0.223D-03-0.897D-03 0.442D-02 0.105D-01-0.122D+00
 Coeff-Com: -0.370D-01 0.115D+01
 Coeff:      0.258D-04-0.223D-03-0.897D-03 0.442D-02 0.105D-01-0.122D+00
 Coeff:     -0.370D-01 0.115D+01
 Gap=     0.608 Goal=   None    Shift=    0.000
 RMSDP=2.08D-07 MaxDP=4.05D-06 DE=-9.62D-09 OVMax= 1.44D-05

 Cycle   9  Pass 1  IDiag  1:
 E= -152.108860186635     Delta-E=       -0.000000000939 Rises=F Damp=F
 DIIS: error= 8.46D-07 at cycle   9 NSaved=   9.
 NSaved= 9 IEnMin= 9 EnMin= -152.108860186635     IErMin= 9 ErrMin= 8.46D-07
 ErrMax= 8.46D-07  0.00D+00 EMaxC= 1.00D-01 BMatC= 2.65D-11 BMatP= 4.84D-10
 IDIUse=1 WtCom= 1.00D+00 WtEn= 0.00D+00
 Coeff-Com:  0.121D-05 0.284D-04 0.116D-03-0.244D-02 0.877D-02 0.802D-02
 Coeff-Com: -0.536D-01-0.252D+00 0.129D+01
 Coeff:      0.121D-05 0.284D-04 0.116D-03-0.244D-02 0.877D-02 0.802D-02
 Coeff:     -0.536D-01-0.252D+00 0.129D+01
 Gap=     0.608 Goal=   None    Shift=    0.000
 RMSDP=5.90D-08 MaxDP=1.02D-06 DE=-9.39D-10 OVMax= 3.21D-06

 Cycle  10  Pass 1  IDiag  1:
 E= -152.108860186692     Delta-E=       -0.000000000057 Rises=F Damp=F
 DIIS: error= 9.85D-08 at cycle  10 NSaved=  10.
 NSaved=10 IEnMin=10 EnMin= -152.108860186692     IErMin=10 ErrMin= 9.85D-08
 ErrMax= 9.85D-08  0.00D+00 EMaxC= 1.00D-01 BMatC= 4.47D-13 BMatP= 2.65D-11
 IDIUse=1 WtCom= 1.00D+00 WtEn= 0.00D+00
 Coeff-Com: -0.657D-06-0.177D-05-0.962D-05 0.404D-03-0.162D-02-0.893D-03
 Coeff-Com:  0.115D-01 0.463D-01-0.328D+00 0.127D+01
 Coeff:     -0.657D-06-0.177D-05-0.962D-05 0.404D-03-0.162D-02-0.893D-03
 Coeff:      0.115D-01 0.463D-01-0.328D+00 0.127D+01
 Gap=     0.608 Goal=   None    Shift=    0.000
 RMSDP=7.11D-09 MaxDP=1.78D-07 DE=-5.68D-11 OVMax= 4.02D-07

 SCF Done:  E(RHF) =  -152.108860187     A.U. after   10 cycles
            NFock= 10  Conv=0.71D-08     -V/T= 2.0020
 KE= 1.517989145970D+02 PE=-4.244833788141D+02 EE= 8.900320232849D+01
 Leave Link  502 at Sun Aug 28 06:19:46 2022, MaxMem=   536870912 cpu:               4.1 elap:               1.1
 (Enter /usr/site/hpc/x86_64/glibc-2.17/broadwell/gaussian/g16_a.03/pgi-16.5/g16/l801.exe)
 Windowed orbitals will be sorted by symmetry type.
 ExpMin= 1.03D-01 ExpMax= 1.53D+04 ExpMxC= 5.22D+02 IAcc=3 IRadAn=         5 AccDes= 0.00D+00
 HarFok:  IExCor=  205 AccDes= 0.00D+00 IRadAn=         5 IDoV=-2 UseB2=F ITyADJ=14
 ICtDFT= 12500011 ScaDFX=  1.000000  1.000000  1.000000  1.000000
 Largest valence mixing into a core orbital is  1.12D-04
 Largest core mixing into a valence orbital is  1.76D-05
 Range of M.O.s used for correlation:     3   116
 NBasis=   116 NAE=    10 NBE=    10 NFC=     2 NFV=     0
 NROrb=    114 NOA=     8 NOB=     8 NVA=   106 NVB=   106
 Leave Link  801 at Sun Aug 28 06:19:46 2022, MaxMem=   536870912 cpu:               0.3 elap:               0.1
 (Enter /usr/site/hpc/x86_64/glibc-2.17/broadwell/gaussian/g16_a.03/pgi-16.5/g16/l804.exe)
 Closed-shell transformation, MDV=   536870912 ITran=4 ISComp=2.
 Unit  1 TFree=        834515 TCopy=        406125.
 Semi-Direct transformation.
 ModeAB=           4 MOrb=             8 LenV=     536368410
 LASXX=      2873146 LTotXX=     2873146 LenRXX=     5831278
 LTotAB=     2958132 MaxLAS=     6901104 LenRXY=           0
 NonZer=     8704424 LenScr=    13107200 LnRSAI=     6901104
 LnScr1=    10485760 LExtra=           0 Total=     36325342
 MaxDsk=          -1 SrtSym=           T ITran=            4
 DoSDTr:  NPSUse=  4
 JobTyp=0 Pass  1:  I=   1 to   8.
 (rs|ai) integrals will be sorted in core.
 Complete sort for first half transformation.
 First half transformation complete.
 Complete sort for second half transformation.
 Second half transformation complete.
 Spin components of T(2) and E(2):
     alpha-alpha T2 =       0.1561824126D-01 E2=     -0.6393400023D-01
     alpha-beta  T2 =       0.9201853770D-01 E2=     -0.3985346350D+00
     beta-beta   T2 =       0.1561824126D-01 E2=     -0.6393400023D-01
 ANorm=    0.1059837261D+01
 E2 =    -0.5264026354D+00 EUMP2 =    -0.15263526282213D+03
 Leave Link  804 at Sun Aug 28 06:19:47 2022, MaxMem=   536870912 cpu:               3.7 elap:               0.9
 (Enter /usr/site/hpc/x86_64/glibc-2.17/broadwell/gaussian/g16_a.03/pgi-16.5/g16/l913.exe)
 CIDS:  MDV=   536870912.
 Frozen-core window:  NFC=   2 NFV=   0.
 IFCWin=0 IBDFC=1 NFBD=     0     0 NFCmp=     0     0 NFFFC=     0     0
 Using DD3R+UMP44R for 1st iteration.
 Using DD4RQ for 2nd and later iterations.
 Keep R2 and R3 ints in memory in symmetry-blocked form, NReq=35357534.
 FoFCou: FMM=F IPFlag=           0 FMFlag=           0 FMFlg1=           0
         NFxFlg=           0 DoJE=F BraDBF=F KetDBF=F FulRan=T
         wScrn=  0.000000 ICntrl=       600 IOpCl=  0 I1Cent=           0 NGrid=           0
         NMat0=    1 NMatS0=   6786 NMatT0=    0 NMatD0=    1 NMtDS0=    0 NMtDT0=    0
 Petite list used in FoFCou.
 CIDS: In Core Option IDoMem=           1.
 CCSD(T)
 =======
 Iterations=  50 Convergence= 0.100D-06
 Produce multiple copies of IABC intergrals
 Iteration Nr.   1
 **********************
 DD1Dir will call FoFMem   1 times, MxPair=        72
 NAB=    36 NAA=     0 NBB=     0.
 MP4(R+Q)=  0.75787077D-02
 Maximum subspace dimension=  5
 A-vector RMS=  1.7776549D-03 Max=  6.0184211D-03 conv= 1.00D-05.
 RLE energy=       -0.5261752178
 E3=       -0.74219146D-02        EUMP3=      -0.15264268474D+03
 E4(DQ)=   -0.15322805D-02        UMP4(DQ)=   -0.15264421702D+03
 E4(SDQ)=  -0.46244988D-02        UMP4(SDQ)=  -0.15264730924D+03
 VARIATIONAL ENERGIES WITH THE FIRST-ORDER WAVEFUNCTION:
 DE(Corr)= -0.52617513     E(Corr)=     -152.63503532    
 NORM(A)=   0.10601603D+01
 Iteration Nr.   2
 **********************
 DD1Dir will call FoFMem   1 times, MxPair=        72
 NAB=    36 NAA=     0 NBB=     0.
 A-vector RMS=  2.1299780D-04 Max=  2.1621938D-03 conv= 1.00D-05.
 RLE energy=       -0.5372550061
 DE(Corr)= -0.53611218     E(CORR)=     -152.64497237     Delta=-9.94D-03
 NORM(A)=   0.10639195D+01
 Iteration Nr.   3
 **********************
 DD1Dir will call FoFMem   1 times, MxPair=        72
 NAB=    36 NAA=     0 NBB=     0.
 A-vector RMS=  1.5219221D-04 Max=  9.7777972D-04 conv= 1.00D-05.
 RLE energy=       -0.5377539077
 DE(Corr)= -0.53716358     E(CORR)=     -152.64602377     Delta=-1.05D-03
 NORM(A)=   0.10645594D+01
 Iteration Nr.   4
 **********************
 DD1Dir will call FoFMem   1 times, MxPair=        72
 NAB=    36 NAA=     0 NBB=     0.
 A-vector RMS=  3.0928701D-05 Max=  1.5828259D-04 conv= 1.00D-05.
 RLE energy=       -0.5378343751
 DE(Corr)= -0.53780009     E(CORR)=     -152.64666028     Delta=-6.37D-04
 NORM(A)=   0.10646710D+01
 Iteration Nr.   5
 **********************
 DD1Dir will call FoFMem   1 times, MxPair=        72
 NAB=    36 NAA=     0 NBB=     0.
 A-vector RMS=  2.0500723D-05 Max=  1.9674500D-04 conv= 1.00D-05.
 RLE energy=       -0.5378457316
 DE(Corr)= -0.53783826     E(CORR)=     -152.64669845     Delta=-3.82D-05
 NORM(A)=   0.10646831D+01
 Iteration Nr.   6
 **********************
 DD1Dir will call FoFMem   1 times, MxPair=        72
 NAB=    36 NAA=     0 NBB=     0.
 A-vector RMS=  6.3366210D-06 Max=  4.5277848D-05 conv= 1.00D-05.
 RLE energy=       -0.5378373832
 DE(Corr)= -0.53784190     E(CORR)=     -152.64670209     Delta=-3.64D-06
 NORM(A)=   0.10646829D+01
 Iteration Nr.   7
 **********************
 DD1Dir will call FoFMem   1 times, MxPair=        72
 NAB=    36 NAA=     0 NBB=     0.
 A-vector RMS=  2.8873038D-06 Max=  2.8819786D-05 conv= 1.00D-05.
 RLE energy=       -0.5378413609
 DE(Corr)= -0.53784209     E(CORR)=     -152.64670228     Delta=-1.92D-07
 NORM(A)=   0.10646847D+01
 Iteration Nr.   8
 **********************
 DD1Dir will call FoFMem   1 times, MxPair=        72
 NAB=    36 NAA=     0 NBB=     0.
 A-vector RMS=  1.0946926D-06 Max=  8.3338197D-06 conv= 1.00D-05.
 RLE energy=       -0.5378413749
 DE(Corr)= -0.53784162     E(CORR)=     -152.64670181     Delta= 4.73D-07
 NORM(A)=   0.10646850D+01
 Iteration Nr.   9
 **********************
 DD1Dir will call FoFMem   1 times, MxPair=        72
 NAB=    36 NAA=     0 NBB=     0.
 A-vector RMS=  2.1533163D-07 Max=  2.2587435D-06 conv= 1.00D-05.
 RLE energy=       -0.5378416491
 DE(Corr)= -0.53784172     E(CORR)=     -152.64670190     Delta=-9.81D-08
 NORM(A)=   0.10646854D+01
 CI/CC converged in    9 iterations to DelEn=-9.81D-08 Conv= 1.00D-07 ErrA1= 2.15D-07 Conv= 1.00D-05
 Wavefunction amplitudes converged. E(Corr)=     -152.64670190    
 Largest amplitude= 4.49D-02
 IPart=  4 IA=    7   11.05% done.
 IPart=  4 IA=   13   21.46% done.
 IPart=  1 IA=   19   31.21% done.
 IPart=  4 IA=   25   40.32% done.
 IPart=  4 IA=   32   50.13% done.
 IPart=  4 IA=   40   60.27% done.
 IPart=  1 IA=   49   70.30% done.
 IPart=  3 IA=   60   80.58% done.
 IPart=  3 IA=   74   90.51% done.
 Time for triples=       48.81 seconds.
 T4(CCSD)= -0.16118048D-01
 T5(CCSD)=  0.41161538D-03
 CCSD(T)= -0.15266240834D+03
 Discarding MO integrals.
 Leave Link  913 at Sun Aug 28 06:20:05 2022, MaxMem=   536870912 cpu:              70.2 elap:              17.8
 (Enter /usr/site/hpc/x86_64/glibc-2.17/broadwell/gaussian/g16_a.03/pgi-16.5/g16/l601.exe)
 Copying SCF densities to generalized density rwf, IOpCl= 0 IROHF=0.

 **********************************************************************

            Population analysis using the SCF density.

 **********************************************************************

 Orbital symmetries:
       Occupied  (A') (A') (A') (A') (A') (A') (A') (A') (A") (A")
       Virtual   (A') (A') (A') (A') (A') (A') (A') (A') (A') (A')
                 (A") (A') (A") (A') (A") (A') (A") (A') (A") (A")
                 (A') (A') (A') (A') (A') (A') (A') (A') (A") (A")
                 (A") (A") (A') (A') (A') (A') (A') (A') (A') (A')
                 (A') (A') (A") (A") (A') (A') (A") (A") (A') (A')
                 (A") (A") (A') (A') (A') (A') (A") (A") (A") (A")
                 (A') (A') (A') (A') (A") (A") (A') (A') (A') (A')
                 (A") (A") (A') (A') (A') (A') (A') (A') (A') (A')
                 (A") (A") (A') (A') (A") (A") (A") (A") (A') (A")
                 (A') (A") (A') (A') (A') (A') (A") (A") (A') (A')
                 (A') (A') (A') (A') (A') (A')
 The electronic state is 1-A'.
 Alpha  occ. eigenvalues --  -20.57044 -20.54865  -1.34333  -1.32171  -0.71806
 Alpha  occ. eigenvalues --   -0.69522  -0.57825  -0.55613  -0.51437  -0.49287
 Alpha virt. eigenvalues --    0.11516   0.15981   0.19893   0.24508   0.53133
 Alpha virt. eigenvalues --    0.55805   0.56594   0.57647   0.68355   0.71975
 Alpha virt. eigenvalues --    0.77013   0.79613   0.79698   0.79847   0.83359
 Alpha virt. eigenvalues --    0.83459   0.85861   0.86071   0.95615   0.98531
 Alpha virt. eigenvalues --    1.12991   1.15368   1.19685   1.20027   1.50166
 Alpha virt. eigenvalues --    1.51011   1.52556   1.58723   1.99147   2.01410
 Alpha virt. eigenvalues --    2.05230   2.07500   2.10197   2.12271   2.15248
 Alpha virt. eigenvalues --    2.17436   2.25764   2.31044   2.60154   2.62824
 Alpha virt. eigenvalues --    2.91916   2.95780   3.37892   3.40056   3.48473
 Alpha virt. eigenvalues --    3.50697   3.51680   3.53801   3.58052   3.60326
 Alpha virt. eigenvalues --    3.77097   3.79408   3.82778   3.84529   3.87386
 Alpha virt. eigenvalues --    3.90290   3.92040   3.94363   4.01612   4.03940
 Alpha virt. eigenvalues --    4.07046   4.10475   4.14401   4.17921   4.28652
 Alpha virt. eigenvalues --    4.30830   4.38655   4.41628   4.43832   4.48468
 Alpha virt. eigenvalues --    4.65075   4.67222   4.81687   4.82201   5.03263
 Alpha virt. eigenvalues --    5.05885   5.22631   5.25406   5.54078   5.55375
 Alpha virt. eigenvalues --    5.96397   5.98566   6.38887   6.41665   6.84645
 Alpha virt. eigenvalues --    6.86842   6.88143   6.90333   6.92529   6.97592
 Alpha virt. eigenvalues --    6.98846   6.99783   7.07471   7.08809   7.11476
 Alpha virt. eigenvalues --    7.15483   7.16734   7.18967   7.45843   7.48988
 Alpha virt. eigenvalues --    7.70019   7.72559   8.14577   8.16877  12.43305
 Alpha virt. eigenvalues --   12.72594
          Condensed to atoms (all electrons):
               1          2          3          4          5          6
     1  O    7.817409   0.352272   0.344262  -0.000462   0.000014   0.000461
     2  H    0.352272   0.417527  -0.038745   0.006157  -0.000290  -0.000701
     3  H    0.344262  -0.038745   0.447979  -0.000144   0.000004   0.000226
     4  O   -0.000462   0.006157  -0.000144   7.832627   0.335839   0.329138
     5  H    0.000014  -0.000290   0.000004   0.335839   0.434109  -0.028751
     6  H    0.000461  -0.000701   0.000226   0.329138  -0.028751   0.451793
 Mulliken charges:
               1
     1  O   -0.513955
     2  H    0.263780
     3  H    0.246419
     4  O   -0.503154
     5  H    0.259075
     6  H    0.247835
 Sum of Mulliken charges =  -0.00000
 Mulliken charges with hydrogens summed into heavy atoms:
               1
     1  O   -0.003756
     4  O    0.003756
 Electronic spatial extent (au):  <R**2>=            310.3088
 Charge=             -0.0000 electrons
 Dipole moment (field-independent basis, Debye):
    X=             -3.0696    Y=              2.5477    Z=              0.0000  Tot=              3.9891
 Quadrupole moment (field-independent basis, Debye-Ang):
   XX=            -10.7269   YY=             -8.9441   ZZ=            -14.7147
   XY=              2.3370   XZ=              0.0000   YZ=              0.0000
 Traceless Quadrupole moment (field-independent basis, Debye-Ang):
   XX=              0.7350   YY=              2.5178   ZZ=             -3.2528
   XY=              2.3370   XZ=              0.0000   YZ=              0.0000
 Octapole moment (field-independent basis, Debye-Ang**2):
  XXX=             -3.5974  YYY=             32.1091  ZZZ=              0.0000  XYY=            -11.8711
  XXY=             -0.4047  XXZ=              0.0000  XZZ=             -0.3941  YZZ=              0.3731
  YYZ=              0.0000  XYZ=              0.0000
 Hexadecapole moment (field-independent basis, Debye-Ang**3):
 XXXX=            -11.6153 YYYY=           -222.5483 ZZZZ=            -11.3453 XXXY=              0.3619
 XXXZ=              0.0000 YYYX=             26.8557 YYYZ=              0.0000 ZZZX=              0.0000
 ZZZY=              0.0000 XXYY=            -44.7273 XXZZ=             -4.3358 YYZZ=            -60.3387
 XXYZ=              0.0000 YYXZ=              0.0000 ZZXY=             -0.2374
 N-N= 3.157240170194D+01 E-N=-4.244833777952D+02  KE= 1.517989145970D+02
 Symmetry A'   KE= 1.427589595087D+02
 Symmetry A"   KE= 9.039955088258D+00
 Leave Link  601 at Sun Aug 28 06:20:05 2022, MaxMem=   536870912 cpu:               0.2 elap:               0.0
 (Enter /usr/site/hpc/x86_64/glibc-2.17/broadwell/gaussian/g16_a.03/pgi-16.5/g16/l9999.exe)
 1\1\GINC-N002\SP\RCCSD(T)-FC\CC-pVTZ\H4O2\ROOT\28-Aug-2022\0\\#p CCSD(
 T)/cc-pVTZ\\H2O_H2O_2326\\0,1\O,0,0.,-0.009833,0.\H,0,-0.799571,-0.580
 965,0.\H,0,0.799571,-0.580965,0.\O,0,-3.170716,-2.274188,0.\H,0,-4.005
 929,-2.791802,0.\H,0,-2.41021,-2.896391,0.\\Version=ES64L-G16RevA.03\S
 tate=1-A'\HF=-152.1088602\MP2=-152.6352628\MP3=-152.6426847\MP4D=-152.
 6517957\MP4DQ=-152.644217\MP4SDQ=-152.6473092\CCSD=-152.6467019\CCSD(T
 )=-152.6624083\RMSD=7.105e-09\PG=CS [SG(H4O2)]\\@


 WOE UNTO THEM THAT CALL EVIL GOOD, AND GOOD EVIL      
 Job cpu time:       0 days  0 hours  1 minutes 21.9 seconds.
 Elapsed time:       0 days  0 hours  0 minutes 20.9 seconds.
 File lengths (MBytes):  RWF=    348 Int=      0 D2E=      0 Chk=      8 Scr=      8
 Normal termination of Gaussian 16 at Sun Aug 28 06:20:05 2022.
