 Entering Gaussian System, Link 0=g16
 Input=H2O_H2O_2773.com
 Output=H2O_H2O_2773.log
 Initial command:
 /usr/site/hpc/x86_64/glibc-2.17/broadwell/gaussian/g16_a.03/pgi-16.5/g16/l1.exe "/gpfs/gpfs1/scratch/c7441284/ForceFieldModel/FittingData2/Gau-356716.inp" -scrdir="/gpfs/gpfs1/scratch/c7441284/ForceFieldModel/FittingData2/"
 Entering Link 1 = /usr/site/hpc/x86_64/glibc-2.17/broadwell/gaussian/g16_a.03/pgi-16.5/g16/l1.exe PID=    356717.
  
 Copyright (c) 1988,1990,1992,1993,1995,1998,2003,2009,2016,
            Gaussian, Inc.  All Rights Reserved.
  
 This is part of the Gaussian(R) 16 program.  It is based on
 the Gaussian(R) 09 system (copyright 2009, Gaussian, Inc.),
 the Gaussian(R) 03 system (copyright 2003, Gaussian, Inc.),
 the Gaussian(R) 98 system (copyright 1998, Gaussian, Inc.),
 the Gaussian(R) 94 system (copyright 1995, Gaussian, Inc.),
 the Gaussian 92(TM) system (copyright 1992, Gaussian, Inc.),
 the Gaussian 90(TM) system (copyright 1990, Gaussian, Inc.),
 the Gaussian 88(TM) system (copyright 1988, Gaussian, Inc.),
 the Gaussian 86(TM) system (copyright 1986, Carnegie Mellon
 University), and the Gaussian 82(TM) system (copyright 1983,
 Carnegie Mellon University). Gaussian is a federally registered
 trademark of Gaussian, Inc.
  
 This software contains proprietary and confidential information,
 including trade secrets, belonging to Gaussian, Inc.
  
 This software is provided under written license and may be
 used, copied, transmitted, or stored only in accord with that
 written license.
  
 The following legend is applicable only to US Government
 contracts under FAR:
  
                    RESTRICTED RIGHTS LEGEND
  
 Use, reproduction and disclosure by the US Government is
 subject to restrictions as set forth in subparagraphs (a)
 and (c) of the Commercial Computer Software - Restricted
 Rights clause in FAR 52.227-19.
  
 Gaussian, Inc.
 340 Quinnipiac St., Bldg. 40, Wallingford CT 06492
  
  
 ---------------------------------------------------------------
 Warning -- This program may not be used in any manner that
 competes with the business of Gaussian, Inc. or will provide
 assistance to any competitor of Gaussian, Inc.  The licensee
 of this program is prohibited from giving any competitor of
 Gaussian, Inc. access to this program.  By using this program,
 the user acknowledges that Gaussian, Inc. is engaged in the
 business of creating and licensing software in the field of
 computational chemistry and represents and warrants to the
 licensee that it is not a competitor of Gaussian, Inc. and that
 it will not use this program in any manner prohibited above.
 ---------------------------------------------------------------
  

 Cite this work as:
 Gaussian 16, Revision A.03,
 M. J. Frisch, G. W. Trucks, H. B. Schlegel, G. E. Scuseria, 
 M. A. Robb, J. R. Cheeseman, G. Scalmani, V. Barone, 
 G. A. Petersson, H. Nakatsuji, X. Li, M. Caricato, A. V. Marenich, 
 J. Bloino, B. G. Janesko, R. Gomperts, B. Mennucci, H. P. Hratchian, 
 J. V. Ortiz, A. F. Izmaylov, J. L. Sonnenberg, D. Williams-Young, 
 F. Ding, F. Lipparini, F. Egidi, J. Goings, B. Peng, A. Petrone, 
 T. Henderson, D. Ranasinghe, V. G. Zakrzewski, J. Gao, N. Rega, 
 G. Zheng, W. Liang, M. Hada, M. Ehara, K. Toyota, R. Fukuda, 
 J. Hasegawa, M. Ishida, T. Nakajima, Y. Honda, O. Kitao, H. Nakai, 
 T. Vreven, K. Throssell, J. A. Montgomery, Jr., J. E. Peralta, 
 F. Ogliaro, M. J. Bearpark, J. J. Heyd, E. N. Brothers, K. N. Kudin, 
 V. N. Staroverov, T. A. Keith, R. Kobayashi, J. Normand, 
 K. Raghavachari, A. P. Rendell, J. C. Burant, S. S. Iyengar, 
 J. Tomasi, M. Cossi, J. M. Millam, M. Klene, C. Adamo, R. Cammi, 
 J. W. Ochterski, R. L. Martin, K. Morokuma, O. Farkas, 
 J. B. Foresman, and D. J. Fox, Gaussian, Inc., Wallingford CT, 2016.
 
 ******************************************
 Gaussian 16:  ES64L-G16RevA.03 25-Dec-2016
                26-Aug-2022 
 ******************************************
 %NProcShared=4
 Will use up to    4 processors via shared memory.
 %Mem=4GB
 %Chk=H2O_H2O_2773.chk
 ------------------
 #p CCSD(T)/cc-pVTZ
 ------------------
 1/38=1,172=1/1;
 2/12=2,17=6,18=5,40=1/2;
 3/5=16,6=1,11=9,25=1,30=1/1,2,3;
 4//1;
 5/5=2,38=5/2;
 8/6=4,9=120000,10=1/1,4;
 9/5=7,14=2/13;
 6/7=2,8=2,9=2,10=2/1;
 99/5=1,9=1/99;
 Leave Link    1 at Fri Aug 26 17:12:40 2022, MaxMem=   536870912 cpu:               0.4 elap:               0.1
 (Enter /usr/site/hpc/x86_64/glibc-2.17/broadwell/gaussian/g16_a.03/pgi-16.5/g16/l101.exe)
 ------------
 H2O_H2O_2773
 ------------
 Symbolic Z-matrix:
 Charge =  0 Multiplicity = 1
 O                     0.       -0.00983   0. 
 H                    -0.79957  -0.58097   0. 
 H                     0.79957  -0.58097   0. 
 O                    -3.45578  -2.46209   0. 
 H                    -4.07798  -1.70158   0. 
 H                    -3.97339  -3.2973    0. 
 
 ITRead=  0  0  0  0  0  0
 MicOpt= -1 -1 -1 -1 -1 -1
 NAtoms=      6 NQM=        6 NQMF=       0 NMMI=      0 NMMIF=      0
                NMic=       0 NMicF=      0.
                    Isotopes and Nuclear Properties:
 (Nuclear quadrupole moments (NQMom) in fm**2, nuclear magnetic moments (NMagM)
  in nuclear magnetons)

  Atom         1           2           3           4           5           6
 IAtWgt=          16           1           1          16           1           1
 AtmWgt=  15.9949146   1.0078250   1.0078250  15.9949146   1.0078250   1.0078250
 NucSpn=           0           1           1           0           1           1
 AtZEff=  -0.0000000  -0.0000000  -0.0000000  -0.0000000  -0.0000000  -0.0000000
 NQMom=    0.0000000   0.0000000   0.0000000   0.0000000   0.0000000   0.0000000
 NMagM=    0.0000000   2.7928460   2.7928460   0.0000000   2.7928460   2.7928460
 AtZNuc=   8.0000000   1.0000000   1.0000000   8.0000000   1.0000000   1.0000000
 Leave Link  101 at Fri Aug 26 17:12:40 2022, MaxMem=   536870912 cpu:               0.3 elap:               0.1
 (Enter /usr/site/hpc/x86_64/glibc-2.17/broadwell/gaussian/g16_a.03/pgi-16.5/g16/l202.exe)
                          Input orientation:                          
 ---------------------------------------------------------------------
 Center     Atomic      Atomic             Coordinates (Angstroms)
 Number     Number       Type             X           Y           Z
 ---------------------------------------------------------------------
      1          8           0        0.000000   -0.009833    0.000000
      2          1           0       -0.799571   -0.580965    0.000000
      3          1           0        0.799571   -0.580965    0.000000
      4          8           0       -3.455776   -2.462087    0.000000
      5          1           0       -4.077979   -1.701581    0.000000
      6          1           0       -3.973391   -3.297300    0.000000
 ---------------------------------------------------------------------
                    Distance matrix (angstroms):
                    1          2          3          4          5
     1  O    0.000000
     2  H    0.982601   0.000000
     3  H    0.982601   1.599142   0.000000
     4  O    4.237445   3.254849   4.652590   0.000000
     5  H    4.414966   3.464641   5.004625   0.982602   0.000000
     6  H    5.157061   4.177512   5.491780   0.982602   1.599143
                    6
     6  H    0.000000
 Stoichiometry    H4O2
 Framework group  CS[SG(H4O2)]
 Deg. of freedom     9
 Full point group                 CS      NOp   2
 Largest Abelian subgroup         CS      NOp   2
 Largest concise Abelian subgroup C1      NOp   1
                         Standard orientation:                         
 ---------------------------------------------------------------------
 Center     Atomic      Atomic             Coordinates (Angstroms)
 Number     Number       Type             X           Y           Z
 ---------------------------------------------------------------------
      1          8           0       -0.016643    2.200414    0.000000
      2          1           0       -0.013586    1.217817    0.000000
      3          1           0        0.911854    2.521970    0.000000
      4          8           0       -0.016643   -2.037031    0.000000
      5          1           0       -0.996936   -2.104345    0.000000
      6          1           0        0.364952   -2.942509    0.000000
 ---------------------------------------------------------------------
 Rotational constants (GHZ):         264.0165118           3.0642158           3.0290601
 Leave Link  202 at Fri Aug 26 17:12:40 2022, MaxMem=   536870912 cpu:               0.1 elap:               0.0
 (Enter /usr/site/hpc/x86_64/glibc-2.17/broadwell/gaussian/g16_a.03/pgi-16.5/g16/l301.exe)
 Standard basis: CC-pVTZ (5D, 7F)
 Ernie: Thresh=  0.10000D-02 Tol=  0.10000D-05 Strict=F.
 Ernie:  6 primitive shells out of 84 were deleted.
 There are    92 symmetry adapted cartesian basis functions of A'  symmetry.
 There are    38 symmetry adapted cartesian basis functions of A"  symmetry.
 There are    80 symmetry adapted basis functions of A'  symmetry.
 There are    36 symmetry adapted basis functions of A"  symmetry.
   116 basis functions,   172 primitive gaussians,   130 cartesian basis functions
    10 alpha electrons       10 beta electrons
       nuclear repulsion energy        30.3595670450 Hartrees.
 IExCor=    0 DFT=F Ex=HF Corr=None ExCW=0 ScaHFX=  1.000000
 ScaDFX=  1.000000  1.000000  1.000000  1.000000 ScalE2=  1.000000  1.000000
 IRadAn=      5 IRanWt=     -1 IRanGd=            0 ICorTp=0 IEmpDi=  4
 NAtoms=    6 NActive=    6 NUniq=    6 SFac= 1.00D+00 NAtFMM=   60 NAOKFM=F Big=F
 Integral buffers will be    131072 words long.
 Raffenetti 1 integral format.
 Two-electron integral symmetry is turned on.
 Leave Link  301 at Fri Aug 26 17:12:40 2022, MaxMem=   536870912 cpu:               0.2 elap:               0.1
 (Enter /usr/site/hpc/x86_64/glibc-2.17/broadwell/gaussian/g16_a.03/pgi-16.5/g16/l302.exe)
 NPDir=0 NMtPBC=     1 NCelOv=     1 NCel=       1 NClECP=     1 NCelD=      1
         NCelK=      1 NCelE2=     1 NClLst=     1 CellRange=     0.0.
 One-electron integrals computed using PRISM.
 One-electron integral symmetry used in STVInt
 NBasis=   116 RedAO= T EigKep=  2.53D-03  NBF=    80    36
 NBsUse=   116 1.00D-06 EigRej= -1.00D+00 NBFU=    80    36
 Leave Link  302 at Fri Aug 26 17:12:40 2022, MaxMem=   536870912 cpu:               0.5 elap:               0.2
 (Enter /usr/site/hpc/x86_64/glibc-2.17/broadwell/gaussian/g16_a.03/pgi-16.5/g16/l303.exe)
 DipDrv:  MaxL=1.
 Leave Link  303 at Fri Aug 26 17:12:40 2022, MaxMem=   536870912 cpu:               0.3 elap:               0.1
 (Enter /usr/site/hpc/x86_64/glibc-2.17/broadwell/gaussian/g16_a.03/pgi-16.5/g16/l401.exe)
 ExpMin= 1.03D-01 ExpMax= 1.53D+04 ExpMxC= 5.22D+02 IAcc=3 IRadAn=         5 AccDes= 0.00D+00
 Harris functional with IExCor=  205 and IRadAn=       5 diagonalized for initial guess.
 HarFok:  IExCor=  205 AccDes= 0.00D+00 IRadAn=         5 IDoV= 1 UseB2=F ITyADJ=14
 ICtDFT=  3500011 ScaDFX=  1.000000  1.000000  1.000000  1.000000
 FoFCou: FMM=F IPFlag=           0 FMFlag=      100000 FMFlg1=           0
         NFxFlg=           0 DoJE=T BraDBF=F KetDBF=T FulRan=T
         wScrn=  0.000000 ICntrl=       500 IOpCl=  0 I1Cent=   200000004 NGrid=           0
         NMat0=    1 NMatS0=      1 NMatT0=    0 NMatD0=    1 NMtDS0=    0 NMtDT0=    0
 Petite list used in FoFCou.
 Harris En= -152.298934173894    
 JPrj=0 DoOrth=F DoCkMO=F.
 Initial guess orbital symmetries:
       Occupied  (A') (A') (A') (A') (A') (A') (A') (A') (A") (A")
       Virtual   (A') (A') (A') (A') (A') (A') (A') (A') (A') (A')
                 (A") (A") (A') (A') (A') (A") (A") (A') (A") (A")
                 (A') (A') (A') (A') (A') (A') (A') (A') (A") (A")
                 (A") (A") (A') (A') (A') (A') (A') (A') (A') (A')
                 (A') (A') (A") (A") (A') (A') (A") (A") (A") (A")
                 (A') (A') (A') (A') (A') (A') (A") (A") (A') (A')
                 (A') (A') (A") (A") (A") (A") (A') (A') (A') (A')
                 (A") (A") (A') (A') (A') (A') (A') (A') (A') (A')
                 (A") (A") (A') (A') (A") (A") (A") (A") (A') (A')
                 (A") (A") (A') (A') (A') (A') (A") (A") (A') (A')
                 (A') (A') (A') (A') (A') (A')
 The electronic state of the initial guess is 1-A'.
 Leave Link  401 at Fri Aug 26 17:12:41 2022, MaxMem=   536870912 cpu:               0.8 elap:               0.3
 (Enter /usr/site/hpc/x86_64/glibc-2.17/broadwell/gaussian/g16_a.03/pgi-16.5/g16/l502.exe)
 Keep R1 ints in memory in symmetry-blocked form, NReq=34823457.
 FoFCou: FMM=F IPFlag=           0 FMFlag=           0 FMFlg1=           0
         NFxFlg=           0 DoJE=F BraDBF=F KetDBF=F FulRan=T
         wScrn=  0.000000 ICntrl=       600 IOpCl=  0 I1Cent=           0 NGrid=           0
         NMat0=    1 NMatS0=   6786 NMatT0=    0 NMatD0=    1 NMtDS0=    0 NMtDT0=    0
 Petite list used in FoFCou.
 Closed shell SCF:
 Using DIIS extrapolation, IDIIS=  1040.
 NGot=   536870912 LenX=   525040673 LenY=   525023332
 Requested convergence on RMS density matrix=1.00D-08 within 128 cycles.
 Requested convergence on MAX density matrix=1.00D-06.
 Requested convergence on             energy=1.00D-06.
 No special actions if energy rises.

 Cycle   1  Pass 1  IDiag  1:
 E= -151.932758344676    
 DIIS: error= 6.59D-02 at cycle   1 NSaved=   1.
 NSaved= 1 IEnMin= 1 EnMin= -151.932758344676     IErMin= 1 ErrMin= 6.59D-02
 ErrMax= 6.59D-02  0.00D+00 EMaxC= 1.00D-01 BMatC= 3.97D-01 BMatP= 3.97D-01
 IDIUse=3 WtCom= 3.41D-01 WtEn= 6.59D-01
 Coeff-Com:  0.100D+01
 Coeff-En:   0.100D+01
 Coeff:      0.100D+01
 Gap=     0.504 Goal=   None    Shift=    0.000
 GapD=    0.504 DampG=2.000 DampE=0.500 DampFc=1.0000 IDamp=-1.
 RMSDP=2.51D-03 MaxDP=6.76D-02              OVMax= 1.25D-01

 Cycle   2  Pass 1  IDiag  1:
 E= -152.043111199509     Delta-E=       -0.110352854833 Rises=F Damp=F
 DIIS: error= 4.12D-02 at cycle   2 NSaved=   2.
 NSaved= 2 IEnMin= 2 EnMin= -152.043111199509     IErMin= 2 ErrMin= 4.12D-02
 ErrMax= 4.12D-02  0.00D+00 EMaxC= 1.00D-01 BMatC= 1.11D-01 BMatP= 3.97D-01
 IDIUse=3 WtCom= 5.88D-01 WtEn= 4.12D-01
 Coeff-Com:  0.318D+00 0.682D+00
 Coeff-En:   0.164D+00 0.836D+00
 Coeff:      0.254D+00 0.746D+00
 Gap=     0.637 Goal=   None    Shift=    0.000
 RMSDP=1.33D-03 MaxDP=3.97D-02 DE=-1.10D-01 OVMax= 5.67D-02

 Cycle   3  Pass 1  IDiag  1:
 E= -152.106445449597     Delta-E=       -0.063334250087 Rises=F Damp=F
 DIIS: error= 8.99D-03 at cycle   3 NSaved=   3.
 NSaved= 3 IEnMin= 3 EnMin= -152.106445449597     IErMin= 3 ErrMin= 8.99D-03
 ErrMax= 8.99D-03  0.00D+00 EMaxC= 1.00D-01 BMatC= 5.93D-03 BMatP= 1.11D-01
 IDIUse=3 WtCom= 9.10D-01 WtEn= 8.99D-02
 Coeff-Com: -0.302D-01 0.157D+00 0.874D+00
 Coeff-En:   0.000D+00 0.000D+00 0.100D+01
 Coeff:     -0.275D-01 0.143D+00 0.885D+00
 Gap=     0.609 Goal=   None    Shift=    0.000
 RMSDP=2.44D-04 MaxDP=5.77D-03 DE=-6.33D-02 OVMax= 1.33D-02

 Cycle   4  Pass 1  IDiag  1:
 E= -152.110122699371     Delta-E=       -0.003677249774 Rises=F Damp=F
 DIIS: error= 8.38D-04 at cycle   4 NSaved=   4.
 NSaved= 4 IEnMin= 4 EnMin= -152.110122699371     IErMin= 4 ErrMin= 8.38D-04
 ErrMax= 8.38D-04  0.00D+00 EMaxC= 1.00D-01 BMatC= 3.60D-05 BMatP= 5.93D-03
 IDIUse=3 WtCom= 9.92D-01 WtEn= 8.38D-03
 Coeff-Com:  0.675D-02-0.610D-01-0.237D+00 0.129D+01
 Coeff-En:   0.000D+00 0.000D+00 0.000D+00 0.100D+01
 Coeff:      0.669D-02-0.605D-01-0.235D+00 0.129D+01
 Gap=     0.611 Goal=   None    Shift=    0.000
 RMSDP=5.20D-05 MaxDP=1.04D-03 DE=-3.68D-03 OVMax= 2.24D-03

 Cycle   5  Pass 1  IDiag  1:
 E= -152.110171069612     Delta-E=       -0.000048370242 Rises=F Damp=F
 DIIS: error= 1.90D-04 at cycle   5 NSaved=   5.
 NSaved= 5 IEnMin= 5 EnMin= -152.110171069612     IErMin= 5 ErrMin= 1.90D-04
 ErrMax= 1.90D-04  0.00D+00 EMaxC= 1.00D-01 BMatC= 1.36D-06 BMatP= 3.60D-05
 IDIUse=3 WtCom= 9.98D-01 WtEn= 1.90D-03
 Coeff-Com:  0.647D-03-0.556D-03-0.703D-02-0.202D+00 0.121D+01
 Coeff-En:   0.000D+00 0.000D+00 0.000D+00 0.000D+00 0.100D+01
 Coeff:      0.646D-03-0.555D-03-0.702D-02-0.202D+00 0.121D+01
 Gap=     0.612 Goal=   None    Shift=    0.000
 RMSDP=1.45D-05 MaxDP=3.18D-04 DE=-4.84D-05 OVMax= 7.03D-04

 Cycle   6  Pass 1  IDiag  1:
 E= -152.110173835416     Delta-E=       -0.000002765804 Rises=F Damp=F
 DIIS: error= 2.95D-05 at cycle   6 NSaved=   6.
 NSaved= 6 IEnMin= 6 EnMin= -152.110173835416     IErMin= 6 ErrMin= 2.95D-05
 ErrMax= 2.95D-05  0.00D+00 EMaxC= 1.00D-01 BMatC= 6.69D-08 BMatP= 1.36D-06
 IDIUse=1 WtCom= 1.00D+00 WtEn= 0.00D+00
 Coeff-Com: -0.124D-03 0.193D-02 0.679D-02-0.745D-01 0.146D+00 0.920D+00
 Coeff:     -0.124D-03 0.193D-02 0.679D-02-0.745D-01 0.146D+00 0.920D+00
 Gap=     0.612 Goal=   None    Shift=    0.000
 RMSDP=2.58D-06 MaxDP=7.25D-05 DE=-2.77D-06 OVMax= 1.43D-04

 Cycle   7  Pass 1  IDiag  1:
 E= -152.110173941370     Delta-E=       -0.000000105953 Rises=F Damp=F
 DIIS: error= 9.85D-06 at cycle   7 NSaved=   7.
 NSaved= 7 IEnMin= 7 EnMin= -152.110173941370     IErMin= 7 ErrMin= 9.85D-06
 ErrMax= 9.85D-06  0.00D+00 EMaxC= 1.00D-01 BMatC= 1.02D-08 BMatP= 6.69D-08
 IDIUse=1 WtCom= 1.00D+00 WtEn= 0.00D+00
 Coeff-Com: -0.103D-03 0.375D-03 0.179D-02 0.152D-01-0.147D+00 0.181D+00
 Coeff-Com:  0.948D+00
 Coeff:     -0.103D-03 0.375D-03 0.179D-02 0.152D-01-0.147D+00 0.181D+00
 Coeff:      0.948D+00
 Gap=     0.612 Goal=   None    Shift=    0.000
 RMSDP=1.01D-06 MaxDP=2.79D-05 DE=-1.06D-07 OVMax= 6.15D-05

 Cycle   8  Pass 1  IDiag  1:
 E= -152.110173956432     Delta-E=       -0.000000015062 Rises=F Damp=F
 DIIS: error= 2.46D-06 at cycle   8 NSaved=   8.
 NSaved= 8 IEnMin= 8 EnMin= -152.110173956432     IErMin= 8 ErrMin= 2.46D-06
 ErrMax= 2.46D-06  0.00D+00 EMaxC= 1.00D-01 BMatC= 4.18D-10 BMatP= 1.02D-08
 IDIUse=1 WtCom= 1.00D+00 WtEn= 0.00D+00
 Coeff-Com:  0.257D-04-0.213D-03-0.860D-03 0.376D-02 0.129D-01-0.886D-01
 Coeff-Com: -0.145D+00 0.122D+01
 Coeff:      0.257D-04-0.213D-03-0.860D-03 0.376D-02 0.129D-01-0.886D-01
 Coeff:     -0.145D+00 0.122D+01
 Gap=     0.612 Goal=   None    Shift=    0.000
 RMSDP=2.06D-07 MaxDP=3.75D-06 DE=-1.51D-08 OVMax= 1.43D-05

 Cycle   9  Pass 1  IDiag  1:
 E= -152.110173957345     Delta-E=       -0.000000000913 Rises=F Damp=F
 DIIS: error= 8.63D-07 at cycle   9 NSaved=   9.
 NSaved= 9 IEnMin= 9 EnMin= -152.110173957345     IErMin= 9 ErrMin= 8.63D-07
 ErrMax= 8.63D-07  0.00D+00 EMaxC= 1.00D-01 BMatC= 2.39D-11 BMatP= 4.18D-10
 IDIUse=1 WtCom= 1.00D+00 WtEn= 0.00D+00
 Coeff-Com:  0.777D-06 0.301D-04 0.123D-03-0.241D-02 0.823D-02 0.936D-02
 Coeff-Com: -0.322D-01-0.279D+00 0.130D+01
 Coeff:      0.777D-06 0.301D-04 0.123D-03-0.241D-02 0.823D-02 0.936D-02
 Coeff:     -0.322D-01-0.279D+00 0.130D+01
 Gap=     0.612 Goal=   None    Shift=    0.000
 RMSDP=5.59D-08 MaxDP=9.67D-07 DE=-9.13D-10 OVMax= 2.96D-06

 Cycle  10  Pass 1  IDiag  1:
 E= -152.110173957396     Delta-E=       -0.000000000052 Rises=F Damp=F
 DIIS: error= 9.31D-08 at cycle  10 NSaved=  10.
 NSaved=10 IEnMin=10 EnMin= -152.110173957396     IErMin=10 ErrMin= 9.31D-08
 ErrMax= 9.31D-08  0.00D+00 EMaxC= 1.00D-01 BMatC= 3.85D-13 BMatP= 2.39D-11
 IDIUse=1 WtCom= 1.00D+00 WtEn= 0.00D+00
 Coeff-Com: -0.566D-06-0.383D-05-0.178D-04 0.511D-03-0.188D-02-0.169D-02
 Coeff-Com:  0.862D-02 0.647D-01-0.382D+00 0.131D+01
 Coeff:     -0.566D-06-0.383D-05-0.178D-04 0.511D-03-0.188D-02-0.169D-02
 Coeff:      0.862D-02 0.647D-01-0.382D+00 0.131D+01
 Gap=     0.612 Goal=   None    Shift=    0.000
 RMSDP=6.76D-09 MaxDP=1.83D-07 DE=-5.17D-11 OVMax= 3.79D-07

 SCF Done:  E(RHF) =  -152.110173957     A.U. after   10 cycles
            NFock= 10  Conv=0.68D-08     -V/T= 2.0021
 KE= 1.517981832185D+02 PE=-4.221205970869D+02 EE= 8.785267286594D+01
 Leave Link  502 at Fri Aug 26 17:12:42 2022, MaxMem=   536870912 cpu:               3.8 elap:               1.0
 (Enter /usr/site/hpc/x86_64/glibc-2.17/broadwell/gaussian/g16_a.03/pgi-16.5/g16/l801.exe)
 Windowed orbitals will be sorted by symmetry type.
 ExpMin= 1.03D-01 ExpMax= 1.53D+04 ExpMxC= 5.22D+02 IAcc=3 IRadAn=         5 AccDes= 0.00D+00
 HarFok:  IExCor=  205 AccDes= 0.00D+00 IRadAn=         5 IDoV=-2 UseB2=F ITyADJ=14
 ICtDFT= 12500011 ScaDFX=  1.000000  1.000000  1.000000  1.000000
 Largest valence mixing into a core orbital is  1.12D-04
 Largest core mixing into a valence orbital is  1.77D-05
 Range of M.O.s used for correlation:     3   116
 NBasis=   116 NAE=    10 NBE=    10 NFC=     2 NFV=     0
 NROrb=    114 NOA=     8 NOB=     8 NVA=   106 NVB=   106
 Leave Link  801 at Fri Aug 26 17:12:42 2022, MaxMem=   536870912 cpu:               0.3 elap:               0.1
 (Enter /usr/site/hpc/x86_64/glibc-2.17/broadwell/gaussian/g16_a.03/pgi-16.5/g16/l804.exe)
 Closed-shell transformation, MDV=   536870912 ITran=4 ISComp=2.
 Unit  1 TFree=        834515 TCopy=        406125.
 Semi-Direct transformation.
 ModeAB=           4 MOrb=             8 LenV=     536370388
 LASXX=      2873146 LTotXX=     2873146 LenRXX=     5831278
 LTotAB=     2958132 MaxLAS=     6625680 LenRXY=           0
 NonZer=     8704424 LenScr=    13107200 LnRSAI=     6625680
 LnScr1=     9961472 LExtra=           0 Total=     35525630
 MaxDsk=          -1 SrtSym=           T ITran=            4
 DoSDTr:  NPSUse=  4
 JobTyp=0 Pass  1:  I=   1 to   8.
 (rs|ai) integrals will be sorted in core.
 Complete sort for first half transformation.
 First half transformation complete.
 Complete sort for second half transformation.
 Second half transformation complete.
 Spin components of T(2) and E(2):
     alpha-alpha T2 =       0.1557393915D-01 E2=     -0.6385686868D-01
     alpha-beta  T2 =       0.9185015343D-01 E2=     -0.3982657810D+00
     beta-beta   T2 =       0.1557393915D-01 E2=     -0.6385686868D-01
 ANorm=    0.1059716015D+01
 E2 =    -0.5259795183D+00 EUMP2 =    -0.15263615347573D+03
 Leave Link  804 at Fri Aug 26 17:12:43 2022, MaxMem=   536870912 cpu:               3.8 elap:               1.0
 (Enter /usr/site/hpc/x86_64/glibc-2.17/broadwell/gaussian/g16_a.03/pgi-16.5/g16/l913.exe)
 CIDS:  MDV=   536870912.
 Frozen-core window:  NFC=   2 NFV=   0.
 IFCWin=0 IBDFC=1 NFBD=     0     0 NFCmp=     0     0 NFFFC=     0     0
 Using DD3R+UMP44R for 1st iteration.
 Using DD4RQ for 2nd and later iterations.
 Keep R2 and R3 ints in memory in symmetry-blocked form, NReq=35357534.
 FoFCou: FMM=F IPFlag=           0 FMFlag=           0 FMFlg1=           0
         NFxFlg=           0 DoJE=F BraDBF=F KetDBF=F FulRan=T
         wScrn=  0.000000 ICntrl=       600 IOpCl=  0 I1Cent=           0 NGrid=           0
         NMat0=    1 NMatS0=   6786 NMatT0=    0 NMatD0=    1 NMtDS0=    0 NMtDT0=    0
 Petite list used in FoFCou.
 CIDS: In Core Option IDoMem=           1.
 CCSD(T)
 =======
 Iterations=  50 Convergence= 0.100D-06
 Produce multiple copies of IABC intergrals
 Iteration Nr.   1
 **********************
 DD1Dir will call FoFMem   1 times, MxPair=        72
 NAB=    36 NAA=     0 NBB=     0.
 MP4(R+Q)=  0.75451811D-02
 Maximum subspace dimension=  5
 A-vector RMS=  1.7486845D-03 Max=  6.1296753D-03 conv= 1.00D-05.
 RLE energy=       -0.5258531140
 E3=       -0.74889350D-02        EUMP3=      -0.15264364241D+03
 E4(DQ)=   -0.15427982D-02        UMP4(DQ)=   -0.15264518521D+03
 E4(SDQ)=  -0.45989733D-02        UMP4(SDQ)=  -0.15264824138D+03
 VARIATIONAL ENERGIES WITH THE FIRST-ORDER WAVEFUNCTION:
 DE(Corr)= -0.52585309     E(Corr)=     -152.63602705    
 NORM(A)=   0.10600575D+01
 Iteration Nr.   2
 **********************
 DD1Dir will call FoFMem   1 times, MxPair=        72
 NAB=    36 NAA=     0 NBB=     0.
 A-vector RMS=  2.1292278D-04 Max=  2.2783358D-03 conv= 1.00D-05.
 RLE energy=       -0.5368918350
 DE(Corr)= -0.53574083     E(CORR)=     -152.64591479     Delta=-9.89D-03
 NORM(A)=   0.10637940D+01
 Iteration Nr.   3
 **********************
 DD1Dir will call FoFMem   1 times, MxPair=        72
 NAB=    36 NAA=     0 NBB=     0.
 A-vector RMS=  1.4249969D-04 Max=  6.8587884D-04 conv= 1.00D-05.
 RLE energy=       -0.5373869419
 DE(Corr)= -0.53680244     E(CORR)=     -152.64697640     Delta=-1.06D-03
 NORM(A)=   0.10644277D+01
 Iteration Nr.   4
 **********************
 DD1Dir will call FoFMem   1 times, MxPair=        72
 NAB=    36 NAA=     0 NBB=     0.
 A-vector RMS=  2.7599263D-05 Max=  1.4169487D-04 conv= 1.00D-05.
 RLE energy=       -0.5374687491
 DE(Corr)= -0.53743406     E(CORR)=     -152.64760802     Delta=-6.32D-04
 NORM(A)=   0.10645372D+01
 Iteration Nr.   5
 **********************
 DD1Dir will call FoFMem   1 times, MxPair=        72
 NAB=    36 NAA=     0 NBB=     0.
 A-vector RMS=  1.8537209D-05 Max=  1.2324780D-04 conv= 1.00D-05.
 RLE energy=       -0.5374780029
 DE(Corr)= -0.53747114     E(CORR)=     -152.64764510     Delta=-3.71D-05
 NORM(A)=   0.10645470D+01
 Iteration Nr.   6
 **********************
 DD1Dir will call FoFMem   1 times, MxPair=        72
 NAB=    36 NAA=     0 NBB=     0.
 A-vector RMS=  5.7455851D-06 Max=  4.5253203D-05 conv= 1.00D-05.
 RLE energy=       -0.5374693618
 DE(Corr)= -0.53747441     E(CORR)=     -152.64764837     Delta=-3.27D-06
 NORM(A)=   0.10645468D+01
 Iteration Nr.   7
 **********************
 DD1Dir will call FoFMem   1 times, MxPair=        72
 NAB=    36 NAA=     0 NBB=     0.
 A-vector RMS=  2.6512518D-06 Max=  1.9801924D-05 conv= 1.00D-05.
 RLE energy=       -0.5374748085
 DE(Corr)= -0.53747459     E(CORR)=     -152.64764855     Delta=-1.75D-07
 NORM(A)=   0.10645488D+01
 Iteration Nr.   8
 **********************
 DD1Dir will call FoFMem   1 times, MxPair=        72
 NAB=    36 NAA=     0 NBB=     0.
 A-vector RMS=  8.4767835D-07 Max=  7.7249697D-06 conv= 1.00D-05.
 RLE energy=       -0.5374739573
 DE(Corr)= -0.53747415     E(CORR)=     -152.64764810     Delta= 4.43D-07
 NORM(A)=   0.10645489D+01
 Iteration Nr.   9
 **********************
 DD1Dir will call FoFMem   1 times, MxPair=        72
 NAB=    36 NAA=     0 NBB=     0.
 A-vector RMS=  1.6878174D-07 Max=  1.6322452D-06 conv= 1.00D-05.
 RLE energy=       -0.5374742393
 DE(Corr)= -0.53747431     E(CORR)=     -152.64764826     Delta=-1.60D-07
 NORM(A)=   0.10645492D+01
 Iteration Nr.  10
 **********************
 DD1Dir will call FoFMem   1 times, MxPair=        72
 NAB=    36 NAA=     0 NBB=     0.
 A-vector RMS=  6.8744421D-08 Max=  7.0144680D-07 conv= 1.00D-05.
 RLE energy=       -0.5374744109
 DE(Corr)= -0.53747439     E(CORR)=     -152.64764835     Delta=-8.45D-08
 NORM(A)=   0.10645494D+01
 CI/CC converged in   10 iterations to DelEn=-8.45D-08 Conv= 1.00D-07 ErrA1= 6.87D-08 Conv= 1.00D-05
 Wavefunction amplitudes converged. E(Corr)=     -152.64764835    
 Largest amplitude= 4.73D-02
 IPart=  3 IA=    7   11.05% done.
 IPart=  3 IA=   13   21.46% done.
 IPart=  1 IA=   19   31.21% done.
 IPart=  1 IA=   25   40.32% done.
 IPart=  4 IA=   32   50.13% done.
 IPart=  4 IA=   40   60.27% done.
 IPart=  3 IA=   49   70.30% done.
 IPart=  3 IA=   60   80.58% done.
 IPart=  2 IA=   74   90.51% done.
 Time for triples=       58.53 seconds.
 T4(CCSD)= -0.16041100D-01
 T5(CCSD)=  0.40311481D-03
 CCSD(T)= -0.15266328633D+03
 Discarding MO integrals.
 Leave Link  913 at Fri Aug 26 17:13:05 2022, MaxMem=   536870912 cpu:              87.5 elap:              22.0
 (Enter /usr/site/hpc/x86_64/glibc-2.17/broadwell/gaussian/g16_a.03/pgi-16.5/g16/l601.exe)
 Copying SCF densities to generalized density rwf, IOpCl= 0 IROHF=0.

 **********************************************************************

            Population analysis using the SCF density.

 **********************************************************************

 Orbital symmetries:
       Occupied  (A') (A') (A') (A') (A') (A') (A') (A') (A") (A")
       Virtual   (A') (A') (A') (A') (A') (A') (A') (A') (A') (A')
                 (A") (A') (A") (A') (A') (A") (A") (A') (A") (A")
                 (A') (A') (A') (A') (A') (A') (A') (A') (A") (A")
                 (A") (A") (A') (A') (A') (A') (A') (A') (A') (A')
                 (A') (A') (A") (A") (A') (A') (A") (A") (A') (A')
                 (A") (A") (A') (A') (A') (A') (A") (A") (A") (A")
                 (A') (A') (A') (A') (A") (A") (A') (A') (A') (A')
                 (A") (A") (A') (A') (A') (A') (A') (A') (A') (A')
                 (A") (A") (A') (A') (A") (A") (A") (A") (A') (A')
                 (A") (A") (A') (A') (A') (A') (A") (A") (A') (A')
                 (A') (A') (A') (A') (A') (A')
 The electronic state is 1-A'.
 Alpha  occ. eigenvalues --  -20.56740 -20.54520  -1.34023  -1.31842  -0.71432
 Alpha  occ. eigenvalues --   -0.69250  -0.57578  -0.55334  -0.51152  -0.48983
 Alpha virt. eigenvalues --    0.12241   0.16111   0.19263   0.23613   0.53847
 Alpha virt. eigenvalues --    0.55580   0.56325   0.58417   0.68659   0.69638
 Alpha virt. eigenvalues --    0.77681   0.79011   0.79861   0.80578   0.83312
 Alpha virt. eigenvalues --    0.83832   0.85925   0.87697   0.96015   0.98494
 Alpha virt. eigenvalues --    1.13716   1.15391   1.17878   1.19398   1.50307
 Alpha virt. eigenvalues --    1.51030   1.53357   1.54516   1.99414   2.01671
 Alpha virt. eigenvalues --    2.05545   2.07726   2.08903   2.12071   2.14253
 Alpha virt. eigenvalues --    2.15928   2.25877   2.27985   2.60373   2.63143
 Alpha virt. eigenvalues --    2.91735   2.96042   3.38254   3.40410   3.48825
 Alpha virt. eigenvalues --    3.50972   3.52041   3.54192   3.58447   3.60681
 Alpha virt. eigenvalues --    3.77484   3.79673   3.84212   3.86075   3.87048
 Alpha virt. eigenvalues --    3.88856   3.92484   3.94590   4.01881   4.04223
 Alpha virt. eigenvalues --    4.06610   4.10341   4.14215   4.17150   4.28985
 Alpha virt. eigenvalues --    4.31181   4.39062   4.41413   4.44539   4.46975
 Alpha virt. eigenvalues --    4.65366   4.67523   4.80353   4.82671   5.03208
 Alpha virt. eigenvalues --    5.05719   5.22965   5.25281   5.52915   5.56065
 Alpha virt. eigenvalues --    5.96685   5.98890   6.39205   6.41597   6.84954
 Alpha virt. eigenvalues --    6.87151   6.88460   6.90644   6.93461   6.96211
 Alpha virt. eigenvalues --    6.97858   7.00078   7.07208   7.08862   7.12440
 Alpha virt. eigenvalues --    7.14448   7.17030   7.19240   7.45985   7.48864
 Alpha virt. eigenvalues --    7.69661   7.71616   8.14003   8.17448  12.46047
 Alpha virt. eigenvalues --   12.59733
          Condensed to atoms (all electrons):
               1          2          3          4          5          6
     1  O    7.827291   0.347947   0.346752  -0.000157   0.000030   0.000009
     2  H    0.347947   0.422612  -0.037796   0.003934  -0.000379  -0.000135
     3  H    0.346752  -0.037796   0.436637  -0.000094   0.000009   0.000005
     4  O   -0.000157   0.003934  -0.000094   7.831620   0.339059   0.339598
     5  H    0.000030  -0.000379   0.000009   0.339059   0.434717  -0.032386
     6  H    0.000009  -0.000135   0.000005   0.339598  -0.032386   0.434329
 Mulliken charges:
               1
     1  O   -0.521872
     2  H    0.263817
     3  H    0.254487
     4  O   -0.513962
     5  H    0.258950
     6  H    0.258580
 Sum of Mulliken charges =  -0.00000
 Mulliken charges with hydrogens summed into heavy atoms:
               1
     1  O   -0.003568
     4  O    0.003568
 Electronic spatial extent (au):  <R**2>=            362.5422
 Charge=             -0.0000 electrons
 Dipole moment (field-independent basis, Debye):
    X=              0.5715    Y=             -2.9587    Z=              0.0000  Tot=              3.0133
 Quadrupole moment (field-independent basis, Debye-Ang):
   XX=             -9.5432   YY=             -7.9102   ZZ=            -14.7205
   XY=              5.7736   XZ=              0.0000   YZ=              0.0000
 Traceless Quadrupole moment (field-independent basis, Debye-Ang):
   XX=              1.1814   YY=              2.8144   ZZ=             -3.9958
   XY=              5.7736   XZ=              0.0000   YZ=              0.0000
 Octapole moment (field-independent basis, Debye-Ang**2):
  XXX=             -0.2513  YYY=            -38.1171  ZZZ=              0.0000  XYY=             11.5544
  XXY=             -1.5822  XXZ=              0.0000  XZZ=              0.0757  YZZ=             -0.4286
  YYZ=              0.0000  XYZ=              0.0000
 Hexadecapole moment (field-independent basis, Debye-Ang**3):
 XXXX=            -10.4913 YYYY=           -271.2117 ZZZZ=            -11.3555 XXXY=              3.6357
 XXXZ=              0.0000 YYYX=             20.4710 YYYZ=              0.0000 ZZZX=              0.0000
 ZZZY=              0.0000 XXYY=            -43.8820 XXZZ=             -4.4152 YYZZ=            -71.0962
 XXYZ=              0.0000 YYXZ=              0.0000 ZZXY=             -1.6463
 N-N= 3.035956704502D+01 E-N=-4.221205959813D+02  KE= 1.517981832185D+02
 Symmetry A'   KE= 1.427633975696D+02
 Symmetry A"   KE= 9.034785648856D+00
 Leave Link  601 at Fri Aug 26 17:13:05 2022, MaxMem=   536870912 cpu:               0.1 elap:               0.1
 (Enter /usr/site/hpc/x86_64/glibc-2.17/broadwell/gaussian/g16_a.03/pgi-16.5/g16/l9999.exe)
 1\1\GINC-N004\SP\RCCSD(T)-FC\CC-pVTZ\H4O2\C7441284\26-Aug-2022\0\\#p C
 CSD(T)/cc-pVTZ\\H2O_H2O_2773\\0,1\O,0,0.,-0.009833,0.\H,0,-0.799571,-0
 .580965,0.\H,0,0.799571,-0.580965,0.\O,0,-3.455776,-2.462087,0.\H,0,-4
 .077979,-1.701581,0.\H,0,-3.973391,-3.2973,0.\\Version=ES64L-G16RevA.0
 3\State=1-A'\HF=-152.110174\MP2=-152.6361535\MP3=-152.6436424\MP4D=-15
 2.6527304\MP4DQ=-152.6451852\MP4SDQ=-152.6482414\CCSD=-152.6476483\CCS
 D(T)=-152.6632863\RMSD=6.759e-09\PG=CS [SG(H4O2)]\\@


 NEVER TEACH A PIG TO SING.
 IT WASTES YOUR TIME AND ANNOYS THE PIG.
     -- SEEN ON A GREETING CARD
 Job cpu time:       0 days  0 hours  1 minutes 38.4 seconds.
 Elapsed time:       0 days  0 hours  0 minutes 25.1 seconds.
 File lengths (MBytes):  RWF=    340 Int=      0 D2E=      0 Chk=      8 Scr=      8
 Normal termination of Gaussian 16 at Fri Aug 26 17:13:05 2022.
