 Entering Gaussian System, Link 0=g16
 Input=H2O_H2O_1919.com
 Output=H2O_H2O_1919.log
 Initial command:
 /usr/site/hpc/x86_64/glibc-2.17/broadwell/gaussian/g16_a.03/pgi-16.5/g16/l1.exe "/gpfs/gpfs1/scratch/c7441284/ForceFieldModel/FittingData2/Gau-945139.inp" -scrdir="/gpfs/gpfs1/scratch/c7441284/ForceFieldModel/FittingData2/"
 Entering Link 1 = /usr/site/hpc/x86_64/glibc-2.17/broadwell/gaussian/g16_a.03/pgi-16.5/g16/l1.exe PID=    945140.
  
 Copyright (c) 1988,1990,1992,1993,1995,1998,2003,2009,2016,
            Gaussian, Inc.  All Rights Reserved.
  
 This is part of the Gaussian(R) 16 program.  It is based on
 the Gaussian(R) 09 system (copyright 2009, Gaussian, Inc.),
 the Gaussian(R) 03 system (copyright 2003, Gaussian, Inc.),
 the Gaussian(R) 98 system (copyright 1998, Gaussian, Inc.),
 the Gaussian(R) 94 system (copyright 1995, Gaussian, Inc.),
 the Gaussian 92(TM) system (copyright 1992, Gaussian, Inc.),
 the Gaussian 90(TM) system (copyright 1990, Gaussian, Inc.),
 the Gaussian 88(TM) system (copyright 1988, Gaussian, Inc.),
 the Gaussian 86(TM) system (copyright 1986, Carnegie Mellon
 University), and the Gaussian 82(TM) system (copyright 1983,
 Carnegie Mellon University). Gaussian is a federally registered
 trademark of Gaussian, Inc.
  
 This software contains proprietary and confidential information,
 including trade secrets, belonging to Gaussian, Inc.
  
 This software is provided under written license and may be
 used, copied, transmitted, or stored only in accord with that
 written license.
  
 The following legend is applicable only to US Government
 contracts under FAR:
  
                    RESTRICTED RIGHTS LEGEND
  
 Use, reproduction and disclosure by the US Government is
 subject to restrictions as set forth in subparagraphs (a)
 and (c) of the Commercial Computer Software - Restricted
 Rights clause in FAR 52.227-19.
  
 Gaussian, Inc.
 340 Quinnipiac St., Bldg. 40, Wallingford CT 06492
  
  
 ---------------------------------------------------------------
 Warning -- This program may not be used in any manner that
 competes with the business of Gaussian, Inc. or will provide
 assistance to any competitor of Gaussian, Inc.  The licensee
 of this program is prohibited from giving any competitor of
 Gaussian, Inc. access to this program.  By using this program,
 the user acknowledges that Gaussian, Inc. is engaged in the
 business of creating and licensing software in the field of
 computational chemistry and represents and warrants to the
 licensee that it is not a competitor of Gaussian, Inc. and that
 it will not use this program in any manner prohibited above.
 ---------------------------------------------------------------
  

 Cite this work as:
 Gaussian 16, Revision A.03,
 M. J. Frisch, G. W. Trucks, H. B. Schlegel, G. E. Scuseria, 
 M. A. Robb, J. R. Cheeseman, G. Scalmani, V. Barone, 
 G. A. Petersson, H. Nakatsuji, X. Li, M. Caricato, A. V. Marenich, 
 J. Bloino, B. G. Janesko, R. Gomperts, B. Mennucci, H. P. Hratchian, 
 J. V. Ortiz, A. F. Izmaylov, J. L. Sonnenberg, D. Williams-Young, 
 F. Ding, F. Lipparini, F. Egidi, J. Goings, B. Peng, A. Petrone, 
 T. Henderson, D. Ranasinghe, V. G. Zakrzewski, J. Gao, N. Rega, 
 G. Zheng, W. Liang, M. Hada, M. Ehara, K. Toyota, R. Fukuda, 
 J. Hasegawa, M. Ishida, T. Nakajima, Y. Honda, O. Kitao, H. Nakai, 
 T. Vreven, K. Throssell, J. A. Montgomery, Jr., J. E. Peralta, 
 F. Ogliaro, M. J. Bearpark, J. J. Heyd, E. N. Brothers, K. N. Kudin, 
 V. N. Staroverov, T. A. Keith, R. Kobayashi, J. Normand, 
 K. Raghavachari, A. P. Rendell, J. C. Burant, S. S. Iyengar, 
 J. Tomasi, M. Cossi, J. M. Millam, M. Klene, C. Adamo, R. Cammi, 
 J. W. Ochterski, R. L. Martin, K. Morokuma, O. Farkas, 
 J. B. Foresman, and D. J. Fox, Gaussian, Inc., Wallingford CT, 2016.
 
 ******************************************
 Gaussian 16:  ES64L-G16RevA.03 25-Dec-2016
                28-Aug-2022 
 ******************************************
 %NProcShared=4
 Will use up to    4 processors via shared memory.
 %Mem=4GB
 %Chk=H2O_H2O_1919.chk
 ------------------
 #p CCSD(T)/cc-pVTZ
 ------------------
 1/38=1,172=1/1;
 2/12=2,17=6,18=5,40=1/2;
 3/5=16,6=1,11=9,25=1,30=1/1,2,3;
 4//1;
 5/5=2,38=5/2;
 8/6=4,9=120000,10=1/1,4;
 9/5=7,14=2/13;
 6/7=2,8=2,9=2,10=2/1;
 99/5=1,9=1/99;
 Leave Link    1 at Sun Aug 28 02:47:30 2022, MaxMem=   536870912 cpu:               0.3 elap:               0.1
 (Enter /usr/site/hpc/x86_64/glibc-2.17/broadwell/gaussian/g16_a.03/pgi-16.5/g16/l101.exe)
 ------------
 H2O_H2O_1919
 ------------
 Symbolic Z-matrix:
 Charge =  0 Multiplicity = 1
 O                     0.       -0.00983   0. 
 H                    -0.79957  -0.58097   0. 
 H                     0.79957  -0.58097   0. 
 O                    -2.90349  -2.07047   0. 
 H                    -3.70133  -1.49691   0. 
 H                    -3.1873   -3.01119   0. 
 
 ITRead=  0  0  0  0  0  0
 MicOpt= -1 -1 -1 -1 -1 -1
 NAtoms=      6 NQM=        6 NQMF=       0 NMMI=      0 NMMIF=      0
                NMic=       0 NMicF=      0.
                    Isotopes and Nuclear Properties:
 (Nuclear quadrupole moments (NQMom) in fm**2, nuclear magnetic moments (NMagM)
  in nuclear magnetons)

  Atom         1           2           3           4           5           6
 IAtWgt=          16           1           1          16           1           1
 AtmWgt=  15.9949146   1.0078250   1.0078250  15.9949146   1.0078250   1.0078250
 NucSpn=           0           1           1           0           1           1
 AtZEff=  -0.0000000  -0.0000000  -0.0000000  -0.0000000  -0.0000000  -0.0000000
 NQMom=    0.0000000   0.0000000   0.0000000   0.0000000   0.0000000   0.0000000
 NMagM=    0.0000000   2.7928460   2.7928460   0.0000000   2.7928460   2.7928460
 AtZNuc=   8.0000000   1.0000000   1.0000000   8.0000000   1.0000000   1.0000000
 Leave Link  101 at Sun Aug 28 02:47:30 2022, MaxMem=   536870912 cpu:               0.6 elap:               0.2
 (Enter /usr/site/hpc/x86_64/glibc-2.17/broadwell/gaussian/g16_a.03/pgi-16.5/g16/l202.exe)
                          Input orientation:                          
 ---------------------------------------------------------------------
 Center     Atomic      Atomic             Coordinates (Angstroms)
 Number     Number       Type             X           Y           Z
 ---------------------------------------------------------------------
      1          8           0        0.000000   -0.009833    0.000000
      2          1           0       -0.799571   -0.580965    0.000000
      3          1           0        0.799571   -0.580965    0.000000
      4          8           0       -2.903492   -2.070468    0.000000
      5          1           0       -3.701328   -1.496914    0.000000
      6          1           0       -3.187301   -3.011190    0.000000
 ---------------------------------------------------------------------
                    Distance matrix (angstroms):
                    1          2          3          4          5
     1  O    0.000000
     2  H    0.982601   0.000000
     3  H    0.982601   1.599142   0.000000
     4  O    3.560405   2.577810   3.991403   0.000000
     5  H    3.988889   3.042886   4.593153   0.982602   0.000000
     6  H    4.378017   3.406941   4.669169   0.982601   1.599142
                    6
     6  H    0.000000
 Stoichiometry    H4O2
 Framework group  CS[SG(H4O2)]
 Deg. of freedom     9
 Full point group                 CS      NOp   2
 Largest Abelian subgroup         CS      NOp   2
 Largest concise Abelian subgroup C1      NOp   1
                         Standard orientation:                         
 ---------------------------------------------------------------------
 Center     Atomic      Atomic             Coordinates (Angstroms)
 Number     Number       Type             X           Y           Z
 ---------------------------------------------------------------------
      1          8           0        0.030246    1.867986    0.000000
      2          1           0        0.027254    0.885390    0.000000
      3          1           0       -0.898273    2.189482   -0.000000
      4          8           0        0.030246   -1.692418    0.000000
      5          1           0        0.959735   -2.011097    0.000000
      6          1           0       -0.572650   -2.468319   -0.000000
 ---------------------------------------------------------------------
 Rotational constants (GHZ):         247.1064377           4.3025422           4.2289097
 Leave Link  202 at Sun Aug 28 02:47:30 2022, MaxMem=   536870912 cpu:               0.0 elap:               0.0
 (Enter /usr/site/hpc/x86_64/glibc-2.17/broadwell/gaussian/g16_a.03/pgi-16.5/g16/l301.exe)
 Standard basis: CC-pVTZ (5D, 7F)
 Ernie: Thresh=  0.10000D-02 Tol=  0.10000D-05 Strict=F.
 Ernie:  6 primitive shells out of 84 were deleted.
 There are    92 symmetry adapted cartesian basis functions of A'  symmetry.
 There are    38 symmetry adapted cartesian basis functions of A"  symmetry.
 There are    80 symmetry adapted basis functions of A'  symmetry.
 There are    36 symmetry adapted basis functions of A"  symmetry.
   116 basis functions,   172 primitive gaussians,   130 cartesian basis functions
    10 alpha electrons       10 beta electrons
       nuclear repulsion energy        32.6964862078 Hartrees.
 IExCor=    0 DFT=F Ex=HF Corr=None ExCW=0 ScaHFX=  1.000000
 ScaDFX=  1.000000  1.000000  1.000000  1.000000 ScalE2=  1.000000  1.000000
 IRadAn=      5 IRanWt=     -1 IRanGd=            0 ICorTp=0 IEmpDi=  4
 NAtoms=    6 NActive=    6 NUniq=    6 SFac= 1.00D+00 NAtFMM=   60 NAOKFM=F Big=F
 Integral buffers will be    131072 words long.
 Raffenetti 1 integral format.
 Two-electron integral symmetry is turned on.
 Leave Link  301 at Sun Aug 28 02:47:30 2022, MaxMem=   536870912 cpu:               0.2 elap:               0.0
 (Enter /usr/site/hpc/x86_64/glibc-2.17/broadwell/gaussian/g16_a.03/pgi-16.5/g16/l302.exe)
 NPDir=0 NMtPBC=     1 NCelOv=     1 NCel=       1 NClECP=     1 NCelD=      1
         NCelK=      1 NCelE2=     1 NClLst=     1 CellRange=     0.0.
 One-electron integrals computed using PRISM.
 One-electron integral symmetry used in STVInt
 NBasis=   116 RedAO= T EigKep=  2.36D-03  NBF=    80    36
 NBsUse=   116 1.00D-06 EigRej= -1.00D+00 NBFU=    80    36
 Leave Link  302 at Sun Aug 28 02:47:30 2022, MaxMem=   536870912 cpu:               0.5 elap:               0.1
 (Enter /usr/site/hpc/x86_64/glibc-2.17/broadwell/gaussian/g16_a.03/pgi-16.5/g16/l303.exe)
 DipDrv:  MaxL=1.
 Leave Link  303 at Sun Aug 28 02:47:30 2022, MaxMem=   536870912 cpu:               0.1 elap:               0.0
 (Enter /usr/site/hpc/x86_64/glibc-2.17/broadwell/gaussian/g16_a.03/pgi-16.5/g16/l401.exe)
 ExpMin= 1.03D-01 ExpMax= 1.53D+04 ExpMxC= 5.22D+02 IAcc=3 IRadAn=         5 AccDes= 0.00D+00
 Harris functional with IExCor=  205 and IRadAn=       5 diagonalized for initial guess.
 HarFok:  IExCor=  205 AccDes= 0.00D+00 IRadAn=         5 IDoV= 1 UseB2=F ITyADJ=14
 ICtDFT=  3500011 ScaDFX=  1.000000  1.000000  1.000000  1.000000
 FoFCou: FMM=F IPFlag=           0 FMFlag=      100000 FMFlg1=           0
         NFxFlg=           0 DoJE=T BraDBF=F KetDBF=T FulRan=T
         wScrn=  0.000000 ICntrl=       500 IOpCl=  0 I1Cent=   200000004 NGrid=           0
         NMat0=    1 NMatS0=      1 NMatT0=    0 NMatD0=    1 NMtDS0=    0 NMtDT0=    0
 Petite list used in FoFCou.
 Harris En= -152.300525206207    
 JPrj=0 DoOrth=F DoCkMO=F.
 Initial guess orbital symmetries:
       Occupied  (A') (A') (A') (A') (A') (A') (A') (A') (A") (A")
       Virtual   (A') (A') (A') (A') (A') (A') (A') (A') (A') (A")
                 (A') (A") (A') (A') (A') (A") (A") (A') (A") (A")
                 (A') (A') (A') (A') (A') (A') (A') (A') (A") (A")
                 (A") (A") (A') (A') (A') (A') (A') (A') (A') (A')
                 (A') (A') (A") (A") (A') (A') (A") (A") (A") (A")
                 (A') (A') (A') (A') (A') (A') (A") (A") (A') (A')
                 (A') (A") (A") (A') (A") (A") (A') (A') (A') (A')
                 (A") (A") (A') (A') (A') (A') (A') (A') (A') (A')
                 (A") (A") (A') (A') (A") (A") (A") (A") (A') (A')
                 (A") (A") (A') (A') (A') (A') (A") (A") (A') (A')
                 (A') (A') (A') (A') (A') (A')
 The electronic state of the initial guess is 1-A'.
 Leave Link  401 at Sun Aug 28 02:47:30 2022, MaxMem=   536870912 cpu:               0.8 elap:               0.2
 (Enter /usr/site/hpc/x86_64/glibc-2.17/broadwell/gaussian/g16_a.03/pgi-16.5/g16/l502.exe)
 Keep R1 ints in memory in symmetry-blocked form, NReq=34823457.
 FoFCou: FMM=F IPFlag=           0 FMFlag=           0 FMFlg1=           0
         NFxFlg=           0 DoJE=F BraDBF=F KetDBF=F FulRan=T
         wScrn=  0.000000 ICntrl=       600 IOpCl=  0 I1Cent=           0 NGrid=           0
         NMat0=    1 NMatS0=   6786 NMatT0=    0 NMatD0=    1 NMtDS0=    0 NMtDT0=    0
 Petite list used in FoFCou.
 Closed shell SCF:
 Using DIIS extrapolation, IDIIS=  1040.
 NGot=   536870912 LenX=   525040673 LenY=   525023332
 Requested convergence on RMS density matrix=1.00D-08 within 128 cycles.
 Requested convergence on MAX density matrix=1.00D-06.
 Requested convergence on             energy=1.00D-06.
 No special actions if energy rises.

 Cycle   1  Pass 1  IDiag  1:
 E= -151.938800578456    
 DIIS: error= 6.59D-02 at cycle   1 NSaved=   1.
 NSaved= 1 IEnMin= 1 EnMin= -151.938800578456     IErMin= 1 ErrMin= 6.59D-02
 ErrMax= 6.59D-02  0.00D+00 EMaxC= 1.00D-01 BMatC= 3.93D-01 BMatP= 3.93D-01
 IDIUse=3 WtCom= 3.41D-01 WtEn= 6.59D-01
 Coeff-Com:  0.100D+01
 Coeff-En:   0.100D+01
 Coeff:      0.100D+01
 Gap=     0.505 Goal=   None    Shift=    0.000
 GapD=    0.505 DampG=2.000 DampE=0.500 DampFc=1.0000 IDamp=-1.
 RMSDP=2.53D-03 MaxDP=6.87D-02              OVMax= 1.23D-01

 Cycle   2  Pass 1  IDiag  1:
 E= -152.047510889209     Delta-E=       -0.108710310753 Rises=F Damp=F
 DIIS: error= 4.08D-02 at cycle   2 NSaved=   2.
 NSaved= 2 IEnMin= 2 EnMin= -152.047510889209     IErMin= 2 ErrMin= 4.08D-02
 ErrMax= 4.08D-02  0.00D+00 EMaxC= 1.00D-01 BMatC= 1.07D-01 BMatP= 3.93D-01
 IDIUse=3 WtCom= 5.92D-01 WtEn= 4.08D-01
 Coeff-Com:  0.315D+00 0.685D+00
 Coeff-En:   0.160D+00 0.840D+00
 Coeff:      0.252D+00 0.748D+00
 Gap=     0.628 Goal=   None    Shift=    0.000
 RMSDP=1.35D-03 MaxDP=3.98D-02 DE=-1.09D-01 OVMax= 5.63D-02

 Cycle   3  Pass 1  IDiag  1:
 E= -152.108930118216     Delta-E=       -0.061419229007 Rises=F Damp=F
 DIIS: error= 9.09D-03 at cycle   3 NSaved=   3.
 NSaved= 3 IEnMin= 3 EnMin= -152.108930118216     IErMin= 3 ErrMin= 9.09D-03
 ErrMax= 9.09D-03  0.00D+00 EMaxC= 1.00D-01 BMatC= 5.94D-03 BMatP= 1.07D-01
 IDIUse=3 WtCom= 9.09D-01 WtEn= 9.09D-02
 Coeff-Com: -0.302D-01 0.159D+00 0.871D+00
 Coeff-En:   0.000D+00 0.000D+00 0.100D+01
 Coeff:     -0.274D-01 0.145D+00 0.883D+00
 Gap=     0.600 Goal=   None    Shift=    0.000
 RMSDP=2.49D-04 MaxDP=5.90D-03 DE=-6.14D-02 OVMax= 1.33D-02

 Cycle   4  Pass 1  IDiag  1:
 E= -152.112600949187     Delta-E=       -0.003670830971 Rises=F Damp=F
 DIIS: error= 8.20D-04 at cycle   4 NSaved=   4.
 NSaved= 4 IEnMin= 4 EnMin= -152.112600949187     IErMin= 4 ErrMin= 8.20D-04
 ErrMax= 8.20D-04  0.00D+00 EMaxC= 1.00D-01 BMatC= 3.55D-05 BMatP= 5.94D-03
 IDIUse=3 WtCom= 9.92D-01 WtEn= 8.20D-03
 Coeff-Com:  0.662D-02-0.609D-01-0.232D+00 0.129D+01
 Coeff-En:   0.000D+00 0.000D+00 0.000D+00 0.100D+01
 Coeff:      0.656D-02-0.604D-01-0.230D+00 0.128D+01
 Gap=     0.603 Goal=   None    Shift=    0.000
 RMSDP=5.22D-05 MaxDP=1.00D-03 DE=-3.67D-03 OVMax= 2.38D-03

 Cycle   5  Pass 1  IDiag  1:
 E= -152.112648930809     Delta-E=       -0.000047981623 Rises=F Damp=F
 DIIS: error= 1.82D-04 at cycle   5 NSaved=   5.
 NSaved= 5 IEnMin= 5 EnMin= -152.112648930809     IErMin= 5 ErrMin= 1.82D-04
 ErrMax= 1.82D-04  0.00D+00 EMaxC= 1.00D-01 BMatC= 1.49D-06 BMatP= 3.55D-05
 IDIUse=3 WtCom= 9.98D-01 WtEn= 1.82D-03
 Coeff-Com:  0.115D-02-0.513D-02-0.253D-01-0.107D+00 0.114D+01
 Coeff-En:   0.000D+00 0.000D+00 0.000D+00 0.000D+00 0.100D+01
 Coeff:      0.115D-02-0.512D-02-0.252D-01-0.107D+00 0.114D+01
 Gap=     0.604 Goal=   None    Shift=    0.000
 RMSDP=1.43D-05 MaxDP=3.36D-04 DE=-4.80D-05 OVMax= 6.98D-04

 Cycle   6  Pass 1  IDiag  1:
 E= -152.112651685398     Delta-E=       -0.000002754589 Rises=F Damp=F
 DIIS: error= 4.11D-05 at cycle   6 NSaved=   6.
 NSaved= 6 IEnMin= 6 EnMin= -152.112651685398     IErMin= 6 ErrMin= 4.11D-05
 ErrMax= 4.11D-05  0.00D+00 EMaxC= 1.00D-01 BMatC= 1.65D-07 BMatP= 1.49D-06
 IDIUse=1 WtCom= 1.00D+00 WtEn= 0.00D+00
 Coeff-Com: -0.685D-04 0.226D-02 0.739D-02-0.115D+00 0.316D+00 0.790D+00
 Coeff:     -0.685D-04 0.226D-02 0.739D-02-0.115D+00 0.316D+00 0.790D+00
 Gap=     0.604 Goal=   None    Shift=    0.000
 RMSDP=3.04D-06 MaxDP=8.73D-05 DE=-2.75D-06 OVMax= 1.67D-04

 Cycle   7  Pass 1  IDiag  1:
 E= -152.112651874766     Delta-E=       -0.000000189368 Rises=F Damp=F
 DIIS: error= 9.57D-06 at cycle   7 NSaved=   7.
 NSaved= 7 IEnMin= 7 EnMin= -152.112651874766     IErMin= 7 ErrMin= 9.57D-06
 ErrMax= 9.57D-06  0.00D+00 EMaxC= 1.00D-01 BMatC= 8.62D-09 BMatP= 1.65D-07
 IDIUse=1 WtCom= 1.00D+00 WtEn= 0.00D+00
 Coeff-Com: -0.101D-03 0.368D-03 0.172D-02 0.150D-01-0.134D+00-0.300D-01
 Coeff-Com:  0.115D+01
 Coeff:     -0.101D-03 0.368D-03 0.172D-02 0.150D-01-0.134D+00-0.300D-01
 Coeff:      0.115D+01
 Gap=     0.604 Goal=   None    Shift=    0.000
 RMSDP=1.36D-06 MaxDP=3.68D-05 DE=-1.89D-07 OVMax= 7.16D-05

 Cycle   8  Pass 1  IDiag  1:
 E= -152.112651893981     Delta-E=       -0.000000019215 Rises=F Damp=F
 DIIS: error= 1.96D-06 at cycle   8 NSaved=   8.
 NSaved= 8 IEnMin= 8 EnMin= -152.112651893981     IErMin= 8 ErrMin= 1.96D-06
 ErrMax= 1.96D-06  0.00D+00 EMaxC= 1.00D-01 BMatC= 3.82D-10 BMatP= 8.62D-09
 IDIUse=1 WtCom= 1.00D+00 WtEn= 0.00D+00
 Coeff-Com:  0.245D-04-0.211D-03-0.833D-03 0.388D-02 0.105D-01-0.337D-01
 Coeff-Com: -0.215D+00 0.124D+01
 Coeff:      0.245D-04-0.211D-03-0.833D-03 0.388D-02 0.105D-01-0.337D-01
 Coeff:     -0.215D+00 0.124D+01
 Gap=     0.604 Goal=   None    Shift=    0.000
 RMSDP=2.10D-07 MaxDP=3.70D-06 DE=-1.92D-08 OVMax= 1.40D-05

 Cycle   9  Pass 1  IDiag  1:
 E= -152.112651894856     Delta-E=       -0.000000000875 Rises=F Damp=F
 DIIS: error= 5.94D-07 at cycle   9 NSaved=   9.
 NSaved= 9 IEnMin= 9 EnMin= -152.112651894856     IErMin= 9 ErrMin= 5.94D-07
 ErrMax= 5.94D-07  0.00D+00 EMaxC= 1.00D-01 BMatC= 2.31D-11 BMatP= 3.82D-10
 IDIUse=1 WtCom= 1.00D+00 WtEn= 0.00D+00
 Coeff-Com:  0.119D-05 0.270D-04 0.107D-03-0.233D-02 0.768D-02 0.114D-01
 Coeff-Com: -0.309D-01-0.278D+00 0.129D+01
 Coeff:      0.119D-05 0.270D-04 0.107D-03-0.233D-02 0.768D-02 0.114D-01
 Coeff:     -0.309D-01-0.278D+00 0.129D+01
 Gap=     0.604 Goal=   None    Shift=    0.000
 RMSDP=5.54D-08 MaxDP=9.67D-07 DE=-8.75D-10 OVMax= 3.10D-06

 Cycle  10  Pass 1  IDiag  1:
 E= -152.112651894907     Delta-E=       -0.000000000051 Rises=F Damp=F
 DIIS: error= 7.16D-08 at cycle  10 NSaved=  10.
 NSaved=10 IEnMin=10 EnMin= -152.112651894907     IErMin=10 ErrMin= 7.16D-08
 ErrMax= 7.16D-08  0.00D+00 EMaxC= 1.00D-01 BMatC= 3.80D-13 BMatP= 2.31D-11
 IDIUse=1 WtCom= 1.00D+00 WtEn= 0.00D+00
 Coeff-Com: -0.618D-06-0.439D-06-0.333D-05 0.296D-03-0.121D-02-0.131D-02
 Coeff-Com:  0.670D-02 0.378D-01-0.269D+00 0.123D+01
 Coeff:     -0.618D-06-0.439D-06-0.333D-05 0.296D-03-0.121D-02-0.131D-02
 Coeff:      0.670D-02 0.378D-01-0.269D+00 0.123D+01
 Gap=     0.604 Goal=   None    Shift=    0.000
 RMSDP=6.37D-09 MaxDP=1.50D-07 DE=-5.06D-11 OVMax= 3.63D-07

 SCF Done:  E(RHF) =  -152.112651895     A.U. after   10 cycles
            NFock= 10  Conv=0.64D-08     -V/T= 2.0021
 KE= 1.517931089140D+02 PE=-4.268095968261D+02 EE= 9.020734980931D+01
 Leave Link  502 at Sun Aug 28 02:47:31 2022, MaxMem=   536870912 cpu:               4.1 elap:               1.1
 (Enter /usr/site/hpc/x86_64/glibc-2.17/broadwell/gaussian/g16_a.03/pgi-16.5/g16/l801.exe)
 Windowed orbitals will be sorted by symmetry type.
 ExpMin= 1.03D-01 ExpMax= 1.53D+04 ExpMxC= 5.22D+02 IAcc=3 IRadAn=         5 AccDes= 0.00D+00
 HarFok:  IExCor=  205 AccDes= 0.00D+00 IRadAn=         5 IDoV=-2 UseB2=F ITyADJ=14
 ICtDFT= 12500011 ScaDFX=  1.000000  1.000000  1.000000  1.000000
 Largest valence mixing into a core orbital is  1.12D-04
 Largest core mixing into a valence orbital is  1.77D-05
 Range of M.O.s used for correlation:     3   116
 NBasis=   116 NAE=    10 NBE=    10 NFC=     2 NFV=     0
 NROrb=    114 NOA=     8 NOB=     8 NVA=   106 NVB=   106
 Leave Link  801 at Sun Aug 28 02:47:32 2022, MaxMem=   536870912 cpu:               0.3 elap:               0.1
 (Enter /usr/site/hpc/x86_64/glibc-2.17/broadwell/gaussian/g16_a.03/pgi-16.5/g16/l804.exe)
 Closed-shell transformation, MDV=   536870912 ITran=4 ISComp=2.
 Unit  1 TFree=        834515 TCopy=        406125.
 Semi-Direct transformation.
 ModeAB=           4 MOrb=             8 LenV=     536366974
 LASXX=      2873146 LTotXX=     2873146 LenRXX=     5831278
 LTotAB=     2958132 MaxLAS=     7036992 LenRXY=           0
 NonZer=     8704424 LenScr=    13107200 LnRSAI=     7036992
 LnScr1=    11010048 LExtra=           0 Total=     36985518
 MaxDsk=          -1 SrtSym=           T ITran=            4
 DoSDTr:  NPSUse=  4
 JobTyp=0 Pass  1:  I=   1 to   8.
 (rs|ai) integrals will be sorted in core.
 Complete sort for first half transformation.
 First half transformation complete.
 Complete sort for second half transformation.
 Second half transformation complete.
 Spin components of T(2) and E(2):
     alpha-alpha T2 =       0.1562210550D-01 E2=     -0.6400139440D-01
     alpha-beta  T2 =       0.9188359608D-01 E2=     -0.3984692895D+00
     beta-beta   T2 =       0.1562210550D-01 E2=     -0.6400139440D-01
 ANorm=    0.1059777244D+01
 E2 =    -0.5264720783D+00 EUMP2 =    -0.15263912397323D+03
 Leave Link  804 at Sun Aug 28 02:47:33 2022, MaxMem=   536870912 cpu:               3.8 elap:               1.0
 (Enter /usr/site/hpc/x86_64/glibc-2.17/broadwell/gaussian/g16_a.03/pgi-16.5/g16/l913.exe)
 CIDS:  MDV=   536870912.
 Frozen-core window:  NFC=   2 NFV=   0.
 IFCWin=0 IBDFC=1 NFBD=     0     0 NFCmp=     0     0 NFFFC=     0     0
 Using DD3R+UMP44R for 1st iteration.
 Using DD4RQ for 2nd and later iterations.
 Keep R2 and R3 ints in memory in symmetry-blocked form, NReq=35357534.
 FoFCou: FMM=F IPFlag=           0 FMFlag=           0 FMFlg1=           0
         NFxFlg=           0 DoJE=F BraDBF=F KetDBF=F FulRan=T
         wScrn=  0.000000 ICntrl=       600 IOpCl=  0 I1Cent=           0 NGrid=           0
         NMat0=    1 NMatS0=   6786 NMatT0=    0 NMatD0=    1 NMtDS0=    0 NMtDT0=    0
 Petite list used in FoFCou.
 CIDS: In Core Option IDoMem=           1.
 CCSD(T)
 =======
 Iterations=  50 Convergence= 0.100D-06
 Produce multiple copies of IABC intergrals
 Iteration Nr.   1
 **********************
 DD1Dir will call FoFMem   1 times, MxPair=        72
 NAB=    36 NAA=     0 NBB=     0.
 MP4(R+Q)=  0.75770455D-02
 Maximum subspace dimension=  5
 A-vector RMS=  1.7716762D-03 Max=  5.7909643D-03 conv= 1.00D-05.
 RLE energy=       -0.5261856714
 E3=       -0.73596341D-02        EUMP3=      -0.15264648361D+03
 E4(DQ)=   -0.15037562D-02        UMP4(DQ)=   -0.15264798736D+03
 E4(SDQ)=  -0.45852458D-02        UMP4(SDQ)=  -0.15265106885D+03
 VARIATIONAL ENERGIES WITH THE FIRST-ORDER WAVEFUNCTION:
 DE(Corr)= -0.52618552     E(Corr)=     -152.63883742    
 NORM(A)=   0.10600704D+01
 Iteration Nr.   2
 **********************
 DD1Dir will call FoFMem   1 times, MxPair=        72
 NAB=    36 NAA=     0 NBB=     0.
 A-vector RMS=  2.1274645D-04 Max=  2.1033877D-03 conv= 1.00D-05.
 RLE energy=       -0.5372266756
 DE(Corr)= -0.53609216     E(CORR)=     -152.64874406     Delta=-9.91D-03
 NORM(A)=   0.10638073D+01
 Iteration Nr.   3
 **********************
 DD1Dir will call FoFMem   1 times, MxPair=        72
 NAB=    36 NAA=     0 NBB=     0.
 A-vector RMS=  1.4783174D-04 Max=  7.0482837D-04 conv= 1.00D-05.
 RLE energy=       -0.5377210690
 DE(Corr)= -0.53713528     E(CORR)=     -152.64978718     Delta=-1.04D-03
 NORM(A)=   0.10644379D+01
 Iteration Nr.   4
 **********************
 DD1Dir will call FoFMem   1 times, MxPair=        72
 NAB=    36 NAA=     0 NBB=     0.
 A-vector RMS=  2.9360541D-05 Max=  1.3549375D-04 conv= 1.00D-05.
 RLE energy=       -0.5378011226
 DE(Corr)= -0.53776718     E(CORR)=     -152.65041907     Delta=-6.32D-04
 NORM(A)=   0.10645475D+01
 Iteration Nr.   5
 **********************
 DD1Dir will call FoFMem   1 times, MxPair=        72
 NAB=    36 NAA=     0 NBB=     0.
 A-vector RMS=  1.8524610D-05 Max=  1.4601353D-04 conv= 1.00D-05.
 RLE energy=       -0.5378120292
 DE(Corr)= -0.53780489     E(CORR)=     -152.65045678     Delta=-3.77D-05
 NORM(A)=   0.10645582D+01
 Iteration Nr.   6
 **********************
 DD1Dir will call FoFMem   1 times, MxPair=        72
 NAB=    36 NAA=     0 NBB=     0.
 A-vector RMS=  5.7601232D-06 Max=  4.6011396D-05 conv= 1.00D-05.
 RLE energy=       -0.5378039220
 DE(Corr)= -0.53780840     E(CORR)=     -152.65046029     Delta=-3.51D-06
 NORM(A)=   0.10645578D+01
 Iteration Nr.   7
 **********************
 DD1Dir will call FoFMem   1 times, MxPair=        72
 NAB=    36 NAA=     0 NBB=     0.
 A-vector RMS=  2.6210431D-06 Max=  2.3459484D-05 conv= 1.00D-05.
 RLE energy=       -0.5378082778
 DE(Corr)= -0.53780859     E(CORR)=     -152.65046048     Delta=-1.91D-07
 NORM(A)=   0.10645595D+01
 Iteration Nr.   8
 **********************
 DD1Dir will call FoFMem   1 times, MxPair=        72
 NAB=    36 NAA=     0 NBB=     0.
 A-vector RMS=  9.7495772D-07 Max=  8.9424637D-06 conv= 1.00D-05.
 RLE energy=       -0.5378079421
 DE(Corr)= -0.53780815     E(CORR)=     -152.65046005     Delta= 4.33D-07
 NORM(A)=   0.10645597D+01
 Iteration Nr.   9
 **********************
 DD1Dir will call FoFMem   1 times, MxPair=        72
 NAB=    36 NAA=     0 NBB=     0.
 A-vector RMS=  2.0759149D-07 Max=  2.7845243D-06 conv= 1.00D-05.
 RLE energy=       -0.5378082025
 DE(Corr)= -0.53780827     E(CORR)=     -152.65046017     Delta=-1.18D-07
 NORM(A)=   0.10645600D+01
 Iteration Nr.  10
 **********************
 DD1Dir will call FoFMem   1 times, MxPair=        72
 NAB=    36 NAA=     0 NBB=     0.
 A-vector RMS=  7.4740570D-08 Max=  1.1284120D-06 conv= 1.00D-05.
 RLE energy=       -0.5378083965
 DE(Corr)= -0.53780839     E(CORR)=     -152.65046028     Delta=-1.14D-07
 NORM(A)=   0.10645602D+01
 Iteration Nr.  11
 **********************
 DD1Dir will call FoFMem   1 times, MxPair=        72
 NAB=    36 NAA=     0 NBB=     0.
 A-vector RMS=  2.8797703D-08 Max=  3.9772359D-07 conv= 1.00D-05.
 RLE energy=       -0.5378084570
 DE(Corr)= -0.53780844     E(CORR)=     -152.65046033     Delta=-5.19D-08
 NORM(A)=   0.10645602D+01
 CI/CC converged in   11 iterations to DelEn=-5.19D-08 Conv= 1.00D-07 ErrA1= 2.88D-08 Conv= 1.00D-05
 Wavefunction amplitudes converged. E(Corr)=     -152.65046033    
 Largest amplitude= 4.41D-02
 IPart=  2 IA=    7   11.05% done.
 IPart=  4 IA=   13   21.46% done.
 IPart=  3 IA=   19   31.21% done.
 IPart=  1 IA=   25   40.32% done.
 IPart=  1 IA=   32   50.13% done.
 IPart=  4 IA=   40   60.27% done.
 IPart=  1 IA=   49   70.30% done.
 IPart=  3 IA=   60   80.58% done.
 IPart=  1 IA=   74   90.51% done.
 Time for triples=       64.64 seconds.
 T4(CCSD)= -0.16126485D-01
 T5(CCSD)=  0.40798278D-03
 CCSD(T)= -0.15266617884D+03
 Discarding MO integrals.
 Leave Link  913 at Sun Aug 28 02:47:56 2022, MaxMem=   536870912 cpu:              87.6 elap:              23.1
 (Enter /usr/site/hpc/x86_64/glibc-2.17/broadwell/gaussian/g16_a.03/pgi-16.5/g16/l601.exe)
 Copying SCF densities to generalized density rwf, IOpCl= 0 IROHF=0.

 **********************************************************************

            Population analysis using the SCF density.

 **********************************************************************

 Orbital symmetries:
       Occupied  (A') (A') (A') (A') (A') (A') (A') (A') (A") (A")
       Virtual   (A') (A') (A') (A') (A') (A') (A') (A') (A') (A')
                 (A") (A') (A") (A") (A') (A') (A") (A') (A") (A")
                 (A') (A') (A') (A') (A') (A') (A') (A') (A") (A")
                 (A") (A') (A") (A') (A') (A') (A') (A') (A') (A')
                 (A') (A') (A") (A") (A') (A") (A') (A") (A') (A')
                 (A") (A") (A') (A') (A') (A') (A") (A") (A") (A')
                 (A") (A') (A') (A') (A") (A") (A') (A') (A') (A')
                 (A") (A") (A') (A') (A') (A') (A') (A') (A') (A')
                 (A") (A") (A') (A') (A") (A") (A") (A") (A') (A")
                 (A") (A') (A') (A') (A') (A") (A') (A") (A') (A')
                 (A') (A') (A') (A') (A') (A')
 The electronic state is 1-A'.
 Alpha  occ. eigenvalues --  -20.57421 -20.53633  -1.34680  -1.31003  -0.72068
 Alpha  occ. eigenvalues --   -0.68454  -0.58401  -0.54452  -0.51819  -0.48159
 Alpha virt. eigenvalues --    0.12231   0.17131   0.19124   0.26687   0.51885
 Alpha virt. eigenvalues --    0.54633   0.56252   0.59074   0.69060   0.72626
 Alpha virt. eigenvalues --    0.75944   0.77712   0.80800   0.83386   0.84395
 Alpha virt. eigenvalues --    0.86019   0.86639   0.88594   0.94928   1.01626
 Alpha virt. eigenvalues --    1.11655   1.14242   1.21107   1.22912   1.50122
 Alpha virt. eigenvalues --    1.50631   1.54163   1.72546   1.98744   2.02567
 Alpha virt. eigenvalues --    2.04929   2.07031   2.08902   2.11412   2.14077
 Alpha virt. eigenvalues --    2.22161   2.26259   2.33189   2.59812   2.63974
 Alpha virt. eigenvalues --    2.91391   2.96710   3.37703   3.41311   3.48235
 Alpha virt. eigenvalues --    3.51517   3.51900   3.55107   3.57846   3.61772
 Alpha virt. eigenvalues --    3.76843   3.80465   3.82766   3.87316   3.88938
 Alpha virt. eigenvalues --    3.91208   3.91949   3.95060   4.02012   4.05580
 Alpha virt. eigenvalues --    4.05812   4.12141   4.13799   4.25198   4.28421
 Alpha virt. eigenvalues --    4.32146   4.39584   4.43023   4.44038   4.51604
 Alpha virt. eigenvalues --    4.64901   4.68419   4.81615   4.83501   5.02958
 Alpha virt. eigenvalues --    5.07805   5.23652   5.26990   5.53801   5.57112
 Alpha virt. eigenvalues --    5.95979   5.99728   6.38561   6.43296   6.84286
 Alpha virt. eigenvalues --    6.87818   6.88010   6.91555   6.92287   6.97186
 Alpha virt. eigenvalues --    7.00967   7.02868   7.06531   7.09772   7.13717
 Alpha virt. eigenvalues --    7.16325   7.17203   7.20137   7.45569   7.50844
 Alpha virt. eigenvalues --    7.69082   7.72830   8.14400   8.18609  12.47330
 Alpha virt. eigenvalues --   12.73979
          Condensed to atoms (all electrons):
               1          2          3          4          5          6
     1  O    7.839564   0.348493   0.346306  -0.001915   0.000145   0.000099
     2  H    0.348493   0.408075  -0.038801   0.014681  -0.001255  -0.000759
     3  H    0.346306  -0.038801   0.441642  -0.000348   0.000028   0.000030
     4  O   -0.001915   0.014681  -0.000348   7.837842   0.329997   0.328578
     5  H    0.000145  -0.001255   0.000028   0.329997   0.435470  -0.026700
     6  H    0.000099  -0.000759   0.000030   0.328578  -0.026700   0.440255
 Mulliken charges:
               1
     1  O   -0.532691
     2  H    0.269567
     3  H    0.251144
     4  O   -0.508835
     5  H    0.262316
     6  H    0.258499
 Sum of Mulliken charges =  -0.00000
 Mulliken charges with hydrogens summed into heavy atoms:
               1
     1  O   -0.011980
     4  O    0.011980
 Electronic spatial extent (au):  <R**2>=            268.8064
 Charge=             -0.0000 electrons
 Dipole moment (field-independent basis, Debye):
    X=             -1.0243    Y=             -3.3215    Z=             -0.0000  Tot=              3.4758
 Quadrupole moment (field-independent basis, Debye-Ang):
   XX=             -9.2309   YY=             -8.0191   ZZ=            -14.7302
   XY=             -4.4336   XZ=              0.0000   YZ=             -0.0000
 Traceless Quadrupole moment (field-independent basis, Debye-Ang):
   XX=              1.4292   YY=              2.6410   ZZ=             -4.0702
   XY=             -4.4336   XZ=              0.0000   YZ=             -0.0000
 Octapole moment (field-independent basis, Debye-Ang**2):
  XXX=             -0.3190  YYY=            -27.9112  ZZZ=             -0.0000  XYY=             -9.6337
  XXY=             -2.9516  XXZ=             -0.0000  XZZ=             -0.1339  YZZ=             -0.5192
  YYZ=             -0.0000  XYZ=             -0.0000
 Hexadecapole moment (field-independent basis, Debye-Ang**3):
 XXXX=            -10.8161 YYYY=           -206.7341 ZZZZ=            -11.3799 XXXY=             -3.0068
 XXXZ=             -0.0000 YYYX=            -12.6868 YYYZ=             -0.0000 ZZZX=             -0.0000
 ZZZY=              0.0000 XXYY=            -28.1035 XXZZ=             -4.4493 YYZZ=            -51.7898
 XXYZ=             -0.0000 YYXZ=              0.0000 ZZXY=              1.1751
 N-N= 3.269648620781D+01 E-N=-4.268095961262D+02  KE= 1.517931089140D+02
 Symmetry A'   KE= 1.427610288883D+02
 Symmetry A"   KE= 9.032080025793D+00
 Leave Link  601 at Sun Aug 28 02:47:56 2022, MaxMem=   536870912 cpu:               0.3 elap:               0.1
 (Enter /usr/site/hpc/x86_64/glibc-2.17/broadwell/gaussian/g16_a.03/pgi-16.5/g16/l9999.exe)
 1\1\GINC-N002\SP\RCCSD(T)-FC\CC-pVTZ\H4O2\ROOT\28-Aug-2022\0\\#p CCSD(
 T)/cc-pVTZ\\H2O_H2O_1919\\0,1\O,0,0.,-0.009833,0.\H,0,-0.799571,-0.580
 965,0.\H,0,0.799571,-0.580965,0.\O,0,-2.903492,-2.070468,0.\H,0,-3.701
 328,-1.496914,0.\H,0,-3.187301,-3.01119,0.\\Version=ES64L-G16RevA.03\S
 tate=1-A'\HF=-152.1126519\MP2=-152.639124\MP3=-152.6464836\MP4D=-152.6
 555644\MP4DQ=-152.6479874\MP4SDQ=-152.6510689\CCSD=-152.6504603\CCSD(T
 )=-152.6661788\RMSD=6.368e-09\PG=CS [SG(H4O2)]\\@


 IF I HAVE SEEN FARTHER, IT IS BY STANDING ON THE
 SHOULDERS OF GIANTS. -- SIR ISAAC NEWTON
 Job cpu time:       0 days  0 hours  1 minutes 39.0 seconds.
 Elapsed time:       0 days  0 hours  0 minutes 26.1 seconds.
 File lengths (MBytes):  RWF=    352 Int=      0 D2E=      0 Chk=      8 Scr=      8
 Normal termination of Gaussian 16 at Sun Aug 28 02:47:56 2022.
