 Entering Gaussian System, Link 0=g16
 Input=H2O_H2O_1931.com
 Output=H2O_H2O_1931.log
 Initial command:
 /usr/site/hpc/x86_64/glibc-2.17/broadwell/gaussian/g16_a.03/pgi-16.5/g16/l1.exe "/gpfs/gpfs1/scratch/c7441284/ForceFieldModel/FittingData2/Gau-947998.inp" -scrdir="/gpfs/gpfs1/scratch/c7441284/ForceFieldModel/FittingData2/"
 Entering Link 1 = /usr/site/hpc/x86_64/glibc-2.17/broadwell/gaussian/g16_a.03/pgi-16.5/g16/l1.exe PID=    947999.
  
 Copyright (c) 1988,1990,1992,1993,1995,1998,2003,2009,2016,
            Gaussian, Inc.  All Rights Reserved.
  
 This is part of the Gaussian(R) 16 program.  It is based on
 the Gaussian(R) 09 system (copyright 2009, Gaussian, Inc.),
 the Gaussian(R) 03 system (copyright 2003, Gaussian, Inc.),
 the Gaussian(R) 98 system (copyright 1998, Gaussian, Inc.),
 the Gaussian(R) 94 system (copyright 1995, Gaussian, Inc.),
 the Gaussian 92(TM) system (copyright 1992, Gaussian, Inc.),
 the Gaussian 90(TM) system (copyright 1990, Gaussian, Inc.),
 the Gaussian 88(TM) system (copyright 1988, Gaussian, Inc.),
 the Gaussian 86(TM) system (copyright 1986, Carnegie Mellon
 University), and the Gaussian 82(TM) system (copyright 1983,
 Carnegie Mellon University). Gaussian is a federally registered
 trademark of Gaussian, Inc.
  
 This software contains proprietary and confidential information,
 including trade secrets, belonging to Gaussian, Inc.
  
 This software is provided under written license and may be
 used, copied, transmitted, or stored only in accord with that
 written license.
  
 The following legend is applicable only to US Government
 contracts under FAR:
  
                    RESTRICTED RIGHTS LEGEND
  
 Use, reproduction and disclosure by the US Government is
 subject to restrictions as set forth in subparagraphs (a)
 and (c) of the Commercial Computer Software - Restricted
 Rights clause in FAR 52.227-19.
  
 Gaussian, Inc.
 340 Quinnipiac St., Bldg. 40, Wallingford CT 06492
  
  
 ---------------------------------------------------------------
 Warning -- This program may not be used in any manner that
 competes with the business of Gaussian, Inc. or will provide
 assistance to any competitor of Gaussian, Inc.  The licensee
 of this program is prohibited from giving any competitor of
 Gaussian, Inc. access to this program.  By using this program,
 the user acknowledges that Gaussian, Inc. is engaged in the
 business of creating and licensing software in the field of
 computational chemistry and represents and warrants to the
 licensee that it is not a competitor of Gaussian, Inc. and that
 it will not use this program in any manner prohibited above.
 ---------------------------------------------------------------
  

 Cite this work as:
 Gaussian 16, Revision A.03,
 M. J. Frisch, G. W. Trucks, H. B. Schlegel, G. E. Scuseria, 
 M. A. Robb, J. R. Cheeseman, G. Scalmani, V. Barone, 
 G. A. Petersson, H. Nakatsuji, X. Li, M. Caricato, A. V. Marenich, 
 J. Bloino, B. G. Janesko, R. Gomperts, B. Mennucci, H. P. Hratchian, 
 J. V. Ortiz, A. F. Izmaylov, J. L. Sonnenberg, D. Williams-Young, 
 F. Ding, F. Lipparini, F. Egidi, J. Goings, B. Peng, A. Petrone, 
 T. Henderson, D. Ranasinghe, V. G. Zakrzewski, J. Gao, N. Rega, 
 G. Zheng, W. Liang, M. Hada, M. Ehara, K. Toyota, R. Fukuda, 
 J. Hasegawa, M. Ishida, T. Nakajima, Y. Honda, O. Kitao, H. Nakai, 
 T. Vreven, K. Throssell, J. A. Montgomery, Jr., J. E. Peralta, 
 F. Ogliaro, M. J. Bearpark, J. J. Heyd, E. N. Brothers, K. N. Kudin, 
 V. N. Staroverov, T. A. Keith, R. Kobayashi, J. Normand, 
 K. Raghavachari, A. P. Rendell, J. C. Burant, S. S. Iyengar, 
 J. Tomasi, M. Cossi, J. M. Millam, M. Klene, C. Adamo, R. Cammi, 
 J. W. Ochterski, R. L. Martin, K. Morokuma, O. Farkas, 
 J. B. Foresman, and D. J. Fox, Gaussian, Inc., Wallingford CT, 2016.
 
 ******************************************
 Gaussian 16:  ES64L-G16RevA.03 25-Dec-2016
                28-Aug-2022 
 ******************************************
 %NProcShared=4
 Will use up to    4 processors via shared memory.
 %Mem=4GB
 %Chk=H2O_H2O_1931.chk
 ------------------
 #p CCSD(T)/cc-pVTZ
 ------------------
 1/38=1,172=1/1;
 2/12=2,17=6,18=5,40=1/2;
 3/5=16,6=1,11=9,25=1,30=1/1,2,3;
 4//1;
 5/5=2,38=5/2;
 8/6=4,9=120000,10=1/1,4;
 9/5=7,14=2/13;
 6/7=2,8=2,9=2,10=2/1;
 99/5=1,9=1/99;
 Leave Link    1 at Sun Aug 28 02:52:21 2022, MaxMem=   536870912 cpu:               0.3 elap:               0.1
 (Enter /usr/site/hpc/x86_64/glibc-2.17/broadwell/gaussian/g16_a.03/pgi-16.5/g16/l101.exe)
 ------------
 H2O_H2O_1931
 ------------
 Symbolic Z-matrix:
 Charge =  0 Multiplicity = 1
 O                     0.       -0.00983   0. 
 H                    -0.79957  -0.58097   0. 
 H                     0.79957  -0.58097   0. 
 O                    -2.91417  -2.08798   0. 
 H                    -3.87144  -2.30966   0. 
 H                    -2.39403  -2.92162   0. 
 
 ITRead=  0  0  0  0  0  0
 MicOpt= -1 -1 -1 -1 -1 -1
 NAtoms=      6 NQM=        6 NQMF=       0 NMMI=      0 NMMIF=      0
                NMic=       0 NMicF=      0.
                    Isotopes and Nuclear Properties:
 (Nuclear quadrupole moments (NQMom) in fm**2, nuclear magnetic moments (NMagM)
  in nuclear magnetons)

  Atom         1           2           3           4           5           6
 IAtWgt=          16           1           1          16           1           1
 AtmWgt=  15.9949146   1.0078250   1.0078250  15.9949146   1.0078250   1.0078250
 NucSpn=           0           1           1           0           1           1
 AtZEff=  -0.0000000  -0.0000000  -0.0000000  -0.0000000  -0.0000000  -0.0000000
 NQMom=    0.0000000   0.0000000   0.0000000   0.0000000   0.0000000   0.0000000
 NMagM=    0.0000000   2.7928460   2.7928460   0.0000000   2.7928460   2.7928460
 AtZNuc=   8.0000000   1.0000000   1.0000000   8.0000000   1.0000000   1.0000000
 Leave Link  101 at Sun Aug 28 02:52:22 2022, MaxMem=   536870912 cpu:               0.6 elap:               0.2
 (Enter /usr/site/hpc/x86_64/glibc-2.17/broadwell/gaussian/g16_a.03/pgi-16.5/g16/l202.exe)
                          Input orientation:                          
 ---------------------------------------------------------------------
 Center     Atomic      Atomic             Coordinates (Angstroms)
 Number     Number       Type             X           Y           Z
 ---------------------------------------------------------------------
      1          8           0        0.000000   -0.009833    0.000000
      2          1           0       -0.799571   -0.580965    0.000000
      3          1           0        0.799571   -0.580965    0.000000
      4          8           0       -2.914173   -2.087984    0.000000
      5          1           0       -3.871443   -2.309658    0.000000
      6          1           0       -2.394028   -2.921624    0.000000
 ---------------------------------------------------------------------
                    Distance matrix (angstroms):
                    1          2          3          4          5
     1  O    0.000000
     2  H    0.982601   0.000000
     3  H    0.982601   1.599142   0.000000
     4  O    3.579262   2.596661   4.007867   0.000000
     5  H    4.503029   3.524880   4.980638   0.982601   0.000000
     6  H    3.769602   2.832133   3.959515   0.982602   1.599143
                    6
     6  H    0.000000
 Stoichiometry    H4O2
 Framework group  CS[SG(H4O2)]
 Deg. of freedom     9
 Full point group                 CS      NOp   2
 Largest Abelian subgroup         CS      NOp   2
 Largest concise Abelian subgroup C1      NOp   1
                         Standard orientation:                         
 ---------------------------------------------------------------------
 Center     Atomic      Atomic             Coordinates (Angstroms)
 Number     Number       Type             X           Y           Z
 ---------------------------------------------------------------------
      1          8           0        0.076772    1.871223   -0.000000
      2          1           0        0.076004    0.888621   -0.000000
      3          1           0       -0.852472    2.190615   -0.000000
      4          8           0        0.076772   -1.708039    0.000000
      5          1           0        0.452088   -2.616138    0.000000
      6          1           0       -0.903964   -1.768565    0.000000
 ---------------------------------------------------------------------
 Rotational constants (GHZ):         265.7177888           4.2713558           4.2037809
 Leave Link  202 at Sun Aug 28 02:52:22 2022, MaxMem=   536870912 cpu:               0.0 elap:               0.0
 (Enter /usr/site/hpc/x86_64/glibc-2.17/broadwell/gaussian/g16_a.03/pgi-16.5/g16/l301.exe)
 Standard basis: CC-pVTZ (5D, 7F)
 Ernie: Thresh=  0.10000D-02 Tol=  0.10000D-05 Strict=F.
 Ernie:  6 primitive shells out of 84 were deleted.
 There are    92 symmetry adapted cartesian basis functions of A'  symmetry.
 There are    38 symmetry adapted cartesian basis functions of A"  symmetry.
 There are    80 symmetry adapted basis functions of A'  symmetry.
 There are    36 symmetry adapted basis functions of A"  symmetry.
   116 basis functions,   172 primitive gaussians,   130 cartesian basis functions
    10 alpha electrons       10 beta electrons
       nuclear repulsion energy        32.6840802660 Hartrees.
 IExCor=    0 DFT=F Ex=HF Corr=None ExCW=0 ScaHFX=  1.000000
 ScaDFX=  1.000000  1.000000  1.000000  1.000000 ScalE2=  1.000000  1.000000
 IRadAn=      5 IRanWt=     -1 IRanGd=            0 ICorTp=0 IEmpDi=  4
 NAtoms=    6 NActive=    6 NUniq=    6 SFac= 1.00D+00 NAtFMM=   60 NAOKFM=F Big=F
 Integral buffers will be    131072 words long.
 Raffenetti 1 integral format.
 Two-electron integral symmetry is turned on.
 Leave Link  301 at Sun Aug 28 02:52:22 2022, MaxMem=   536870912 cpu:               0.2 elap:               0.0
 (Enter /usr/site/hpc/x86_64/glibc-2.17/broadwell/gaussian/g16_a.03/pgi-16.5/g16/l302.exe)
 NPDir=0 NMtPBC=     1 NCelOv=     1 NCel=       1 NClECP=     1 NCelD=      1
         NCelK=      1 NCelE2=     1 NClLst=     1 CellRange=     0.0.
 One-electron integrals computed using PRISM.
 One-electron integral symmetry used in STVInt
 NBasis=   116 RedAO= T EigKep=  2.34D-03  NBF=    80    36
 NBsUse=   116 1.00D-06 EigRej= -1.00D+00 NBFU=    80    36
 Leave Link  302 at Sun Aug 28 02:52:22 2022, MaxMem=   536870912 cpu:               0.5 elap:               0.1
 (Enter /usr/site/hpc/x86_64/glibc-2.17/broadwell/gaussian/g16_a.03/pgi-16.5/g16/l303.exe)
 DipDrv:  MaxL=1.
 Leave Link  303 at Sun Aug 28 02:52:22 2022, MaxMem=   536870912 cpu:               0.2 elap:               0.0
 (Enter /usr/site/hpc/x86_64/glibc-2.17/broadwell/gaussian/g16_a.03/pgi-16.5/g16/l401.exe)
 ExpMin= 1.03D-01 ExpMax= 1.53D+04 ExpMxC= 5.22D+02 IAcc=3 IRadAn=         5 AccDes= 0.00D+00
 Harris functional with IExCor=  205 and IRadAn=       5 diagonalized for initial guess.
 HarFok:  IExCor=  205 AccDes= 0.00D+00 IRadAn=         5 IDoV= 1 UseB2=F ITyADJ=14
 ICtDFT=  3500011 ScaDFX=  1.000000  1.000000  1.000000  1.000000
 FoFCou: FMM=F IPFlag=           0 FMFlag=      100000 FMFlg1=           0
         NFxFlg=           0 DoJE=T BraDBF=F KetDBF=T FulRan=T
         wScrn=  0.000000 ICntrl=       500 IOpCl=  0 I1Cent=   200000004 NGrid=           0
         NMat0=    1 NMatS0=      1 NMatT0=    0 NMatD0=    1 NMtDS0=    0 NMtDT0=    0
 Petite list used in FoFCou.
 Harris En= -152.300040761762    
 JPrj=0 DoOrth=F DoCkMO=F.
 Initial guess orbital symmetries:
       Occupied  (A') (A') (A') (A') (A') (A') (A') (A') (A") (A")
       Virtual   (A') (A') (A') (A') (A') (A') (A') (A') (A') (A")
                 (A') (A") (A') (A') (A') (A") (A") (A') (A") (A")
                 (A') (A') (A') (A') (A') (A') (A') (A') (A") (A")
                 (A") (A") (A') (A') (A') (A') (A') (A') (A') (A')
                 (A') (A') (A") (A") (A') (A') (A") (A") (A") (A")
                 (A') (A') (A') (A') (A') (A") (A') (A") (A') (A')
                 (A') (A") (A") (A') (A") (A") (A') (A') (A') (A')
                 (A") (A") (A') (A') (A') (A') (A') (A') (A') (A')
                 (A") (A") (A') (A') (A") (A") (A") (A") (A') (A')
                 (A") (A") (A') (A') (A') (A') (A") (A") (A') (A')
                 (A') (A') (A') (A') (A') (A')
 The electronic state of the initial guess is 1-A'.
 Leave Link  401 at Sun Aug 28 02:52:22 2022, MaxMem=   536870912 cpu:               0.8 elap:               0.2
 (Enter /usr/site/hpc/x86_64/glibc-2.17/broadwell/gaussian/g16_a.03/pgi-16.5/g16/l502.exe)
 Keep R1 ints in memory in symmetry-blocked form, NReq=34823457.
 FoFCou: FMM=F IPFlag=           0 FMFlag=           0 FMFlg1=           0
         NFxFlg=           0 DoJE=F BraDBF=F KetDBF=F FulRan=T
         wScrn=  0.000000 ICntrl=       600 IOpCl=  0 I1Cent=           0 NGrid=           0
         NMat0=    1 NMatS0=   6786 NMatT0=    0 NMatD0=    1 NMtDS0=    0 NMtDT0=    0
 Petite list used in FoFCou.
 Closed shell SCF:
 Using DIIS extrapolation, IDIIS=  1040.
 NGot=   536870912 LenX=   525040673 LenY=   525023332
 Requested convergence on RMS density matrix=1.00D-08 within 128 cycles.
 Requested convergence on MAX density matrix=1.00D-06.
 Requested convergence on             energy=1.00D-06.
 No special actions if energy rises.

 Cycle   1  Pass 1  IDiag  1:
 E= -151.935603901126    
 DIIS: error= 6.58D-02 at cycle   1 NSaved=   1.
 NSaved= 1 IEnMin= 1 EnMin= -151.935603901126     IErMin= 1 ErrMin= 6.58D-02
 ErrMax= 6.58D-02  0.00D+00 EMaxC= 1.00D-01 BMatC= 3.95D-01 BMatP= 3.95D-01
 IDIUse=3 WtCom= 3.42D-01 WtEn= 6.58D-01
 Coeff-Com:  0.100D+01
 Coeff-En:   0.100D+01
 Coeff:      0.100D+01
 Gap=     0.501 Goal=   None    Shift=    0.000
 GapD=    0.501 DampG=2.000 DampE=0.500 DampFc=1.0000 IDamp=-1.
 RMSDP=2.55D-03 MaxDP=6.78D-02              OVMax= 1.24D-01

 Cycle   2  Pass 1  IDiag  1:
 E= -152.044844355537     Delta-E=       -0.109240454411 Rises=F Damp=F
 DIIS: error= 4.10D-02 at cycle   2 NSaved=   2.
 NSaved= 2 IEnMin= 2 EnMin= -152.044844355537     IErMin= 2 ErrMin= 4.10D-02
 ErrMax= 4.10D-02  0.00D+00 EMaxC= 1.00D-01 BMatC= 1.09D-01 BMatP= 3.95D-01
 IDIUse=3 WtCom= 5.90D-01 WtEn= 4.10D-01
 Coeff-Com:  0.316D+00 0.684D+00
 Coeff-En:   0.163D+00 0.837D+00
 Coeff:      0.253D+00 0.747D+00
 Gap=     0.628 Goal=   None    Shift=    0.000
 RMSDP=1.37D-03 MaxDP=3.97D-02 DE=-1.09D-01 OVMax= 5.67D-02

 Cycle   3  Pass 1  IDiag  1:
 E= -152.107279021778     Delta-E=       -0.062434666241 Rises=F Damp=F
 DIIS: error= 9.08D-03 at cycle   3 NSaved=   3.
 NSaved= 3 IEnMin= 3 EnMin= -152.107279021778     IErMin= 3 ErrMin= 9.08D-03
 ErrMax= 9.08D-03  0.00D+00 EMaxC= 1.00D-01 BMatC= 5.98D-03 BMatP= 1.09D-01
 IDIUse=3 WtCom= 9.09D-01 WtEn= 9.08D-02
 Coeff-Com: -0.303D-01 0.158D+00 0.872D+00
 Coeff-En:   0.000D+00 0.000D+00 0.100D+01
 Coeff:     -0.276D-01 0.144D+00 0.884D+00
 Gap=     0.600 Goal=   None    Shift=    0.000
 RMSDP=2.51D-04 MaxDP=5.84D-03 DE=-6.24D-02 OVMax= 1.33D-02

 Cycle   4  Pass 1  IDiag  1:
 E= -152.110983642004     Delta-E=       -0.003704620226 Rises=F Damp=F
 DIIS: error= 8.32D-04 at cycle   4 NSaved=   4.
 NSaved= 4 IEnMin= 4 EnMin= -152.110983642004     IErMin= 4 ErrMin= 8.32D-04
 ErrMax= 8.32D-04  0.00D+00 EMaxC= 1.00D-01 BMatC= 3.64D-05 BMatP= 5.98D-03
 IDIUse=3 WtCom= 9.92D-01 WtEn= 8.32D-03
 Coeff-Com:  0.672D-02-0.614D-01-0.235D+00 0.129D+01
 Coeff-En:   0.000D+00 0.000D+00 0.000D+00 0.100D+01
 Coeff:      0.667D-02-0.609D-01-0.233D+00 0.129D+01
 Gap=     0.603 Goal=   None    Shift=    0.000
 RMSDP=5.24D-05 MaxDP=1.00D-03 DE=-3.70D-03 OVMax= 2.41D-03

 Cycle   5  Pass 1  IDiag  1:
 E= -152.111033223088     Delta-E=       -0.000049581084 Rises=F Damp=F
 DIIS: error= 1.86D-04 at cycle   5 NSaved=   5.
 NSaved= 5 IEnMin= 5 EnMin= -152.111033223088     IErMin= 5 ErrMin= 1.86D-04
 ErrMax= 1.86D-04  0.00D+00 EMaxC= 1.00D-01 BMatC= 1.43D-06 BMatP= 3.64D-05
 IDIUse=3 WtCom= 9.98D-01 WtEn= 1.86D-03
 Coeff-Com:  0.866D-03-0.249D-02-0.147D-01-0.162D+00 0.118D+01
 Coeff-En:   0.000D+00 0.000D+00 0.000D+00 0.000D+00 0.100D+01
 Coeff:      0.864D-03-0.248D-02-0.147D-01-0.161D+00 0.118D+01
 Gap=     0.604 Goal=   None    Shift=    0.000
 RMSDP=1.44D-05 MaxDP=3.28D-04 DE=-4.96D-05 OVMax= 7.16D-04

 Cycle   6  Pass 1  IDiag  1:
 E= -152.111036035061     Delta-E=       -0.000002811973 Rises=F Damp=F
 DIIS: error= 3.41D-05 at cycle   6 NSaved=   6.
 NSaved= 6 IEnMin= 6 EnMin= -152.111036035061     IErMin= 6 ErrMin= 3.41D-05
 ErrMax= 3.41D-05  0.00D+00 EMaxC= 1.00D-01 BMatC= 1.08D-07 BMatP= 1.43D-06
 IDIUse=1 WtCom= 1.00D+00 WtEn= 0.00D+00
 Coeff-Com: -0.827D-04 0.208D-02 0.695D-02-0.978D-01 0.257D+00 0.832D+00
 Coeff:     -0.827D-04 0.208D-02 0.695D-02-0.978D-01 0.257D+00 0.832D+00
 Gap=     0.604 Goal=   None    Shift=    0.000
 RMSDP=2.69D-06 MaxDP=7.67D-05 DE=-2.81D-06 OVMax= 1.53D-04

 Cycle   7  Pass 1  IDiag  1:
 E= -152.111036174312     Delta-E=       -0.000000139251 Rises=F Damp=F
 DIIS: error= 9.23D-06 at cycle   7 NSaved=   7.
 NSaved= 7 IEnMin= 7 EnMin= -152.111036174312     IErMin= 7 ErrMin= 9.23D-06
 ErrMax= 9.23D-06  0.00D+00 EMaxC= 1.00D-01 BMatC= 1.01D-08 BMatP= 1.08D-07
 IDIUse=1 WtCom= 1.00D+00 WtEn= 0.00D+00
 Coeff-Com: -0.107D-03 0.419D-03 0.194D-02 0.137D-01-0.140D+00 0.736D-01
 Coeff-Com:  0.105D+01
 Coeff:     -0.107D-03 0.419D-03 0.194D-02 0.137D-01-0.140D+00 0.736D-01
 Coeff:      0.105D+01
 Gap=     0.604 Goal=   None    Shift=    0.000
 RMSDP=1.26D-06 MaxDP=3.60D-05 DE=-1.39D-07 OVMax= 6.89D-05

 Cycle   8  Pass 1  IDiag  1:
 E= -152.111036192737     Delta-E=       -0.000000018425 Rises=F Damp=F
 DIIS: error= 2.24D-06 at cycle   8 NSaved=   8.
 NSaved= 8 IEnMin= 8 EnMin= -152.111036192737     IErMin= 8 ErrMin= 2.24D-06
 ErrMax= 2.24D-06  0.00D+00 EMaxC= 1.00D-01 BMatC= 4.27D-10 BMatP= 1.01D-08
 IDIUse=1 WtCom= 1.00D+00 WtEn= 0.00D+00
 Coeff-Com:  0.249D-04-0.221D-03-0.878D-03 0.449D-02 0.907D-02-0.596D-01
 Coeff-Com: -0.174D+00 0.122D+01
 Coeff:      0.249D-04-0.221D-03-0.878D-03 0.449D-02 0.907D-02-0.596D-01
 Coeff:     -0.174D+00 0.122D+01
 Gap=     0.604 Goal=   None    Shift=    0.000
 RMSDP=2.19D-07 MaxDP=3.82D-06 DE=-1.84D-08 OVMax= 1.45D-05

 Cycle   9  Pass 1  IDiag  1:
 E= -152.111036193686     Delta-E=       -0.000000000949 Rises=F Damp=F
 DIIS: error= 7.34D-07 at cycle   9 NSaved=   9.
 NSaved= 9 IEnMin= 9 EnMin= -152.111036193686     IErMin= 9 ErrMin= 7.34D-07
 ErrMax= 7.34D-07  0.00D+00 EMaxC= 1.00D-01 BMatC= 2.54D-11 BMatP= 4.27D-10
 IDIUse=1 WtCom= 1.00D+00 WtEn= 0.00D+00
 Coeff-Com:  0.145D-05 0.266D-04 0.106D-03-0.240D-02 0.847D-02 0.102D-01
 Coeff-Com: -0.328D-01-0.279D+00 0.129D+01
 Coeff:      0.145D-05 0.266D-04 0.106D-03-0.240D-02 0.847D-02 0.102D-01
 Coeff:     -0.328D-01-0.279D+00 0.129D+01
 Gap=     0.604 Goal=   None    Shift=    0.000
 RMSDP=5.83D-08 MaxDP=9.52D-07 DE=-9.49D-10 OVMax= 3.12D-06

 Cycle  10  Pass 1  IDiag  1:
 E= -152.111036193742     Delta-E=       -0.000000000056 Rises=F Damp=F
 DIIS: error= 8.98D-08 at cycle  10 NSaved=  10.
 NSaved=10 IEnMin=10 EnMin= -152.111036193742     IErMin=10 ErrMin= 8.98D-08
 ErrMax= 8.98D-08  0.00D+00 EMaxC= 1.00D-01 BMatC= 4.34D-13 BMatP= 2.54D-11
 IDIUse=1 WtCom= 1.00D+00 WtEn= 0.00D+00
 Coeff-Com: -0.674D-06-0.592D-07-0.210D-05 0.293D-03-0.127D-02-0.965D-03
 Coeff-Com:  0.650D-02 0.383D-01-0.272D+00 0.123D+01
 Coeff:     -0.674D-06-0.592D-07-0.210D-05 0.293D-03-0.127D-02-0.965D-03
 Coeff:      0.650D-02 0.383D-01-0.272D+00 0.123D+01
 Gap=     0.604 Goal=   None    Shift=    0.000
 RMSDP=6.83D-09 MaxDP=1.56D-07 DE=-5.59D-11 OVMax= 3.92D-07

 SCF Done:  E(RHF) =  -152.111036194     A.U. after   10 cycles
            NFock= 10  Conv=0.68D-08     -V/T= 2.0021
 KE= 1.517951931949D+02 PE=-4.267472464371D+02 EE= 9.015693678246D+01
 Leave Link  502 at Sun Aug 28 02:52:23 2022, MaxMem=   536870912 cpu:               4.2 elap:               1.2
 (Enter /usr/site/hpc/x86_64/glibc-2.17/broadwell/gaussian/g16_a.03/pgi-16.5/g16/l801.exe)
 Windowed orbitals will be sorted by symmetry type.
 ExpMin= 1.03D-01 ExpMax= 1.53D+04 ExpMxC= 5.22D+02 IAcc=3 IRadAn=         5 AccDes= 0.00D+00
 HarFok:  IExCor=  205 AccDes= 0.00D+00 IRadAn=         5 IDoV=-2 UseB2=F ITyADJ=14
 ICtDFT= 12500011 ScaDFX=  1.000000  1.000000  1.000000  1.000000
 Largest valence mixing into a core orbital is  1.12D-04
 Largest core mixing into a valence orbital is  1.77D-05
 Range of M.O.s used for correlation:     3   116
 NBasis=   116 NAE=    10 NBE=    10 NFC=     2 NFV=     0
 NROrb=    114 NOA=     8 NOB=     8 NVA=   106 NVB=   106
 Leave Link  801 at Sun Aug 28 02:52:23 2022, MaxMem=   536870912 cpu:               0.3 elap:               0.1
 (Enter /usr/site/hpc/x86_64/glibc-2.17/broadwell/gaussian/g16_a.03/pgi-16.5/g16/l804.exe)
 Closed-shell transformation, MDV=   536870912 ITran=4 ISComp=2.
 Unit  1 TFree=        834515 TCopy=        406125.
 Semi-Direct transformation.
 ModeAB=           4 MOrb=             8 LenV=     536366556
 LASXX=      2873146 LTotXX=     2873146 LenRXX=     5831278
 LTotAB=     2958132 MaxLAS=     7129104 LenRXY=           0
 NonZer=     8704424 LenScr=    13107200 LnRSAI=     7129104
 LnScr1=    11010048 LExtra=           0 Total=     37077630
 MaxDsk=          -1 SrtSym=           T ITran=            4
 DoSDTr:  NPSUse=  4
 JobTyp=0 Pass  1:  I=   1 to   8.
 (rs|ai) integrals will be sorted in core.
 Complete sort for first half transformation.
 First half transformation complete.
 Complete sort for second half transformation.
 Second half transformation complete.
 Spin components of T(2) and E(2):
     alpha-alpha T2 =       0.1563999824D-01 E2=     -0.6401510734D-01
     alpha-beta  T2 =       0.9199549841D-01 E2=     -0.3986052332D+00
     beta-beta   T2 =       0.1563999824D-01 E2=     -0.6401510734D-01
 ANorm=    0.1059846920D+01
 E2 =    -0.5266354479D+00 EUMP2 =    -0.15263767164163D+03
 Leave Link  804 at Sun Aug 28 02:52:25 2022, MaxMem=   536870912 cpu:               5.1 elap:               1.4
 (Enter /usr/site/hpc/x86_64/glibc-2.17/broadwell/gaussian/g16_a.03/pgi-16.5/g16/l913.exe)
 CIDS:  MDV=   536870912.
 Frozen-core window:  NFC=   2 NFV=   0.
 IFCWin=0 IBDFC=1 NFBD=     0     0 NFCmp=     0     0 NFFFC=     0     0
 Using DD3R+UMP44R for 1st iteration.
 Using DD4RQ for 2nd and later iterations.
 Keep R2 and R3 ints in memory in symmetry-blocked form, NReq=35357534.
 FoFCou: FMM=F IPFlag=           0 FMFlag=           0 FMFlg1=           0
         NFxFlg=           0 DoJE=F BraDBF=F KetDBF=F FulRan=T
         wScrn=  0.000000 ICntrl=       600 IOpCl=  0 I1Cent=           0 NGrid=           0
         NMat0=    1 NMatS0=   6786 NMatT0=    0 NMatD0=    1 NMtDS0=    0 NMtDT0=    0
 Petite list used in FoFCou.
 CIDS: In Core Option IDoMem=           1.
 CCSD(T)
 =======
 Iterations=  50 Convergence= 0.100D-06
 Produce multiple copies of IABC intergrals
 Iteration Nr.   1
 **********************
 DD1Dir will call FoFMem   1 times, MxPair=        72
 NAB=    36 NAA=     0 NBB=     0.
 MP4(R+Q)=  0.75907110D-02
 Maximum subspace dimension=  5
 A-vector RMS=  1.7862774D-03 Max=  5.8377745D-03 conv= 1.00D-05.
 RLE energy=       -0.5263179103
 E3=       -0.73428465D-02        EUMP3=      -0.15264501449D+03
 E4(DQ)=   -0.15092538D-02        UMP4(DQ)=   -0.15264652374D+03
 E4(SDQ)=  -0.46100563D-02        UMP4(SDQ)=  -0.15264962454D+03
 VARIATIONAL ENERGIES WITH THE FIRST-ORDER WAVEFUNCTION:
 DE(Corr)= -0.52631773     E(Corr)=     -152.63735392    
 NORM(A)=   0.10601393D+01
 Iteration Nr.   2
 **********************
 DD1Dir will call FoFMem   1 times, MxPair=        72
 NAB=    36 NAA=     0 NBB=     0.
 A-vector RMS=  2.1289386D-04 Max=  2.0952484D-03 conv= 1.00D-05.
 RLE energy=       -0.5373887693
 DE(Corr)= -0.53625543     E(CORR)=     -152.64729162     Delta=-9.94D-03
 NORM(A)=   0.10638928D+01
 Iteration Nr.   3
 **********************
 DD1Dir will call FoFMem   1 times, MxPair=        72
 NAB=    36 NAA=     0 NBB=     0.
 A-vector RMS=  1.5332527D-04 Max=  9.2388614D-04 conv= 1.00D-05.
 RLE energy=       -0.5378863825
 DE(Corr)= -0.53729655     E(CORR)=     -152.64833274     Delta=-1.04D-03
 NORM(A)=   0.10645293D+01
 Iteration Nr.   4
 **********************
 DD1Dir will call FoFMem   1 times, MxPair=        72
 NAB=    36 NAA=     0 NBB=     0.
 A-vector RMS=  3.1065243D-05 Max=  1.3574604D-04 conv= 1.00D-05.
 RLE energy=       -0.5379660868
 DE(Corr)= -0.53793211     E(CORR)=     -152.64896830     Delta=-6.36D-04
 NORM(A)=   0.10646405D+01
 Iteration Nr.   5
 **********************
 DD1Dir will call FoFMem   1 times, MxPair=        72
 NAB=    36 NAA=     0 NBB=     0.
 A-vector RMS=  1.9898196D-05 Max=  1.8713876D-04 conv= 1.00D-05.
 RLE energy=       -0.5379778993
 DE(Corr)= -0.53797044     E(CORR)=     -152.64900664     Delta=-3.83D-05
 NORM(A)=   0.10646526D+01
 Iteration Nr.   6
 **********************
 DD1Dir will call FoFMem   1 times, MxPair=        72
 NAB=    36 NAA=     0 NBB=     0.
 A-vector RMS=  6.1164367D-06 Max=  4.4934301D-05 conv= 1.00D-05.
 RLE energy=       -0.5379698345
 DE(Corr)= -0.53797413     E(CORR)=     -152.64901032     Delta=-3.68D-06
 NORM(A)=   0.10646522D+01
 Iteration Nr.   7
 **********************
 DD1Dir will call FoFMem   1 times, MxPair=        72
 NAB=    36 NAA=     0 NBB=     0.
 A-vector RMS=  2.7937206D-06 Max=  2.8022499D-05 conv= 1.00D-05.
 RLE energy=       -0.5379735866
 DE(Corr)= -0.53797432     E(CORR)=     -152.64901052     Delta=-1.96D-07
 NORM(A)=   0.10646538D+01
 Iteration Nr.   8
 **********************
 DD1Dir will call FoFMem   1 times, MxPair=        72
 NAB=    36 NAA=     0 NBB=     0.
 A-vector RMS=  1.0838906D-06 Max=  8.8609806D-06 conv= 1.00D-05.
 RLE energy=       -0.5379736331
 DE(Corr)= -0.53797387     E(CORR)=     -152.64901007     Delta= 4.50D-07
 NORM(A)=   0.10646541D+01
 Iteration Nr.   9
 **********************
 DD1Dir will call FoFMem   1 times, MxPair=        72
 NAB=    36 NAA=     0 NBB=     0.
 A-vector RMS=  2.2789809D-07 Max=  2.8365977D-06 conv= 1.00D-05.
 RLE energy=       -0.5379738925
 DE(Corr)= -0.53797396     E(CORR)=     -152.64901016     Delta=-9.08D-08
 NORM(A)=   0.10646545D+01
 CI/CC converged in    9 iterations to DelEn=-9.08D-08 Conv= 1.00D-07 ErrA1= 2.28D-07 Conv= 1.00D-05
 Wavefunction amplitudes converged. E(Corr)=     -152.64901016    
 Largest amplitude= 4.38D-02
 IPart=  4 IA=    7   11.05% done.
 IPart=  4 IA=   13   21.46% done.
 IPart=  1 IA=   19   31.21% done.
 IPart=  2 IA=   25   40.32% done.
 IPart=  2 IA=   32   50.13% done.
 IPart=  2 IA=   40   60.27% done.
 IPart=  4 IA=   49   70.30% done.
 IPart=  4 IA=   60   80.58% done.
 IPart=  3 IA=   74   90.51% done.
 Time for triples=       49.09 seconds.
 T4(CCSD)= -0.16155691D-01
 T5(CCSD)=  0.41282035D-03
 CCSD(T)= -0.15266475303D+03
 Discarding MO integrals.
 Leave Link  913 at Sun Aug 28 02:52:43 2022, MaxMem=   536870912 cpu:              72.1 elap:              18.4
 (Enter /usr/site/hpc/x86_64/glibc-2.17/broadwell/gaussian/g16_a.03/pgi-16.5/g16/l601.exe)
 Copying SCF densities to generalized density rwf, IOpCl= 0 IROHF=0.

 **********************************************************************

            Population analysis using the SCF density.

 **********************************************************************

 Orbital symmetries:
       Occupied  (A') (A') (A') (A') (A') (A') (A') (A') (A") (A")
       Virtual   (A') (A') (A') (A') (A') (A') (A') (A') (A') (A')
                 (A") (A') (A") (A") (A') (A') (A") (A') (A") (A")
                 (A') (A') (A') (A') (A') (A') (A') (A') (A") (A")
                 (A") (A") (A') (A') (A') (A') (A') (A') (A') (A')
                 (A') (A') (A") (A") (A') (A") (A') (A") (A') (A')
                 (A") (A") (A') (A') (A') (A') (A") (A") (A") (A")
                 (A') (A') (A') (A') (A") (A") (A') (A') (A') (A')
                 (A") (A") (A') (A') (A') (A') (A') (A') (A') (A')
                 (A") (A") (A') (A') (A") (A") (A") (A") (A') (A")
                 (A") (A') (A') (A') (A') (A") (A') (A") (A') (A')
                 (A') (A') (A') (A') (A') (A')
 The electronic state is 1-A'.
 Alpha  occ. eigenvalues --  -20.57409 -20.54053  -1.34683  -1.31398  -0.72125
 Alpha  occ. eigenvalues --   -0.68785  -0.58295  -0.54830  -0.51801  -0.48530
 Alpha virt. eigenvalues --    0.11870   0.16577   0.19556   0.26128   0.51353
 Alpha virt. eigenvalues --    0.55619   0.56374   0.58196   0.68998   0.73115
 Alpha virt. eigenvalues --    0.75960   0.78314   0.80492   0.83244   0.83561
 Alpha virt. eigenvalues --    0.85245   0.86511   0.87747   0.94941   1.00873
 Alpha virt. eigenvalues --    1.12191   1.16291   1.19728   1.21827   1.50153
 Alpha virt. eigenvalues --    1.51056   1.53266   1.71840   1.98783   2.02146
 Alpha virt. eigenvalues --    2.04902   2.08580   2.10096   2.11519   2.15394
 Alpha virt. eigenvalues --    2.19989   2.26767   2.34949   2.59835   2.64169
 Alpha virt. eigenvalues --    2.91626   2.96398   3.37640   3.40885   3.48174
 Alpha virt. eigenvalues --    3.51446   3.51552   3.54644   3.57819   3.61377
 Alpha virt. eigenvalues --    3.76814   3.80116   3.83392   3.85949   3.88266
 Alpha virt. eigenvalues --    3.91190   3.91817   3.94896   4.01810   4.05191
 Alpha virt. eigenvalues --    4.05480   4.11987   4.13658   4.22469   4.28382
 Alpha virt. eigenvalues --    4.31721   4.40518   4.42901   4.44642   4.52236
 Alpha virt. eigenvalues --    4.64872   4.68032   4.80590   4.85233   5.03010
 Alpha virt. eigenvalues --    5.07297   5.23134   5.26542   5.54291   5.56898
 Alpha virt. eigenvalues --    5.96011   5.99338   6.38600   6.42841   6.84286
 Alpha virt. eigenvalues --    6.87619   6.87813   6.91159   6.92151   6.97226
 Alpha virt. eigenvalues --    7.00588   7.02093   7.07699   7.09837   7.13230
 Alpha virt. eigenvalues --    7.16343   7.18038   7.19794   7.45609   7.50238
 Alpha virt. eigenvalues --    7.69764   7.72758   8.15296   8.18015  12.45832
 Alpha virt. eigenvalues --   12.79612
          Condensed to atoms (all electrons):
               1          2          3          4          5          6
     1  O    7.828961   0.351073   0.344066  -0.001595   0.000055   0.000468
     2  H    0.351073   0.408194  -0.039007   0.013359  -0.000635  -0.001418
     3  H    0.344066  -0.039007   0.450147  -0.000300   0.000010   0.000211
     4  O   -0.001595   0.013359  -0.000300   7.837166   0.329520   0.324690
     5  H    0.000055  -0.000635   0.000010   0.329520   0.436668  -0.025470
     6  H    0.000468  -0.001418   0.000211   0.324690  -0.025470   0.448811
 Mulliken charges:
               1
     1  O   -0.523029
     2  H    0.268436
     3  H    0.244873
     4  O   -0.502840
     5  H    0.259852
     6  H    0.252708
 Sum of Mulliken charges =  -0.00000
 Mulliken charges with hydrogens summed into heavy atoms:
               1
     1  O   -0.009720
     4  O    0.009720
 Electronic spatial extent (au):  <R**2>=            270.0655
 Charge=             -0.0000 electrons
 Dipole moment (field-independent basis, Debye):
    X=             -2.5896    Y=             -3.0762    Z=              0.0000  Tot=              4.0211
 Quadrupole moment (field-independent basis, Debye-Ang):
   XX=             -9.9744   YY=             -8.2823   ZZ=            -14.7236
   XY=             -3.1201   XZ=              0.0000   YZ=             -0.0000
 Traceless Quadrupole moment (field-independent basis, Debye-Ang):
   XX=              1.0190   YY=              2.7111   ZZ=             -3.7302
   XY=             -3.1201   XZ=              0.0000   YZ=             -0.0000
 Octapole moment (field-independent basis, Debye-Ang**2):
  XXX=             -3.5350  YYY=            -28.7160  ZZZ=              0.0000  XYY=             -8.1595
  XXY=             -1.6551  XXZ=              0.0000  XZZ=             -0.3349  YZZ=             -0.4740
  YYZ=              0.0000  XYZ=              0.0000
 Hexadecapole moment (field-independent basis, Debye-Ang**3):
 XXXX=            -11.4138 YYYY=           -199.4213 ZZZZ=            -11.3660 XXXY=              0.5874
 XXXZ=             -0.0000 YYYX=            -27.9406 YYYZ=              0.0000 ZZZX=             -0.0000
 ZZZY=              0.0000 XXYY=            -33.2966 XXZZ=             -4.4025 YYZZ=            -52.0547
 XXYZ=              0.0000 YYXZ=              0.0000 ZZXY=              0.4775
 N-N= 3.268408026596D+01 E-N=-4.267472456994D+02  KE= 1.517951931949D+02
 Symmetry A'   KE= 1.427589104253D+02
 Symmetry A"   KE= 9.036282769632D+00
 Leave Link  601 at Sun Aug 28 02:52:43 2022, MaxMem=   536870912 cpu:               0.2 elap:               0.0
 (Enter /usr/site/hpc/x86_64/glibc-2.17/broadwell/gaussian/g16_a.03/pgi-16.5/g16/l9999.exe)
 1\1\GINC-N002\SP\RCCSD(T)-FC\CC-pVTZ\H4O2\ROOT\28-Aug-2022\0\\#p CCSD(
 T)/cc-pVTZ\\H2O_H2O_1931\\0,1\O,0,0.,-0.009833,0.\H,0,-0.799571,-0.580
 965,0.\H,0,0.799571,-0.580965,0.\O,0,-2.914173,-2.087984,0.\H,0,-3.871
 443,-2.309658,0.\H,0,-2.394028,-2.921624,0.\\Version=ES64L-G16RevA.03\
 State=1-A'\HF=-152.1110362\MP2=-152.6376716\MP3=-152.6450145\MP4D=-152
 .6541145\MP4DQ=-152.6465237\MP4SDQ=-152.6496245\CCSD=-152.6490102\CCSD
 (T)=-152.664753\RMSD=6.834e-09\PG=CS [SG(H4O2)]\\@


 WHEN IT COMES TO CASH FLOW, IT SEEMS LIKE THE TIDE IS ALWAYS GOING OUT.
 Job cpu time:       0 days  0 hours  1 minutes 24.8 seconds.
 Elapsed time:       0 days  0 hours  0 minutes 21.8 seconds.
 File lengths (MBytes):  RWF=    352 Int=      0 D2E=      0 Chk=      8 Scr=      8
 Normal termination of Gaussian 16 at Sun Aug 28 02:52:43 2022.
