 Entering Gaussian System, Link 0=g16
 Input=H2O_H2O_1680.com
 Output=H2O_H2O_1680.log
 Initial command:
 /usr/site/hpc/x86_64/glibc-2.17/broadwell/gaussian/g16_a.03/pgi-16.5/g16/l1.exe "/gpfs/gpfs1/scratch/c7441284/ForceFieldModel/FittingData2/Gau-874537.inp" -scrdir="/gpfs/gpfs1/scratch/c7441284/ForceFieldModel/FittingData2/"
 Entering Link 1 = /usr/site/hpc/x86_64/glibc-2.17/broadwell/gaussian/g16_a.03/pgi-16.5/g16/l1.exe PID=    874538.
  
 Copyright (c) 1988,1990,1992,1993,1995,1998,2003,2009,2016,
            Gaussian, Inc.  All Rights Reserved.
  
 This is part of the Gaussian(R) 16 program.  It is based on
 the Gaussian(R) 09 system (copyright 2009, Gaussian, Inc.),
 the Gaussian(R) 03 system (copyright 2003, Gaussian, Inc.),
 the Gaussian(R) 98 system (copyright 1998, Gaussian, Inc.),
 the Gaussian(R) 94 system (copyright 1995, Gaussian, Inc.),
 the Gaussian 92(TM) system (copyright 1992, Gaussian, Inc.),
 the Gaussian 90(TM) system (copyright 1990, Gaussian, Inc.),
 the Gaussian 88(TM) system (copyright 1988, Gaussian, Inc.),
 the Gaussian 86(TM) system (copyright 1986, Carnegie Mellon
 University), and the Gaussian 82(TM) system (copyright 1983,
 Carnegie Mellon University). Gaussian is a federally registered
 trademark of Gaussian, Inc.
  
 This software contains proprietary and confidential information,
 including trade secrets, belonging to Gaussian, Inc.
  
 This software is provided under written license and may be
 used, copied, transmitted, or stored only in accord with that
 written license.
  
 The following legend is applicable only to US Government
 contracts under FAR:
  
                    RESTRICTED RIGHTS LEGEND
  
 Use, reproduction and disclosure by the US Government is
 subject to restrictions as set forth in subparagraphs (a)
 and (c) of the Commercial Computer Software - Restricted
 Rights clause in FAR 52.227-19.
  
 Gaussian, Inc.
 340 Quinnipiac St., Bldg. 40, Wallingford CT 06492
  
  
 ---------------------------------------------------------------
 Warning -- This program may not be used in any manner that
 competes with the business of Gaussian, Inc. or will provide
 assistance to any competitor of Gaussian, Inc.  The licensee
 of this program is prohibited from giving any competitor of
 Gaussian, Inc. access to this program.  By using this program,
 the user acknowledges that Gaussian, Inc. is engaged in the
 business of creating and licensing software in the field of
 computational chemistry and represents and warrants to the
 licensee that it is not a competitor of Gaussian, Inc. and that
 it will not use this program in any manner prohibited above.
 ---------------------------------------------------------------
  

 Cite this work as:
 Gaussian 16, Revision A.03,
 M. J. Frisch, G. W. Trucks, H. B. Schlegel, G. E. Scuseria, 
 M. A. Robb, J. R. Cheeseman, G. Scalmani, V. Barone, 
 G. A. Petersson, H. Nakatsuji, X. Li, M. Caricato, A. V. Marenich, 
 J. Bloino, B. G. Janesko, R. Gomperts, B. Mennucci, H. P. Hratchian, 
 J. V. Ortiz, A. F. Izmaylov, J. L. Sonnenberg, D. Williams-Young, 
 F. Ding, F. Lipparini, F. Egidi, J. Goings, B. Peng, A. Petrone, 
 T. Henderson, D. Ranasinghe, V. G. Zakrzewski, J. Gao, N. Rega, 
 G. Zheng, W. Liang, M. Hada, M. Ehara, K. Toyota, R. Fukuda, 
 J. Hasegawa, M. Ishida, T. Nakajima, Y. Honda, O. Kitao, H. Nakai, 
 T. Vreven, K. Throssell, J. A. Montgomery, Jr., J. E. Peralta, 
 F. Ogliaro, M. J. Bearpark, J. J. Heyd, E. N. Brothers, K. N. Kudin, 
 V. N. Staroverov, T. A. Keith, R. Kobayashi, J. Normand, 
 K. Raghavachari, A. P. Rendell, J. C. Burant, S. S. Iyengar, 
 J. Tomasi, M. Cossi, J. M. Millam, M. Klene, C. Adamo, R. Cammi, 
 J. W. Ochterski, R. L. Martin, K. Morokuma, O. Farkas, 
 J. B. Foresman, and D. J. Fox, Gaussian, Inc., Wallingford CT, 2016.
 
 ******************************************
 Gaussian 16:  ES64L-G16RevA.03 25-Dec-2016
                28-Aug-2022 
 ******************************************
 %NProcShared=4
 Will use up to    4 processors via shared memory.
 %Mem=4GB
 %Chk=H2O_H2O_1680.chk
 ------------------
 #p CCSD(T)/cc-pVTZ
 ------------------
 1/38=1,172=1/1;
 2/12=2,17=6,18=5,40=1/2;
 3/5=16,6=1,11=9,25=1,30=1/1,2,3;
 4//1;
 5/5=2,38=5/2;
 8/6=4,9=120000,10=1/1,4;
 9/5=7,14=2/13;
 6/7=2,8=2,9=2,10=2/1;
 99/5=1,9=1/99;
 Leave Link    1 at Sun Aug 28 00:31:33 2022, MaxMem=   536870912 cpu:               0.3 elap:               0.1
 (Enter /usr/site/hpc/x86_64/glibc-2.17/broadwell/gaussian/g16_a.03/pgi-16.5/g16/l101.exe)
 ------------
 H2O_H2O_1680
 ------------
 Symbolic Z-matrix:
 Charge =  0 Multiplicity = 1
 O                     0.       -0.00983   0. 
 H                    -0.79957  -0.58097   0. 
 H                     0.79957  -0.58097   0. 
 O                    -2.75128  -1.97229   0. 
 H                    -3.692    -2.2561    0. 
 H                    -2.17773  -2.77012   0. 
 
 ITRead=  0  0  0  0  0  0
 MicOpt= -1 -1 -1 -1 -1 -1
 NAtoms=      6 NQM=        6 NQMF=       0 NMMI=      0 NMMIF=      0
                NMic=       0 NMicF=      0.
                    Isotopes and Nuclear Properties:
 (Nuclear quadrupole moments (NQMom) in fm**2, nuclear magnetic moments (NMagM)
  in nuclear magnetons)

  Atom         1           2           3           4           5           6
 IAtWgt=          16           1           1          16           1           1
 AtmWgt=  15.9949146   1.0078250   1.0078250  15.9949146   1.0078250   1.0078250
 NucSpn=           0           1           1           0           1           1
 AtZEff=  -0.0000000  -0.0000000  -0.0000000  -0.0000000  -0.0000000  -0.0000000
 NQMom=    0.0000000   0.0000000   0.0000000   0.0000000   0.0000000   0.0000000
 NMagM=    0.0000000   2.7928460   2.7928460   0.0000000   2.7928460   2.7928460
 AtZNuc=   8.0000000   1.0000000   1.0000000   8.0000000   1.0000000   1.0000000
 Leave Link  101 at Sun Aug 28 00:31:33 2022, MaxMem=   536870912 cpu:               0.6 elap:               0.2
 (Enter /usr/site/hpc/x86_64/glibc-2.17/broadwell/gaussian/g16_a.03/pgi-16.5/g16/l202.exe)
                          Input orientation:                          
 ---------------------------------------------------------------------
 Center     Atomic      Atomic             Coordinates (Angstroms)
 Number     Number       Type             X           Y           Z
 ---------------------------------------------------------------------
      1          8           0        0.000000   -0.009833    0.000000
      2          1           0       -0.799571   -0.580965    0.000000
      3          1           0        0.799571   -0.580965    0.000000
      4          8           0       -2.751282   -1.972288    0.000000
      5          1           0       -3.692004   -2.256096    0.000000
      6          1           0       -2.177728   -2.770124    0.000000
 ---------------------------------------------------------------------
                    Distance matrix (angstroms):
                    1          2          3          4          5
     1  O    0.000000
     2  H    0.982601   0.000000
     3  H    0.982601   1.599142   0.000000
     4  O    3.379465   2.396864   3.813704   0.000000
     5  H    4.321642   3.342489   4.793778   0.982601   0.000000
     6  H    3.515922   2.586839   3.695501   0.982602   1.599142
                    6
     6  H    0.000000
 Stoichiometry    H4O2
 Framework group  CS[SG(H4O2)]
 Deg. of freedom     9
 Full point group                 CS      NOp   2
 Largest Abelian subgroup         CS      NOp   2
 Largest concise Abelian subgroup C1      NOp   1
                         Standard orientation:                         
 ---------------------------------------------------------------------
 Center     Atomic      Atomic             Coordinates (Angstroms)
 Number     Number       Type             X           Y           Z
 ---------------------------------------------------------------------
      1          8           0        0.079865   -1.769249    0.000000
      2          1           0        0.079208   -0.786648    0.000000
      3          1           0       -0.849414   -2.088538    0.000000
      4          8           0        0.079865    1.610215    0.000000
      5          1           0        0.395090    2.540881    0.000000
      6          1           0       -0.902730    1.606578    0.000000
 ---------------------------------------------------------------------
 Rotational constants (GHZ):         271.7741370           4.7842009           4.7014387
 Leave Link  202 at Sun Aug 28 00:31:33 2022, MaxMem=   536870912 cpu:               0.0 elap:               0.0
 (Enter /usr/site/hpc/x86_64/glibc-2.17/broadwell/gaussian/g16_a.03/pgi-16.5/g16/l301.exe)
 Standard basis: CC-pVTZ (5D, 7F)
 Ernie: Thresh=  0.10000D-02 Tol=  0.10000D-05 Strict=F.
 Ernie:  6 primitive shells out of 84 were deleted.
 There are    92 symmetry adapted cartesian basis functions of A'  symmetry.
 There are    38 symmetry adapted cartesian basis functions of A"  symmetry.
 There are    80 symmetry adapted basis functions of A'  symmetry.
 There are    36 symmetry adapted basis functions of A"  symmetry.
   116 basis functions,   172 primitive gaussians,   130 cartesian basis functions
    10 alpha electrons       10 beta electrons
       nuclear repulsion energy        33.5932546369 Hartrees.
 IExCor=    0 DFT=F Ex=HF Corr=None ExCW=0 ScaHFX=  1.000000
 ScaDFX=  1.000000  1.000000  1.000000  1.000000 ScalE2=  1.000000  1.000000
 IRadAn=      5 IRanWt=     -1 IRanGd=            0 ICorTp=0 IEmpDi=  4
 NAtoms=    6 NActive=    6 NUniq=    6 SFac= 1.00D+00 NAtFMM=   60 NAOKFM=F Big=F
 Integral buffers will be    131072 words long.
 Raffenetti 1 integral format.
 Two-electron integral symmetry is turned on.
 Leave Link  301 at Sun Aug 28 00:31:33 2022, MaxMem=   536870912 cpu:               0.2 elap:               0.0
 (Enter /usr/site/hpc/x86_64/glibc-2.17/broadwell/gaussian/g16_a.03/pgi-16.5/g16/l302.exe)
 NPDir=0 NMtPBC=     1 NCelOv=     1 NCel=       1 NClECP=     1 NCelD=      1
         NCelK=      1 NCelE2=     1 NClLst=     1 CellRange=     0.0.
 One-electron integrals computed using PRISM.
 One-electron integral symmetry used in STVInt
 NBasis=   116 RedAO= T EigKep=  2.25D-03  NBF=    80    36
 NBsUse=   116 1.00D-06 EigRej= -1.00D+00 NBFU=    80    36
 Leave Link  302 at Sun Aug 28 00:31:33 2022, MaxMem=   536870912 cpu:               0.5 elap:               0.1
 (Enter /usr/site/hpc/x86_64/glibc-2.17/broadwell/gaussian/g16_a.03/pgi-16.5/g16/l303.exe)
 DipDrv:  MaxL=1.
 Leave Link  303 at Sun Aug 28 00:31:33 2022, MaxMem=   536870912 cpu:               0.1 elap:               0.0
 (Enter /usr/site/hpc/x86_64/glibc-2.17/broadwell/gaussian/g16_a.03/pgi-16.5/g16/l401.exe)
 ExpMin= 1.03D-01 ExpMax= 1.53D+04 ExpMxC= 5.22D+02 IAcc=3 IRadAn=         5 AccDes= 0.00D+00
 Harris functional with IExCor=  205 and IRadAn=       5 diagonalized for initial guess.
 HarFok:  IExCor=  205 AccDes= 0.00D+00 IRadAn=         5 IDoV= 1 UseB2=F ITyADJ=14
 ICtDFT=  3500011 ScaDFX=  1.000000  1.000000  1.000000  1.000000
 FoFCou: FMM=F IPFlag=           0 FMFlag=      100000 FMFlg1=           0
         NFxFlg=           0 DoJE=T BraDBF=F KetDBF=T FulRan=T
         wScrn=  0.000000 ICntrl=       500 IOpCl=  0 I1Cent=   200000004 NGrid=           0
         NMat0=    1 NMatS0=      1 NMatT0=    0 NMatD0=    1 NMtDS0=    0 NMtDT0=    0
 Petite list used in FoFCou.
 Harris En= -152.300592447501    
 JPrj=0 DoOrth=F DoCkMO=F.
 Initial guess orbital symmetries:
       Occupied  (A') (A') (A') (A') (A') (A') (A') (A') (A") (A")
       Virtual   (A') (A') (A') (A') (A') (A') (A') (A') (A') (A")
                 (A') (A") (A') (A') (A') (A") (A") (A') (A") (A")
                 (A') (A') (A') (A') (A') (A') (A') (A') (A") (A")
                 (A") (A") (A') (A') (A') (A') (A') (A') (A') (A')
                 (A') (A') (A") (A") (A') (A') (A") (A") (A") (A")
                 (A') (A') (A') (A') (A') (A") (A') (A") (A') (A')
                 (A') (A") (A") (A') (A") (A") (A') (A') (A') (A")
                 (A") (A') (A') (A') (A') (A') (A') (A') (A') (A')
                 (A") (A") (A') (A') (A") (A") (A") (A") (A') (A")
                 (A") (A') (A') (A') (A') (A') (A") (A") (A') (A')
                 (A') (A') (A') (A') (A') (A')
 The electronic state of the initial guess is 1-A'.
 Leave Link  401 at Sun Aug 28 00:31:33 2022, MaxMem=   536870912 cpu:               0.8 elap:               0.2
 (Enter /usr/site/hpc/x86_64/glibc-2.17/broadwell/gaussian/g16_a.03/pgi-16.5/g16/l502.exe)
 Keep R1 ints in memory in symmetry-blocked form, NReq=34823457.
 FoFCou: FMM=F IPFlag=           0 FMFlag=           0 FMFlg1=           0
         NFxFlg=           0 DoJE=F BraDBF=F KetDBF=F FulRan=T
         wScrn=  0.000000 ICntrl=       600 IOpCl=  0 I1Cent=           0 NGrid=           0
         NMat0=    1 NMatS0=   6786 NMatT0=    0 NMatD0=    1 NMtDS0=    0 NMtDT0=    0
 Petite list used in FoFCou.
 Closed shell SCF:
 Using DIIS extrapolation, IDIIS=  1040.
 NGot=   536870912 LenX=   525040673 LenY=   525023332
 Requested convergence on RMS density matrix=1.00D-08 within 128 cycles.
 Requested convergence on MAX density matrix=1.00D-06.
 Requested convergence on             energy=1.00D-06.
 No special actions if energy rises.

 Cycle   1  Pass 1  IDiag  1:
 E= -151.937019978985    
 DIIS: error= 6.56D-02 at cycle   1 NSaved=   1.
 NSaved= 1 IEnMin= 1 EnMin= -151.937019978985     IErMin= 1 ErrMin= 6.56D-02
 ErrMax= 6.56D-02  0.00D+00 EMaxC= 1.00D-01 BMatC= 3.93D-01 BMatP= 3.93D-01
 IDIUse=3 WtCom= 3.44D-01 WtEn= 6.56D-01
 Coeff-Com:  0.100D+01
 Coeff-En:   0.100D+01
 Coeff:      0.100D+01
 Gap=     0.501 Goal=   None    Shift=    0.000
 GapD=    0.501 DampG=2.000 DampE=0.500 DampFc=1.0000 IDamp=-1.
 RMSDP=2.57D-03 MaxDP=6.80D-02              OVMax= 1.24D-01

 Cycle   2  Pass 1  IDiag  1:
 E= -152.045794294833     Delta-E=       -0.108774315848 Rises=F Damp=F
 DIIS: error= 4.07D-02 at cycle   2 NSaved=   2.
 NSaved= 2 IEnMin= 2 EnMin= -152.045794294833     IErMin= 2 ErrMin= 4.07D-02
 ErrMax= 4.07D-02  0.00D+00 EMaxC= 1.00D-01 BMatC= 1.08D-01 BMatP= 3.93D-01
 IDIUse=3 WtCom= 5.93D-01 WtEn= 4.07D-01
 Coeff-Com:  0.315D+00 0.685D+00
 Coeff-En:   0.160D+00 0.840D+00
 Coeff:      0.252D+00 0.748D+00
 Gap=     0.626 Goal=   None    Shift=    0.000
 RMSDP=1.39D-03 MaxDP=3.98D-02 DE=-1.09D-01 OVMax= 5.67D-02

 Cycle   3  Pass 1  IDiag  1:
 E= -152.107444465450     Delta-E=       -0.061650170616 Rises=F Damp=F
 DIIS: error= 9.11D-03 at cycle   3 NSaved=   3.
 NSaved= 3 IEnMin= 3 EnMin= -152.107444465450     IErMin= 3 ErrMin= 9.11D-03
 ErrMax= 9.11D-03  0.00D+00 EMaxC= 1.00D-01 BMatC= 5.99D-03 BMatP= 1.08D-01
 IDIUse=3 WtCom= 9.09D-01 WtEn= 9.11D-02
 Coeff-Com: -0.303D-01 0.159D+00 0.871D+00
 Coeff-En:   0.000D+00 0.000D+00 0.100D+01
 Coeff:     -0.276D-01 0.145D+00 0.883D+00
 Gap=     0.598 Goal=   None    Shift=    0.000
 RMSDP=2.53D-04 MaxDP=6.01D-03 DE=-6.17D-02 OVMax= 1.33D-02

 Cycle   4  Pass 1  IDiag  1:
 E= -152.111156403199     Delta-E=       -0.003711937750 Rises=F Damp=F
 DIIS: error= 8.26D-04 at cycle   4 NSaved=   4.
 NSaved= 4 IEnMin= 4 EnMin= -152.111156403199     IErMin= 4 ErrMin= 8.26D-04
 ErrMax= 8.26D-04  0.00D+00 EMaxC= 1.00D-01 BMatC= 3.65D-05 BMatP= 5.99D-03
 IDIUse=3 WtCom= 9.92D-01 WtEn= 8.26D-03
 Coeff-Com:  0.677D-02-0.621D-01-0.237D+00 0.129D+01
 Coeff-En:   0.000D+00 0.000D+00 0.000D+00 0.100D+01
 Coeff:      0.672D-02-0.616D-01-0.235D+00 0.129D+01
 Gap=     0.600 Goal=   None    Shift=    0.000
 RMSDP=5.27D-05 MaxDP=1.01D-03 DE=-3.71D-03 OVMax= 2.50D-03

 Cycle   5  Pass 1  IDiag  1:
 E= -152.111206689195     Delta-E=       -0.000050285995 Rises=F Damp=F
 DIIS: error= 1.84D-04 at cycle   5 NSaved=   5.
 NSaved= 5 IEnMin= 5 EnMin= -152.111206689195     IErMin= 5 ErrMin= 1.84D-04
 ErrMax= 1.84D-04  0.00D+00 EMaxC= 1.00D-01 BMatC= 1.43D-06 BMatP= 3.65D-05
 IDIUse=3 WtCom= 9.98D-01 WtEn= 1.84D-03
 Coeff-Com:  0.872D-03-0.259D-02-0.149D-01-0.159D+00 0.118D+01
 Coeff-En:   0.000D+00 0.000D+00 0.000D+00 0.000D+00 0.100D+01
 Coeff:      0.871D-03-0.258D-02-0.149D-01-0.159D+00 0.118D+01
 Gap=     0.602 Goal=   None    Shift=    0.000
 RMSDP=1.43D-05 MaxDP=3.27D-04 DE=-5.03D-05 OVMax= 7.24D-04

 Cycle   6  Pass 1  IDiag  1:
 E= -152.111209506652     Delta-E=       -0.000002817458 Rises=F Damp=F
 DIIS: error= 3.59D-05 at cycle   6 NSaved=   6.
 NSaved= 6 IEnMin= 6 EnMin= -152.111209506652     IErMin= 6 ErrMin= 3.59D-05
 ErrMax= 3.59D-05  0.00D+00 EMaxC= 1.00D-01 BMatC= 1.10D-07 BMatP= 1.43D-06
 IDIUse=1 WtCom= 1.00D+00 WtEn= 0.00D+00
 Coeff-Com: -0.840D-04 0.211D-02 0.704D-02-0.983D-01 0.260D+00 0.830D+00
 Coeff:     -0.840D-04 0.211D-02 0.704D-02-0.983D-01 0.260D+00 0.830D+00
 Gap=     0.601 Goal=   None    Shift=    0.000
 RMSDP=2.68D-06 MaxDP=7.56D-05 DE=-2.82D-06 OVMax= 1.54D-04

 Cycle   7  Pass 1  IDiag  1:
 E= -152.111209647178     Delta-E=       -0.000000140526 Rises=F Damp=F
 DIIS: error= 9.72D-06 at cycle   7 NSaved=   7.
 NSaved= 7 IEnMin= 7 EnMin= -152.111209647178     IErMin= 7 ErrMin= 9.72D-06
 ErrMax= 9.72D-06  0.00D+00 EMaxC= 1.00D-01 BMatC= 1.01D-08 BMatP= 1.10D-07
 IDIUse=1 WtCom= 1.00D+00 WtEn= 0.00D+00
 Coeff-Com: -0.107D-03 0.426D-03 0.195D-02 0.132D-01-0.138D+00 0.717D-01
 Coeff-Com:  0.105D+01
 Coeff:     -0.107D-03 0.426D-03 0.195D-02 0.132D-01-0.138D+00 0.717D-01
 Coeff:      0.105D+01
 Gap=     0.602 Goal=   None    Shift=    0.000
 RMSDP=1.28D-06 MaxDP=3.75D-05 DE=-1.41D-07 OVMax= 6.84D-05

 Cycle   8  Pass 1  IDiag  1:
 E= -152.111209665622     Delta-E=       -0.000000018444 Rises=F Damp=F
 DIIS: error= 2.19D-06 at cycle   8 NSaved=   8.
 NSaved= 8 IEnMin= 8 EnMin= -152.111209665622     IErMin= 8 ErrMin= 2.19D-06
 ErrMax= 2.19D-06  0.00D+00 EMaxC= 1.00D-01 BMatC= 4.34D-10 BMatP= 1.01D-08
 IDIUse=1 WtCom= 1.00D+00 WtEn= 0.00D+00
 Coeff-Com:  0.247D-04-0.225D-03-0.886D-03 0.476D-02 0.765D-02-0.593D-01
 Coeff-Com: -0.168D+00 0.122D+01
 Coeff:      0.247D-04-0.225D-03-0.886D-03 0.476D-02 0.765D-02-0.593D-01
 Coeff:     -0.168D+00 0.122D+01
 Gap=     0.602 Goal=   None    Shift=    0.000
 RMSDP=2.26D-07 MaxDP=3.95D-06 DE=-1.84D-08 OVMax= 1.45D-05

 Cycle   9  Pass 1  IDiag  1:
 E= -152.111209666582     Delta-E=       -0.000000000960 Rises=F Damp=F
 DIIS: error= 6.76D-07 at cycle   9 NSaved=   9.
 NSaved= 9 IEnMin= 9 EnMin= -152.111209666582     IErMin= 9 ErrMin= 6.76D-07
 ErrMax= 6.76D-07  0.00D+00 EMaxC= 1.00D-01 BMatC= 2.59D-11 BMatP= 4.34D-10
 IDIUse=1 WtCom= 1.00D+00 WtEn= 0.00D+00
 Coeff-Com:  0.164D-05 0.255D-04 0.101D-03-0.238D-02 0.862D-02 0.102D-01
 Coeff-Com: -0.346D-01-0.275D+00 0.129D+01
 Coeff:      0.164D-05 0.255D-04 0.101D-03-0.238D-02 0.862D-02 0.102D-01
 Coeff:     -0.346D-01-0.275D+00 0.129D+01
 Gap=     0.602 Goal=   None    Shift=    0.000
 RMSDP=5.90D-08 MaxDP=9.31D-07 DE=-9.60D-10 OVMax= 3.15D-06

 Cycle  10  Pass 1  IDiag  1:
 E= -152.111209666639     Delta-E=       -0.000000000057 Rises=F Damp=F
 DIIS: error= 8.69D-08 at cycle  10 NSaved=  10.
 NSaved=10 IEnMin=10 EnMin= -152.111209666639     IErMin=10 ErrMin= 8.69D-08
 ErrMax= 8.69D-08  0.00D+00 EMaxC= 1.00D-01 BMatC= 4.55D-13 BMatP= 2.59D-11
 IDIUse=1 WtCom= 1.00D+00 WtEn= 0.00D+00
 Coeff-Com: -0.704D-06 0.838D-06 0.150D-05 0.243D-03-0.116D-02-0.745D-03
 Coeff-Com:  0.632D-02 0.322D-01-0.251D+00 0.121D+01
 Coeff:     -0.704D-06 0.838D-06 0.150D-05 0.243D-03-0.116D-02-0.745D-03
 Coeff:      0.632D-02 0.322D-01-0.251D+00 0.121D+01
 Gap=     0.602 Goal=   None    Shift=    0.000
 RMSDP=6.97D-09 MaxDP=1.46D-07 DE=-5.68D-11 OVMax= 3.96D-07

 SCF Done:  E(RHF) =  -152.111209667     A.U. after   10 cycles
            NFock= 10  Conv=0.70D-08     -V/T= 2.0021
 KE= 1.517964713114D+02 PE=-4.285524314426D+02 EE= 9.105149582763D+01
 Leave Link  502 at Sun Aug 28 00:31:34 2022, MaxMem=   536870912 cpu:               4.2 elap:               1.1
 (Enter /usr/site/hpc/x86_64/glibc-2.17/broadwell/gaussian/g16_a.03/pgi-16.5/g16/l801.exe)
 Windowed orbitals will be sorted by symmetry type.
 ExpMin= 1.03D-01 ExpMax= 1.53D+04 ExpMxC= 5.22D+02 IAcc=3 IRadAn=         5 AccDes= 0.00D+00
 HarFok:  IExCor=  205 AccDes= 0.00D+00 IRadAn=         5 IDoV=-2 UseB2=F ITyADJ=14
 ICtDFT= 12500011 ScaDFX=  1.000000  1.000000  1.000000  1.000000
 Largest valence mixing into a core orbital is  1.12D-04
 Largest core mixing into a valence orbital is  1.77D-05
 Range of M.O.s used for correlation:     3   116
 NBasis=   116 NAE=    10 NBE=    10 NFC=     2 NFV=     0
 NROrb=    114 NOA=     8 NOB=     8 NVA=   106 NVB=   106
 Leave Link  801 at Sun Aug 28 00:31:34 2022, MaxMem=   536870912 cpu:               0.3 elap:               0.1
 (Enter /usr/site/hpc/x86_64/glibc-2.17/broadwell/gaussian/g16_a.03/pgi-16.5/g16/l804.exe)
 Closed-shell transformation, MDV=   536870912 ITran=4 ISComp=2.
 Unit  1 TFree=        834515 TCopy=        406125.
 Semi-Direct transformation.
 ModeAB=           4 MOrb=             8 LenV=     536364798
 LASXX=      2873146 LTotXX=     2873146 LenRXX=     5831278
 LTotAB=     2958132 MaxLAS=     7428240 LenRXY=           0
 NonZer=     8704424 LenScr=    13107200 LnRSAI=     7428240
 LnScr1=    11534336 LExtra=           0 Total=     37901054
 MaxDsk=          -1 SrtSym=           T ITran=            4
 DoSDTr:  NPSUse=  4
 JobTyp=0 Pass  1:  I=   1 to   8.
 (rs|ai) integrals will be sorted in core.
 Complete sort for first half transformation.
 First half transformation complete.
 Complete sort for second half transformation.
 Second half transformation complete.
 Spin components of T(2) and E(2):
     alpha-alpha T2 =       0.1567339981D-01 E2=     -0.6411250627D-01
     alpha-beta  T2 =       0.9204134156D-01 E2=     -0.3987917602D+00
     beta-beta   T2 =       0.1567339981D-01 E2=     -0.6411250627D-01
 ANorm=    0.1059900062D+01
 E2 =    -0.5270167727D+00 EUMP2 =    -0.15263822643934D+03
 Leave Link  804 at Sun Aug 28 00:31:35 2022, MaxMem=   536870912 cpu:               4.1 elap:               1.0
 (Enter /usr/site/hpc/x86_64/glibc-2.17/broadwell/gaussian/g16_a.03/pgi-16.5/g16/l913.exe)
 CIDS:  MDV=   536870912.
 Frozen-core window:  NFC=   2 NFV=   0.
 IFCWin=0 IBDFC=1 NFBD=     0     0 NFCmp=     0     0 NFFFC=     0     0
 Using DD3R+UMP44R for 1st iteration.
 Using DD4RQ for 2nd and later iterations.
 Keep R2 and R3 ints in memory in symmetry-blocked form, NReq=35357534.
 FoFCou: FMM=F IPFlag=           0 FMFlag=           0 FMFlg1=           0
         NFxFlg=           0 DoJE=F BraDBF=F KetDBF=F FulRan=T
         wScrn=  0.000000 ICntrl=       600 IOpCl=  0 I1Cent=           0 NGrid=           0
         NMat0=    1 NMatS0=   6786 NMatT0=    0 NMatD0=    1 NMtDS0=    0 NMtDT0=    0
 Petite list used in FoFCou.
 CIDS: In Core Option IDoMem=           1.
 CCSD(T)
 =======
 Iterations=  50 Convergence= 0.100D-06
 Produce multiple copies of IABC intergrals
 Iteration Nr.   1
 **********************
 DD1Dir will call FoFMem   1 times, MxPair=        72
 NAB=    36 NAA=     0 NBB=     0.
 MP4(R+Q)=  0.76228025D-02
 Maximum subspace dimension=  5
 A-vector RMS=  1.8048629D-03 Max=  5.7590134D-03 conv= 1.00D-05.
 RLE energy=       -0.5266060090
 E3=       -0.72812155D-02        EUMP3=      -0.15264550765D+03
 E4(DQ)=   -0.14764762D-02        UMP4(DQ)=   -0.15264698413D+03
 E4(SDQ)=  -0.45992584D-02        UMP4(SDQ)=  -0.15265010691D+03
 VARIATIONAL ENERGIES WITH THE FIRST-ORDER WAVEFUNCTION:
 DE(Corr)= -0.52660570     E(Corr)=     -152.63781536    
 NORM(A)=   0.10601686D+01
 Iteration Nr.   2
 **********************
 DD1Dir will call FoFMem   1 times, MxPair=        72
 NAB=    36 NAA=     0 NBB=     0.
 A-vector RMS=  2.1300712D-04 Max=  2.0090715D-03 conv= 1.00D-05.
 RLE energy=       -0.5376881534
 DE(Corr)= -0.53656471     E(CORR)=     -152.64777437     Delta=-9.96D-03
 NORM(A)=   0.10639271D+01
 Iteration Nr.   3
 **********************
 DD1Dir will call FoFMem   1 times, MxPair=        72
 NAB=    36 NAA=     0 NBB=     0.
 A-vector RMS=  1.5892887D-04 Max=  1.0461791D-03 conv= 1.00D-05.
 RLE energy=       -0.5381860326
 DE(Corr)= -0.53759403     E(CORR)=     -152.64880370     Delta=-1.03D-03
 NORM(A)=   0.10645642D+01
 Iteration Nr.   4
 **********************
 DD1Dir will call FoFMem   1 times, MxPair=        72
 NAB=    36 NAA=     0 NBB=     0.
 A-vector RMS=  3.2632525D-05 Max=  1.6487848D-04 conv= 1.00D-05.
 RLE energy=       -0.5382648167
 DE(Corr)= -0.53823108     E(CORR)=     -152.64944075     Delta=-6.37D-04
 NORM(A)=   0.10646763D+01
 Iteration Nr.   5
 **********************
 DD1Dir will call FoFMem   1 times, MxPair=        72
 NAB=    36 NAA=     0 NBB=     0.
 A-vector RMS=  2.0545474D-05 Max=  2.0844710D-04 conv= 1.00D-05.
 RLE energy=       -0.5382777054
 DE(Corr)= -0.53827002     E(CORR)=     -152.64947969     Delta=-3.89D-05
 NORM(A)=   0.10646894D+01
 Iteration Nr.   6
 **********************
 DD1Dir will call FoFMem   1 times, MxPair=        72
 NAB=    36 NAA=     0 NBB=     0.
 A-vector RMS=  6.2192786D-06 Max=  4.4712936D-05 conv= 1.00D-05.
 RLE energy=       -0.5382699712
 DE(Corr)= -0.53827388     E(CORR)=     -152.64948355     Delta=-3.86D-06
 NORM(A)=   0.10646891D+01
 Iteration Nr.   7
 **********************
 DD1Dir will call FoFMem   1 times, MxPair=        72
 NAB=    36 NAA=     0 NBB=     0.
 A-vector RMS=  2.8560633D-06 Max=  2.9893995D-05 conv= 1.00D-05.
 RLE energy=       -0.5382730025
 DE(Corr)= -0.53827409     E(CORR)=     -152.64948375     Delta=-2.03D-07
 NORM(A)=   0.10646905D+01
 Iteration Nr.   8
 **********************
 DD1Dir will call FoFMem   1 times, MxPair=        72
 NAB=    36 NAA=     0 NBB=     0.
 A-vector RMS=  1.1363120D-06 Max=  9.5854807D-06 conv= 1.00D-05.
 RLE energy=       -0.5382733899
 DE(Corr)= -0.53827365     E(CORR)=     -152.64948331     Delta= 4.42D-07
 NORM(A)=   0.10646909D+01
 Iteration Nr.   9
 **********************
 DD1Dir will call FoFMem   1 times, MxPair=        72
 NAB=    36 NAA=     0 NBB=     0.
 A-vector RMS=  2.5361627D-07 Max=  2.8871923D-06 conv= 1.00D-05.
 RLE energy=       -0.5382736417
 DE(Corr)= -0.53827371     E(CORR)=     -152.64948338     Delta=-6.51D-08
 NORM(A)=   0.10646913D+01
 CI/CC converged in    9 iterations to DelEn=-6.51D-08 Conv= 1.00D-07 ErrA1= 2.54D-07 Conv= 1.00D-05
 Wavefunction amplitudes converged. E(Corr)=     -152.64948338    
 Largest amplitude= 4.23D-02
 IPart=  2 IA=    7   11.05% done.
 IPart=  3 IA=   13   21.46% done.
 IPart=  4 IA=   19   31.21% done.
 IPart=  3 IA=   25   40.32% done.
 IPart=  3 IA=   32   50.13% done.
 IPart=  3 IA=   40   60.27% done.
 IPart=  2 IA=   49   70.30% done.
 IPart=  4 IA=   60   80.58% done.
 IPart=  4 IA=   74   90.51% done.
 Time for triples=       50.07 seconds.
 T4(CCSD)= -0.16222208D-01
 T5(CCSD)=  0.41712224D-03
 CCSD(T)= -0.15266528846D+03
 Discarding MO integrals.
 Leave Link  913 at Sun Aug 28 00:31:53 2022, MaxMem=   536870912 cpu:              71.4 elap:              18.0
 (Enter /usr/site/hpc/x86_64/glibc-2.17/broadwell/gaussian/g16_a.03/pgi-16.5/g16/l601.exe)
 Copying SCF densities to generalized density rwf, IOpCl= 0 IROHF=0.

 **********************************************************************

            Population analysis using the SCF density.

 **********************************************************************

 Orbital symmetries:
       Occupied  (A') (A') (A') (A') (A') (A') (A') (A') (A") (A")
       Virtual   (A') (A') (A') (A') (A') (A') (A') (A') (A') (A')
                 (A") (A') (A") (A") (A') (A') (A") (A') (A") (A")
                 (A') (A') (A') (A') (A') (A') (A') (A') (A") (A")
                 (A") (A') (A") (A') (A') (A') (A') (A') (A') (A')
                 (A') (A') (A") (A") (A') (A") (A') (A") (A') (A')
                 (A") (A") (A') (A') (A') (A") (A') (A") (A") (A")
                 (A') (A') (A') (A') (A") (A") (A') (A') (A') (A')
                 (A") (A") (A') (A') (A') (A') (A') (A') (A') (A')
                 (A") (A") (A') (A') (A") (A") (A") (A") (A') (A")
                 (A") (A') (A') (A') (A') (A") (A') (A") (A') (A')
                 (A') (A') (A') (A') (A') (A')
 The electronic state is 1-A'.
 Alpha  occ. eigenvalues --  -20.57677 -20.53895  -1.34974  -1.31261  -0.72460
 Alpha  occ. eigenvalues --   -0.68662  -0.58601  -0.54654  -0.52078  -0.48387
 Alpha virt. eigenvalues --    0.11768   0.16642   0.19704   0.27293   0.50373
 Alpha virt. eigenvalues --    0.55337   0.56955   0.58168   0.69151   0.74082
 Alpha virt. eigenvalues --    0.74945   0.77660   0.80755   0.82892   0.83748
 Alpha virt. eigenvalues --    0.85995   0.86836   0.91251   0.94766   1.02139
 Alpha virt. eigenvalues --    1.11657   1.17968   1.20664   1.22786   1.49687
 Alpha virt. eigenvalues --    1.51082   1.53356   1.81559   1.98525   2.02031
 Alpha virt. eigenvalues --    2.04734   2.08223   2.09229   2.11773   2.16995
 Alpha virt. eigenvalues --    2.20298   2.26490   2.36797   2.59733   2.65043
 Alpha virt. eigenvalues --    2.91617   2.97430   3.37379   3.41031   3.48033
 Alpha virt. eigenvalues --    3.51196   3.51782   3.54806   3.57755   3.61494
 Alpha virt. eigenvalues --    3.76555   3.80231   3.82459   3.84096   3.88597
 Alpha virt. eigenvalues --    3.91436   3.93782   3.95228   4.02110   4.05278
 Alpha virt. eigenvalues --    4.05887   4.11900   4.14311   4.25395   4.28246
 Alpha virt. eigenvalues --    4.31864   4.41020   4.43572   4.44113   4.55003
 Alpha virt. eigenvalues --    4.64844   4.68168   4.80329   4.86422   5.02930
 Alpha virt. eigenvalues --    5.08147   5.23607   5.28364   5.53108   5.58251
 Alpha virt. eigenvalues --    5.95729   5.99475   6.38522   6.43283   6.84003
 Alpha virt. eigenvalues --    6.87514   6.87790   6.91406   6.91770   6.96891
 Alpha virt. eigenvalues --    7.00824   7.05146   7.07426   7.10194   7.13996
 Alpha virt. eigenvalues --    7.16121   7.18436   7.19977   7.46595   7.50819
 Alpha virt. eigenvalues --    7.70185   7.73116   8.15729   8.18446  12.46383
 Alpha virt. eigenvalues --   12.89483
          Condensed to atoms (all electrons):
               1          2          3          4          5          6
     1  O    7.830158   0.353892   0.343660  -0.002761   0.000078   0.000967
     2  H    0.353892   0.400097  -0.039524   0.016850  -0.000895  -0.002139
     3  H    0.343660  -0.039524   0.453229  -0.000362   0.000011   0.000416
     4  O   -0.002761   0.016850  -0.000362   7.838109   0.327156   0.318037
     5  H    0.000078  -0.000895   0.000011   0.327156   0.439101  -0.022778
     6  H    0.000967  -0.002139   0.000416   0.318037  -0.022778   0.454090
 Mulliken charges:
               1
     1  O   -0.525994
     2  H    0.271718
     3  H    0.242571
     4  O   -0.497029
     5  H    0.257326
     6  H    0.251408
 Sum of Mulliken charges =  -0.00000
 Mulliken charges with hydrogens summed into heavy atoms:
               1
     1  O   -0.011705
     4  O    0.011705
 Electronic spatial extent (au):  <R**2>=            244.7751
 Charge=              0.0000 electrons
 Dipole moment (field-independent basis, Debye):
    X=             -2.6817    Y=              3.0544    Z=              0.0000  Tot=              4.0646
 Quadrupole moment (field-independent basis, Debye-Ang):
   XX=            -10.1292   YY=             -8.4859   ZZ=            -14.7234
   XY=              2.9270   XZ=              0.0000   YZ=              0.0000
 Traceless Quadrupole moment (field-independent basis, Debye-Ang):
   XX=              0.9837   YY=              2.6269   ZZ=             -3.6106
   XY=              2.9270   XZ=              0.0000   YZ=              0.0000
 Octapole moment (field-independent basis, Debye-Ang**2):
  XXX=             -3.5971  YYY=             26.3193  ZZZ=              0.0000  XYY=             -7.3962
  XXY=              1.2016  XXZ=              0.0000  XZZ=             -0.3451  YZZ=              0.4845
  YYZ=              0.0000  XYZ=              0.0000
 Hexadecapole moment (field-independent basis, Debye-Ang**3):
 XXXX=            -11.4657 YYYY=           -177.5308 ZZZZ=            -11.3680 XXXY=             -0.4737
 XXXZ=              0.0000 YYYX=             24.6631 YYYZ=              0.0000 ZZZX=              0.0000
 ZZZY=              0.0000 XXYY=            -31.1030 XXZZ=             -4.3968 YYZZ=            -46.8486
 XXYZ=              0.0000 YYXZ=              0.0000 ZZXY=             -0.4115
 N-N= 3.359325463691D+01 E-N=-4.285524308103D+02  KE= 1.517964713114D+02
 Symmetry A'   KE= 1.427607481922D+02
 Symmetry A"   KE= 9.035723119270D+00
 Leave Link  601 at Sun Aug 28 00:31:54 2022, MaxMem=   536870912 cpu:               0.2 elap:               0.1
 (Enter /usr/site/hpc/x86_64/glibc-2.17/broadwell/gaussian/g16_a.03/pgi-16.5/g16/l9999.exe)
 1\1\GINC-N002\SP\RCCSD(T)-FC\CC-pVTZ\H4O2\ROOT\28-Aug-2022\0\\#p CCSD(
 T)/cc-pVTZ\\H2O_H2O_1680\\0,1\O,0,0.,-0.009833,0.\H,0,-0.799571,-0.580
 965,0.\H,0,0.799571,-0.580965,0.\O,0,-2.751282,-1.972288,0.\H,0,-3.692
 004,-2.256096,0.\H,0,-2.177728,-2.770124,0.\\Version=ES64L-G16RevA.03\
 State=1-A'\HF=-152.1112097\MP2=-152.6382264\MP3=-152.6455077\MP4D=-152
 .6546069\MP4DQ=-152.6469841\MP4SDQ=-152.6501069\CCSD=-152.6494834\CCSD
 (T)=-152.6652885\RMSD=6.967e-09\PG=CS [SG(H4O2)]\\@


 MARY HAD A LITTLE LAMB
      HIS FEET WERE BLACK AS SOOT,
           AND EVERYWHERE THAT MARY WENT
                HIS SOOTY FOOT HE PUT.

                    -- NONAME
 Job cpu time:       0 days  0 hours  1 minutes 23.0 seconds.
 Elapsed time:       0 days  0 hours  0 minutes 21.0 seconds.
 File lengths (MBytes):  RWF=    360 Int=      0 D2E=      0 Chk=      8 Scr=      8
 Normal termination of Gaussian 16 at Sun Aug 28 00:31:54 2022.
