 Entering Gaussian System, Link 0=g16
 Input=H2O_H2O_3374.com
 Output=H2O_H2O_3374.log
 Initial command:
 /usr/site/hpc/x86_64/glibc-2.17/broadwell/gaussian/g16_a.03/pgi-16.5/g16/l1.exe "/gpfs/gpfs1/scratch/c7441284/ForceFieldModel/FittingData2/Gau-513443.inp" -scrdir="/gpfs/gpfs1/scratch/c7441284/ForceFieldModel/FittingData2/"
 Entering Link 1 = /usr/site/hpc/x86_64/glibc-2.17/broadwell/gaussian/g16_a.03/pgi-16.5/g16/l1.exe PID=    513444.
  
 Copyright (c) 1988,1990,1992,1993,1995,1998,2003,2009,2016,
            Gaussian, Inc.  All Rights Reserved.
  
 This is part of the Gaussian(R) 16 program.  It is based on
 the Gaussian(R) 09 system (copyright 2009, Gaussian, Inc.),
 the Gaussian(R) 03 system (copyright 2003, Gaussian, Inc.),
 the Gaussian(R) 98 system (copyright 1998, Gaussian, Inc.),
 the Gaussian(R) 94 system (copyright 1995, Gaussian, Inc.),
 the Gaussian 92(TM) system (copyright 1992, Gaussian, Inc.),
 the Gaussian 90(TM) system (copyright 1990, Gaussian, Inc.),
 the Gaussian 88(TM) system (copyright 1988, Gaussian, Inc.),
 the Gaussian 86(TM) system (copyright 1986, Carnegie Mellon
 University), and the Gaussian 82(TM) system (copyright 1983,
 Carnegie Mellon University). Gaussian is a federally registered
 trademark of Gaussian, Inc.
  
 This software contains proprietary and confidential information,
 including trade secrets, belonging to Gaussian, Inc.
  
 This software is provided under written license and may be
 used, copied, transmitted, or stored only in accord with that
 written license.
  
 The following legend is applicable only to US Government
 contracts under FAR:
  
                    RESTRICTED RIGHTS LEGEND
  
 Use, reproduction and disclosure by the US Government is
 subject to restrictions as set forth in subparagraphs (a)
 and (c) of the Commercial Computer Software - Restricted
 Rights clause in FAR 52.227-19.
  
 Gaussian, Inc.
 340 Quinnipiac St., Bldg. 40, Wallingford CT 06492
  
  
 ---------------------------------------------------------------
 Warning -- This program may not be used in any manner that
 competes with the business of Gaussian, Inc. or will provide
 assistance to any competitor of Gaussian, Inc.  The licensee
 of this program is prohibited from giving any competitor of
 Gaussian, Inc. access to this program.  By using this program,
 the user acknowledges that Gaussian, Inc. is engaged in the
 business of creating and licensing software in the field of
 computational chemistry and represents and warrants to the
 licensee that it is not a competitor of Gaussian, Inc. and that
 it will not use this program in any manner prohibited above.
 ---------------------------------------------------------------
  

 Cite this work as:
 Gaussian 16, Revision A.03,
 M. J. Frisch, G. W. Trucks, H. B. Schlegel, G. E. Scuseria, 
 M. A. Robb, J. R. Cheeseman, G. Scalmani, V. Barone, 
 G. A. Petersson, H. Nakatsuji, X. Li, M. Caricato, A. V. Marenich, 
 J. Bloino, B. G. Janesko, R. Gomperts, B. Mennucci, H. P. Hratchian, 
 J. V. Ortiz, A. F. Izmaylov, J. L. Sonnenberg, D. Williams-Young, 
 F. Ding, F. Lipparini, F. Egidi, J. Goings, B. Peng, A. Petrone, 
 T. Henderson, D. Ranasinghe, V. G. Zakrzewski, J. Gao, N. Rega, 
 G. Zheng, W. Liang, M. Hada, M. Ehara, K. Toyota, R. Fukuda, 
 J. Hasegawa, M. Ishida, T. Nakajima, Y. Honda, O. Kitao, H. Nakai, 
 T. Vreven, K. Throssell, J. A. Montgomery, Jr., J. E. Peralta, 
 F. Ogliaro, M. J. Bearpark, J. J. Heyd, E. N. Brothers, K. N. Kudin, 
 V. N. Staroverov, T. A. Keith, R. Kobayashi, J. Normand, 
 K. Raghavachari, A. P. Rendell, J. C. Burant, S. S. Iyengar, 
 J. Tomasi, M. Cossi, J. M. Millam, M. Klene, C. Adamo, R. Cammi, 
 J. W. Ochterski, R. L. Martin, K. Morokuma, O. Farkas, 
 J. B. Foresman, and D. J. Fox, Gaussian, Inc., Wallingford CT, 2016.
 
 ******************************************
 Gaussian 16:  ES64L-G16RevA.03 25-Dec-2016
                26-Aug-2022 
 ******************************************
 %NProcShared=4
 Will use up to    4 processors via shared memory.
 %Mem=4GB
 %Chk=H2O_H2O_3374.chk
 ------------------
 #p CCSD(T)/cc-pVTZ
 ------------------
 1/38=1,172=1/1;
 2/12=2,17=6,18=5,40=1/2;
 3/5=16,6=1,11=9,25=1,30=1/1,2,3;
 4//1;
 5/5=2,38=5/2;
 8/6=4,9=120000,10=1/1,4;
 9/5=7,14=2/13;
 6/7=2,8=2,9=2,10=2/1;
 99/5=1,9=1/99;
 Leave Link    1 at Fri Aug 26 21:20:33 2022, MaxMem=   536870912 cpu:               0.2 elap:               0.1
 (Enter /usr/site/hpc/x86_64/glibc-2.17/broadwell/gaussian/g16_a.03/pgi-16.5/g16/l101.exe)
 ------------
 H2O_H2O_3374
 ------------
 Symbolic Z-matrix:
 Charge =  0 Multiplicity = 1
 O                     0.       -0.00983   0. 
 H                    -0.79957  -0.58097   0. 
 H                     0.79957  -0.58097   0. 
 O                    -3.84529  -2.73966   0. 
 H                    -4.41642  -1.94009   0. 
 H                    -4.41642  -3.53923   0. 
 
 ITRead=  0  0  0  0  0  0
 MicOpt= -1 -1 -1 -1 -1 -1
 NAtoms=      6 NQM=        6 NQMF=       0 NMMI=      0 NMMIF=      0
                NMic=       0 NMicF=      0.
                    Isotopes and Nuclear Properties:
 (Nuclear quadrupole moments (NQMom) in fm**2, nuclear magnetic moments (NMagM)
  in nuclear magnetons)

  Atom         1           2           3           4           5           6
 IAtWgt=          16           1           1          16           1           1
 AtmWgt=  15.9949146   1.0078250   1.0078250  15.9949146   1.0078250   1.0078250
 NucSpn=           0           1           1           0           1           1
 AtZEff=  -0.0000000  -0.0000000  -0.0000000  -0.0000000  -0.0000000  -0.0000000
 NQMom=    0.0000000   0.0000000   0.0000000   0.0000000   0.0000000   0.0000000
 NMagM=    0.0000000   2.7928460   2.7928460   0.0000000   2.7928460   2.7928460
 AtZNuc=   8.0000000   1.0000000   1.0000000   8.0000000   1.0000000   1.0000000
 Leave Link  101 at Fri Aug 26 21:20:33 2022, MaxMem=   536870912 cpu:               0.3 elap:               0.1
 (Enter /usr/site/hpc/x86_64/glibc-2.17/broadwell/gaussian/g16_a.03/pgi-16.5/g16/l202.exe)
                          Input orientation:                          
 ---------------------------------------------------------------------
 Center     Atomic      Atomic             Coordinates (Angstroms)
 Number     Number       Type             X           Y           Z
 ---------------------------------------------------------------------
      1          8           0        0.000000   -0.009833    0.000000
      2          1           0       -0.799571   -0.580965    0.000000
      3          1           0        0.799571   -0.580965    0.000000
      4          8           0       -3.845290   -2.739658    0.000000
      5          1           0       -4.416422   -1.940087    0.000000
      6          1           0       -4.416422   -3.539230    0.000000
 ---------------------------------------------------------------------
                    Distance matrix (angstroms):
                    1          2          3          4          5
     1  O    0.000000
     2  H    0.982601   0.000000
     3  H    0.982601   1.599142   0.000000
     4  O    4.715740   3.733143   5.121981   0.000000
     5  H    4.819820   3.863784   5.390157   0.982601   0.000000
     6  H    5.653444   4.672573   5.996492   0.982602   1.599143
                    6
     6  H    0.000000
 Stoichiometry    H4O2
 Framework group  CS[SG(H4O2)]
 Deg. of freedom     9
 Full point group                 CS      NOp   2
 Largest Abelian subgroup         CS      NOp   2
 Largest concise Abelian subgroup C1      NOp   1
                         Standard orientation:                         
 ---------------------------------------------------------------------
 Center     Atomic      Atomic             Coordinates (Angstroms)
 Number     Number       Type             X           Y           Z
 ---------------------------------------------------------------------
      1          8           0       -0.013510    2.437502    0.000000
      2          1           0       -0.010651    1.454905    0.000000
      3          1           0        0.915052    2.758871    0.000000
      4          8           0       -0.013510   -2.278237    0.000000
      5          1           0       -0.996107   -2.281096    0.000000
      6          1           0        0.307860   -3.206800    0.000000
 ---------------------------------------------------------------------
 Rotational constants (GHZ):         269.8896803           2.4835384           2.4608932
 Leave Link  202 at Fri Aug 26 21:20:34 2022, MaxMem=   536870912 cpu:               0.1 elap:               0.0
 (Enter /usr/site/hpc/x86_64/glibc-2.17/broadwell/gaussian/g16_a.03/pgi-16.5/g16/l301.exe)
 Standard basis: CC-pVTZ (5D, 7F)
 Ernie: Thresh=  0.10000D-02 Tol=  0.10000D-05 Strict=F.
 Ernie:  6 primitive shells out of 84 were deleted.
 There are    92 symmetry adapted cartesian basis functions of A'  symmetry.
 There are    38 symmetry adapted cartesian basis functions of A"  symmetry.
 There are    80 symmetry adapted basis functions of A'  symmetry.
 There are    36 symmetry adapted basis functions of A"  symmetry.
   116 basis functions,   172 primitive gaussians,   130 cartesian basis functions
    10 alpha electrons       10 beta electrons
       nuclear repulsion energy        29.1014160845 Hartrees.
 IExCor=    0 DFT=F Ex=HF Corr=None ExCW=0 ScaHFX=  1.000000
 ScaDFX=  1.000000  1.000000  1.000000  1.000000 ScalE2=  1.000000  1.000000
 IRadAn=      5 IRanWt=     -1 IRanGd=            0 ICorTp=0 IEmpDi=  4
 NAtoms=    6 NActive=    6 NUniq=    6 SFac= 1.00D+00 NAtFMM=   60 NAOKFM=F Big=F
 Integral buffers will be    131072 words long.
 Raffenetti 1 integral format.
 Two-electron integral symmetry is turned on.
 Leave Link  301 at Fri Aug 26 21:20:34 2022, MaxMem=   536870912 cpu:               0.2 elap:               0.1
 (Enter /usr/site/hpc/x86_64/glibc-2.17/broadwell/gaussian/g16_a.03/pgi-16.5/g16/l302.exe)
 NPDir=0 NMtPBC=     1 NCelOv=     1 NCel=       1 NClECP=     1 NCelD=      1
         NCelK=      1 NCelE2=     1 NClLst=     1 CellRange=     0.0.
 One-electron integrals computed using PRISM.
 One-electron integral symmetry used in STVInt
 NBasis=   116 RedAO= T EigKep=  2.58D-03  NBF=    80    36
 NBsUse=   116 1.00D-06 EigRej= -1.00D+00 NBFU=    80    36
 Leave Link  302 at Fri Aug 26 21:20:34 2022, MaxMem=   536870912 cpu:               0.4 elap:               0.1
 (Enter /usr/site/hpc/x86_64/glibc-2.17/broadwell/gaussian/g16_a.03/pgi-16.5/g16/l303.exe)
 DipDrv:  MaxL=1.
 Leave Link  303 at Fri Aug 26 21:20:34 2022, MaxMem=   536870912 cpu:               0.1 elap:               0.0
 (Enter /usr/site/hpc/x86_64/glibc-2.17/broadwell/gaussian/g16_a.03/pgi-16.5/g16/l401.exe)
 ExpMin= 1.03D-01 ExpMax= 1.53D+04 ExpMxC= 5.22D+02 IAcc=3 IRadAn=         5 AccDes= 0.00D+00
 Harris functional with IExCor=  205 and IRadAn=       5 diagonalized for initial guess.
 HarFok:  IExCor=  205 AccDes= 0.00D+00 IRadAn=         5 IDoV= 1 UseB2=F ITyADJ=14
 ICtDFT=  3500011 ScaDFX=  1.000000  1.000000  1.000000  1.000000
 FoFCou: FMM=F IPFlag=           0 FMFlag=      100000 FMFlg1=           0
         NFxFlg=           0 DoJE=T BraDBF=F KetDBF=T FulRan=T
         wScrn=  0.000000 ICntrl=       500 IOpCl=  0 I1Cent=   200000004 NGrid=           0
         NMat0=    1 NMatS0=      1 NMatT0=    0 NMatD0=    1 NMtDS0=    0 NMtDT0=    0
 Petite list used in FoFCou.
 Harris En= -152.298733975254    
 JPrj=0 DoOrth=F DoCkMO=F.
 Initial guess orbital symmetries:
       Occupied  (A') (A') (A') (A') (A') (A') (A') (A') (A") (A")
       Virtual   (A') (A') (A') (A') (A') (A') (A') (A') (A') (A')
                 (A") (A") (A') (A') (A') (A") (A") (A') (A") (A")
                 (A') (A') (A') (A') (A') (A') (A') (A') (A") (A")
                 (A") (A") (A') (A') (A') (A') (A') (A') (A') (A')
                 (A') (A') (A") (A") (A') (A') (A") (A") (A") (A")
                 (A') (A') (A') (A') (A') (A') (A") (A") (A') (A')
                 (A') (A') (A") (A") (A") (A") (A') (A') (A') (A')
                 (A") (A") (A') (A') (A') (A') (A') (A') (A') (A')
                 (A") (A") (A') (A') (A") (A") (A") (A") (A') (A')
                 (A") (A") (A') (A') (A') (A') (A") (A") (A') (A')
                 (A') (A') (A') (A') (A') (A')
 The electronic state of the initial guess is 1-A'.
 Leave Link  401 at Fri Aug 26 21:20:34 2022, MaxMem=   536870912 cpu:               0.7 elap:               0.2
 (Enter /usr/site/hpc/x86_64/glibc-2.17/broadwell/gaussian/g16_a.03/pgi-16.5/g16/l502.exe)
 Keep R1 ints in memory in symmetry-blocked form, NReq=34823457.
 FoFCou: FMM=F IPFlag=           0 FMFlag=           0 FMFlg1=           0
         NFxFlg=           0 DoJE=F BraDBF=F KetDBF=F FulRan=T
         wScrn=  0.000000 ICntrl=       600 IOpCl=  0 I1Cent=           0 NGrid=           0
         NMat0=    1 NMatS0=   6786 NMatT0=    0 NMatD0=    1 NMtDS0=    0 NMtDT0=    0
 Petite list used in FoFCou.
 Closed shell SCF:
 Using DIIS extrapolation, IDIIS=  1040.
 NGot=   536870912 LenX=   525040673 LenY=   525023332
 Requested convergence on RMS density matrix=1.00D-08 within 128 cycles.
 Requested convergence on MAX density matrix=1.00D-06.
 Requested convergence on             energy=1.00D-06.
 No special actions if energy rises.

 Cycle   1  Pass 1  IDiag  1:
 E= -151.930688182305    
 DIIS: error= 6.59D-02 at cycle   1 NSaved=   1.
 NSaved= 1 IEnMin= 1 EnMin= -151.930688182305     IErMin= 1 ErrMin= 6.59D-02
 ErrMax= 6.59D-02  0.00D+00 EMaxC= 1.00D-01 BMatC= 3.98D-01 BMatP= 3.98D-01
 IDIUse=3 WtCom= 3.41D-01 WtEn= 6.59D-01
 Coeff-Com:  0.100D+01
 Coeff-En:   0.100D+01
 Coeff:      0.100D+01
 Gap=     0.505 Goal=   None    Shift=    0.000
 GapD=    0.505 DampG=2.000 DampE=0.500 DampFc=1.0000 IDamp=-1.
 RMSDP=2.50D-03 MaxDP=6.72D-02              OVMax= 1.26D-01

 Cycle   2  Pass 1  IDiag  1:
 E= -152.041668535206     Delta-E=       -0.110980352901 Rises=F Damp=F
 DIIS: error= 4.13D-02 at cycle   2 NSaved=   2.
 NSaved= 2 IEnMin= 2 EnMin= -152.041668535206     IErMin= 2 ErrMin= 4.13D-02
 ErrMax= 4.13D-02  0.00D+00 EMaxC= 1.00D-01 BMatC= 1.11D-01 BMatP= 3.98D-01
 IDIUse=3 WtCom= 5.87D-01 WtEn= 4.13D-01
 Coeff-Com:  0.318D+00 0.682D+00
 Coeff-En:   0.165D+00 0.835D+00
 Coeff:      0.255D+00 0.745D+00
 Gap=     0.641 Goal=   None    Shift=    0.000
 RMSDP=1.33D-03 MaxDP=3.97D-02 DE=-1.11D-01 OVMax= 5.69D-02

 Cycle   3  Pass 1  IDiag  1:
 E= -152.105494848507     Delta-E=       -0.063826313301 Rises=F Damp=F
 DIIS: error= 8.97D-03 at cycle   3 NSaved=   3.
 NSaved= 3 IEnMin= 3 EnMin= -152.105494848507     IErMin= 3 ErrMin= 8.97D-03
 ErrMax= 8.97D-03  0.00D+00 EMaxC= 1.00D-01 BMatC= 5.94D-03 BMatP= 1.11D-01
 IDIUse=3 WtCom= 9.10D-01 WtEn= 8.97D-02
 Coeff-Com: -0.303D-01 0.156D+00 0.874D+00
 Coeff-En:   0.000D+00 0.000D+00 0.100D+01
 Coeff:     -0.276D-01 0.142D+00 0.885D+00
 Gap=     0.613 Goal=   None    Shift=    0.000
 RMSDP=2.43D-04 MaxDP=5.75D-03 DE=-6.38D-02 OVMax= 1.33D-02

 Cycle   4  Pass 1  IDiag  1:
 E= -152.109184583567     Delta-E=       -0.003689735060 Rises=F Damp=F
 DIIS: error= 8.46D-04 at cycle   4 NSaved=   4.
 NSaved= 4 IEnMin= 4 EnMin= -152.109184583567     IErMin= 4 ErrMin= 8.46D-04
 ErrMax= 8.46D-04  0.00D+00 EMaxC= 1.00D-01 BMatC= 3.64D-05 BMatP= 5.94D-03
 IDIUse=3 WtCom= 9.92D-01 WtEn= 8.46D-03
 Coeff-Com:  0.678D-02-0.612D-01-0.238D+00 0.129D+01
 Coeff-En:   0.000D+00 0.000D+00 0.000D+00 0.100D+01
 Coeff:      0.672D-02-0.607D-01-0.236D+00 0.129D+01
 Gap=     0.616 Goal=   None    Shift=    0.000
 RMSDP=5.19D-05 MaxDP=1.04D-03 DE=-3.69D-03 OVMax= 2.21D-03

 Cycle   5  Pass 1  IDiag  1:
 E= -152.109233448915     Delta-E=       -0.000048865348 Rises=F Damp=F
 DIIS: error= 1.92D-04 at cycle   5 NSaved=   5.
 NSaved= 5 IEnMin= 5 EnMin= -152.109233448915     IErMin= 5 ErrMin= 1.92D-04
 ErrMax= 1.92D-04  0.00D+00 EMaxC= 1.00D-01 BMatC= 1.34D-06 BMatP= 3.64D-05
 IDIUse=3 WtCom= 9.98D-01 WtEn= 1.92D-03
 Coeff-Com:  0.532D-03 0.478D-03-0.284D-02-0.223D+00 0.122D+01
 Coeff-En:   0.000D+00 0.000D+00 0.000D+00 0.000D+00 0.100D+01
 Coeff:      0.531D-03 0.477D-03-0.283D-02-0.223D+00 0.122D+01
 Gap=     0.616 Goal=   None    Shift=    0.000
 RMSDP=1.44D-05 MaxDP=3.05D-04 DE=-4.89D-05 OVMax= 6.94D-04

 Cycle   6  Pass 1  IDiag  1:
 E= -152.109236228521     Delta-E=       -0.000002779606 Rises=F Damp=F
 DIIS: error= 2.75D-05 at cycle   6 NSaved=   6.
 NSaved= 6 IEnMin= 6 EnMin= -152.109236228521     IErMin= 6 ErrMin= 2.75D-05
 ErrMax= 2.75D-05  0.00D+00 EMaxC= 1.00D-01 BMatC= 3.97D-08 BMatP= 1.34D-06
 IDIUse=1 WtCom= 1.00D+00 WtEn= 0.00D+00
 Coeff-Com: -0.205D-03 0.165D-02 0.647D-02-0.268D-01-0.982D-01 0.112D+01
 Coeff:     -0.205D-03 0.165D-02 0.647D-02-0.268D-01-0.982D-01 0.112D+01
 Gap=     0.616 Goal=   None    Shift=    0.000
 RMSDP=2.77D-06 MaxDP=7.01D-05 DE=-2.78D-06 OVMax= 1.49D-04

 Cycle   7  Pass 1  IDiag  1:
 E= -152.109236319956     Delta-E=       -0.000000091435 Rises=F Damp=F
 DIIS: error= 8.46D-06 at cycle   7 NSaved=   7.
 NSaved= 7 IEnMin= 7 EnMin= -152.109236319956     IErMin= 7 ErrMin= 8.46D-06
 ErrMax= 8.46D-06  0.00D+00 EMaxC= 1.00D-01 BMatC= 6.88D-09 BMatP= 3.97D-08
 IDIUse=1 WtCom= 1.00D+00 WtEn= 0.00D+00
 Coeff-Com: -0.915D-04 0.310D-03 0.150D-02 0.148D-01-0.136D+00 0.283D+00
 Coeff-Com:  0.836D+00
 Coeff:     -0.915D-04 0.310D-03 0.150D-02 0.148D-01-0.136D+00 0.283D+00
 Coeff:      0.836D+00
 Gap=     0.616 Goal=   None    Shift=    0.000
 RMSDP=6.03D-07 MaxDP=1.87D-05 DE=-9.14D-08 OVMax= 4.17D-05

 Cycle   8  Pass 1  IDiag  1:
 E= -152.109236328054     Delta-E=       -0.000000008098 Rises=F Damp=F
 DIIS: error= 2.45D-06 at cycle   8 NSaved=   8.
 NSaved= 8 IEnMin= 8 EnMin= -152.109236328054     IErMin= 8 ErrMin= 2.45D-06
 ErrMax= 2.45D-06  0.00D+00 EMaxC= 1.00D-01 BMatC= 4.65D-10 BMatP= 6.88D-09
 IDIUse=1 WtCom= 1.00D+00 WtEn= 0.00D+00
 Coeff-Com:  0.259D-04-0.215D-03-0.869D-03 0.383D-02 0.130D-01-0.130D+00
 Coeff-Com: -0.157D-01 0.113D+01
 Coeff:      0.259D-04-0.215D-03-0.869D-03 0.383D-02 0.130D-01-0.130D+00
 Coeff:     -0.157D-01 0.113D+01
 Gap=     0.616 Goal=   None    Shift=    0.000
 RMSDP=1.94D-07 MaxDP=4.00D-06 DE=-8.10D-09 OVMax= 1.41D-05

 Cycle   9  Pass 1  IDiag  1:
 E= -152.109236328930     Delta-E=       -0.000000000876 Rises=F Damp=F
 DIIS: error= 8.94D-07 at cycle   9 NSaved=   9.
 NSaved= 9 IEnMin= 9 EnMin= -152.109236328930     IErMin= 9 ErrMin= 8.94D-07
 ErrMax= 8.94D-07  0.00D+00 EMaxC= 1.00D-01 BMatC= 2.46D-11 BMatP= 4.65D-10
 IDIUse=1 WtCom= 1.00D+00 WtEn= 0.00D+00
 Coeff-Com:  0.737D-06 0.307D-04 0.126D-03-0.243D-02 0.842D-02 0.838D-02
 Coeff-Com: -0.581D-01-0.245D+00 0.129D+01
 Coeff:      0.737D-06 0.307D-04 0.126D-03-0.243D-02 0.842D-02 0.838D-02
 Coeff:     -0.581D-01-0.245D+00 0.129D+01
 Gap=     0.616 Goal=   None    Shift=    0.000
 RMSDP=5.61D-08 MaxDP=1.02D-06 DE=-8.76D-10 OVMax= 3.01D-06

 Cycle  10  Pass 1  IDiag  1:
 E= -152.109236328982     Delta-E=       -0.000000000052 Rises=F Damp=F
 DIIS: error= 9.69D-08 at cycle  10 NSaved=  10.
 NSaved=10 IEnMin=10 EnMin= -152.109236328982     IErMin=10 ErrMin= 9.69D-08
 ErrMax= 9.69D-08  0.00D+00 EMaxC= 1.00D-01 BMatC= 4.03D-13 BMatP= 2.46D-11
 IDIUse=1 WtCom= 1.00D+00 WtEn= 0.00D+00
 Coeff-Com: -0.566D-06-0.437D-05-0.203D-04 0.548D-03-0.202D-02-0.154D-02
 Coeff-Com:  0.158D-01 0.595D-01-0.399D+00 0.133D+01
 Coeff:     -0.566D-06-0.437D-05-0.203D-04 0.548D-03-0.202D-02-0.154D-02
 Coeff:      0.158D-01 0.595D-01-0.399D+00 0.133D+01
 Gap=     0.616 Goal=   None    Shift=    0.000
 RMSDP=6.98D-09 MaxDP=1.89D-07 DE=-5.24D-11 OVMax= 3.96D-07

 SCF Done:  E(RHF) =  -152.109236329     A.U. after   10 cycles
            NFock= 10  Conv=0.70D-08     -V/T= 2.0020
 KE= 1.518010278972D+02 PE=-4.196034454280D+02 EE= 8.659176511735D+01
 Leave Link  502 at Fri Aug 26 21:20:35 2022, MaxMem=   536870912 cpu:               3.6 elap:               1.0
 (Enter /usr/site/hpc/x86_64/glibc-2.17/broadwell/gaussian/g16_a.03/pgi-16.5/g16/l801.exe)
 Windowed orbitals will be sorted by symmetry type.
 ExpMin= 1.03D-01 ExpMax= 1.53D+04 ExpMxC= 5.22D+02 IAcc=3 IRadAn=         5 AccDes= 0.00D+00
 HarFok:  IExCor=  205 AccDes= 0.00D+00 IRadAn=         5 IDoV=-2 UseB2=F ITyADJ=14
 ICtDFT= 12500011 ScaDFX=  1.000000  1.000000  1.000000  1.000000
 Largest valence mixing into a core orbital is  1.12D-04
 Largest core mixing into a valence orbital is  1.76D-05
 Range of M.O.s used for correlation:     3   116
 NBasis=   116 NAE=    10 NBE=    10 NFC=     2 NFV=     0
 NROrb=    114 NOA=     8 NOB=     8 NVA=   106 NVB=   106
 Leave Link  801 at Fri Aug 26 21:20:35 2022, MaxMem=   536870912 cpu:               0.3 elap:               0.1
 (Enter /usr/site/hpc/x86_64/glibc-2.17/broadwell/gaussian/g16_a.03/pgi-16.5/g16/l804.exe)
 Closed-shell transformation, MDV=   536870912 ITran=4 ISComp=2.
 Unit  1 TFree=        834515 TCopy=        406125.
 Semi-Direct transformation.
 ModeAB=           4 MOrb=             8 LenV=     536373928
 LASXX=      2873146 LTotXX=     2873146 LenRXX=     5831278
 LTotAB=     2958132 MaxLAS=     5929824 LenRXY=           0
 NonZer=     8704424 LenScr=    13107200 LnRSAI=     5929824
 LnScr1=     8912896 LExtra=           0 Total=     33781198
 MaxDsk=          -1 SrtSym=           T ITran=            4
 DoSDTr:  NPSUse=  4
 JobTyp=0 Pass  1:  I=   1 to   8.
 (rs|ai) integrals will be sorted in core.
 Complete sort for first half transformation.
 First half transformation complete.
 Complete sort for second half transformation.
 Second half transformation complete.
 Spin components of T(2) and E(2):
     alpha-alpha T2 =       0.1555943877D-01 E2=     -0.6381939979D-01
     alpha-beta  T2 =       0.9183678856D-01 E2=     -0.3982216987D+00
     beta-beta   T2 =       0.1555943877D-01 E2=     -0.6381939979D-01
 ANorm=    0.1059696025D+01
 E2 =    -0.5258604983D+00 EUMP2 =    -0.15263509682729D+03
 Leave Link  804 at Fri Aug 26 21:20:36 2022, MaxMem=   536870912 cpu:               3.2 elap:               0.8
 (Enter /usr/site/hpc/x86_64/glibc-2.17/broadwell/gaussian/g16_a.03/pgi-16.5/g16/l913.exe)
 CIDS:  MDV=   536870912.
 Frozen-core window:  NFC=   2 NFV=   0.
 IFCWin=0 IBDFC=1 NFBD=     0     0 NFCmp=     0     0 NFFFC=     0     0
 Using DD3R+UMP44R for 1st iteration.
 Using DD4RQ for 2nd and later iterations.
 Keep R2 and R3 ints in memory in symmetry-blocked form, NReq=35357534.
 FoFCou: FMM=F IPFlag=           0 FMFlag=           0 FMFlg1=           0
         NFxFlg=           0 DoJE=F BraDBF=F KetDBF=F FulRan=T
         wScrn=  0.000000 ICntrl=       600 IOpCl=  0 I1Cent=           0 NGrid=           0
         NMat0=    1 NMatS0=   6786 NMatT0=    0 NMatD0=    1 NMtDS0=    0 NMtDT0=    0
 Petite list used in FoFCou.
 CIDS: In Core Option IDoMem=           1.
 CCSD(T)
 =======
 Iterations=  50 Convergence= 0.100D-06
 Produce multiple copies of IABC intergrals
 Iteration Nr.   1
 **********************
 DD1Dir will call FoFMem   1 times, MxPair=        72
 NAB=    36 NAA=     0 NBB=     0.
 MP4(R+Q)=  0.75425958D-02
 Maximum subspace dimension=  5
 A-vector RMS=  1.7408714D-03 Max=  6.1743974D-03 conv= 1.00D-05.
 RLE energy=       -0.5257856896
 E3=       -0.75382575D-02        EUMP3=      -0.15264263508D+03
 E4(DQ)=   -0.15467754D-02        UMP4(DQ)=   -0.15264418186D+03
 E4(SDQ)=  -0.45958375D-02        UMP4(SDQ)=  -0.15264723092D+03
 VARIATIONAL ENERGIES WITH THE FIRST-ORDER WAVEFUNCTION:
 DE(Corr)= -0.52578569     E(Corr)=     -152.63502202    
 NORM(A)=   0.10600533D+01
 Iteration Nr.   2
 **********************
 DD1Dir will call FoFMem   1 times, MxPair=        72
 NAB=    36 NAA=     0 NBB=     0.
 A-vector RMS=  2.1296589D-04 Max=  2.3134581D-03 conv= 1.00D-05.
 RLE energy=       -0.5368247144
 DE(Corr)= -0.53566860     E(CORR)=     -152.64490493     Delta=-9.88D-03
 NORM(A)=   0.10637898D+01
 Iteration Nr.   3
 **********************
 DD1Dir will call FoFMem   1 times, MxPair=        72
 NAB=    36 NAA=     0 NBB=     0.
 A-vector RMS=  1.4070164D-04 Max=  7.4037514D-04 conv= 1.00D-05.
 RLE energy=       -0.5373194017
 DE(Corr)= -0.53673544     E(CORR)=     -152.64597177     Delta=-1.07D-03
 NORM(A)=   0.10644242D+01
 Iteration Nr.   4
 **********************
 DD1Dir will call FoFMem   1 times, MxPair=        72
 NAB=    36 NAA=     0 NBB=     0.
 A-vector RMS=  2.6733174D-05 Max=  1.4068412D-04 conv= 1.00D-05.
 RLE energy=       -0.5374019560
 DE(Corr)= -0.53736696     E(CORR)=     -152.64660329     Delta=-6.32D-04
 NORM(A)=   0.10645339D+01
 Iteration Nr.   5
 **********************
 DD1Dir will call FoFMem   1 times, MxPair=        72
 NAB=    36 NAA=     0 NBB=     0.
 A-vector RMS=  1.8494616D-05 Max=  1.3494207D-04 conv= 1.00D-05.
 RLE energy=       -0.5374105570
 DE(Corr)= -0.53740381     E(CORR)=     -152.64664014     Delta=-3.69D-05
 NORM(A)=   0.10645433D+01
 Iteration Nr.   6
 **********************
 DD1Dir will call FoFMem   1 times, MxPair=        72
 NAB=    36 NAA=     0 NBB=     0.
 A-vector RMS=  5.6406058D-06 Max=  4.4324008D-05 conv= 1.00D-05.
 RLE energy=       -0.5374016958
 DE(Corr)= -0.53740700     E(CORR)=     -152.64664333     Delta=-3.19D-06
 NORM(A)=   0.10645433D+01
 Iteration Nr.   7
 **********************
 DD1Dir will call FoFMem   1 times, MxPair=        72
 NAB=    36 NAA=     0 NBB=     0.
 A-vector RMS=  2.6549474D-06 Max=  1.8855003D-05 conv= 1.00D-05.
 RLE energy=       -0.5374077602
 DE(Corr)= -0.53740717     E(CORR)=     -152.64664349     Delta=-1.62D-07
 NORM(A)=   0.10645454D+01
 Iteration Nr.   8
 **********************
 DD1Dir will call FoFMem   1 times, MxPair=        72
 NAB=    36 NAA=     0 NBB=     0.
 A-vector RMS=  7.2989244D-07 Max=  6.4250321D-06 conv= 1.00D-05.
 RLE energy=       -0.5374065568
 DE(Corr)= -0.53740673     E(CORR)=     -152.64664306     Delta= 4.35D-07
 NORM(A)=   0.10645455D+01
 Iteration Nr.   9
 **********************
 DD1Dir will call FoFMem   1 times, MxPair=        72
 NAB=    36 NAA=     0 NBB=     0.
 A-vector RMS=  1.6506766D-07 Max=  1.5402600D-06 conv= 1.00D-05.
 RLE energy=       -0.5374068565
 DE(Corr)= -0.53740693     E(CORR)=     -152.64664326     Delta=-1.97D-07
 NORM(A)=   0.10645458D+01
 Iteration Nr.  10
 **********************
 DD1Dir will call FoFMem   1 times, MxPair=        72
 NAB=    36 NAA=     0 NBB=     0.
 A-vector RMS=  6.3344607D-08 Max=  5.1475447D-07 conv= 1.00D-05.
 RLE energy=       -0.5374070020
 DE(Corr)= -0.53740698     E(CORR)=     -152.64664331     Delta=-5.21D-08
 NORM(A)=   0.10645459D+01
 CI/CC converged in   10 iterations to DelEn=-5.21D-08 Conv= 1.00D-07 ErrA1= 6.33D-08 Conv= 1.00D-05
 Wavefunction amplitudes converged. E(Corr)=     -152.64664331    
 Largest amplitude= 4.79D-02
 IPart=  4 IA=    7   11.05% done.
 IPart=  1 IA=   13   21.46% done.
 IPart=  2 IA=   19   31.21% done.
 IPart=  4 IA=   25   40.32% done.
 IPart=  4 IA=   32   50.13% done.
 IPart=  4 IA=   40   60.27% done.
 IPart=  3 IA=   49   70.30% done.
 IPart=  1 IA=   60   80.58% done.
 IPart=  1 IA=   74   90.51% done.
 Time for triples=       45.96 seconds.
 T4(CCSD)= -0.16022201D-01
 T5(CCSD)=  0.40145438D-03
 CCSD(T)= -0.15266226405D+03
 Discarding MO integrals.
 Leave Link  913 at Fri Aug 26 21:20:53 2022, MaxMem=   536870912 cpu:              67.1 elap:              16.8
 (Enter /usr/site/hpc/x86_64/glibc-2.17/broadwell/gaussian/g16_a.03/pgi-16.5/g16/l601.exe)
 Copying SCF densities to generalized density rwf, IOpCl= 0 IROHF=0.

 **********************************************************************

            Population analysis using the SCF density.

 **********************************************************************

 Orbital symmetries:
       Occupied  (A') (A') (A') (A') (A') (A') (A') (A') (A") (A")
       Virtual   (A') (A') (A') (A') (A') (A') (A') (A') (A') (A')
                 (A") (A') (A") (A') (A') (A") (A") (A') (A") (A")
                 (A') (A') (A') (A') (A') (A') (A') (A') (A") (A")
                 (A") (A") (A') (A') (A') (A') (A') (A') (A') (A')
                 (A') (A') (A") (A") (A') (A') (A") (A") (A') (A')
                 (A") (A") (A') (A') (A') (A') (A") (A") (A") (A")
                 (A') (A') (A') (A') (A") (A") (A') (A') (A') (A')
                 (A") (A") (A') (A') (A') (A') (A') (A') (A') (A')
                 (A") (A") (A') (A') (A") (A") (A") (A") (A') (A')
                 (A") (A") (A') (A') (A') (A') (A") (A") (A') (A')
                 (A') (A') (A') (A') (A') (A')
 The electronic state is 1-A'.
 Alpha  occ. eigenvalues --  -20.56467 -20.54819  -1.33762  -1.32133  -0.71171
 Alpha  occ. eigenvalues --   -0.69541  -0.57281  -0.55619  -0.50886  -0.49265
 Alpha virt. eigenvalues --    0.12384   0.15591   0.19192   0.22534   0.53424
 Alpha virt. eigenvalues --    0.55433   0.56516   0.57999   0.67166   0.69269
 Alpha virt. eigenvalues --    0.78015   0.78644   0.79578   0.80794   0.82943
 Alpha virt. eigenvalues --    0.84018   0.85589   0.86643   0.96364   0.97988
 Alpha virt. eigenvalues --    1.13714   1.15307   1.17549   1.18514   1.50847
 Alpha virt. eigenvalues --    1.51183   1.52811   1.53082   1.99720   2.01351
 Alpha virt. eigenvalues --    2.05801   2.07416   2.09640   2.10151   2.13970
 Alpha virt. eigenvalues --    2.15573   2.25418   2.25835   2.60610   2.62747
 Alpha virt. eigenvalues --    2.91873   2.95123   3.38482   3.40099   3.49047
 Alpha virt. eigenvalues --    3.50661   3.52258   3.53873   3.58668   3.60355
 Alpha virt. eigenvalues --    3.77742   3.79369   3.84599   3.86214   3.86836
 Alpha virt. eigenvalues --    3.88408   3.92702   3.94305   4.02145   4.03787
 Alpha virt. eigenvalues --    4.07235   4.09094   4.14434   4.16121   4.29218
 Alpha virt. eigenvalues --    4.30854   4.39156   4.40690   4.44737   4.46353
 Alpha virt. eigenvalues --    4.65607   4.67219   4.80354   4.81713   5.03456
 Alpha virt. eigenvalues --    5.05124   5.23159   5.24857   5.53202   5.54985
 Alpha virt. eigenvalues --    5.96959   5.98601   6.39453   6.41122   6.85221
 Alpha virt. eigenvalues --    6.86858   6.88717   6.90347   6.93681   6.95400
 Alpha virt. eigenvalues --    6.98142   6.99785   7.07204   7.08575   7.12044
 Alpha virt. eigenvalues --    7.13251   7.17311   7.18952   7.46209   7.48141
 Alpha virt. eigenvalues --    7.69606   7.71109   8.14048   8.16461  12.47264
 Alpha virt. eigenvalues --   12.53065
          Condensed to atoms (all electrons):
               1          2          3          4          5          6
     1  O    7.824548   0.346487   0.346647  -0.000029   0.000010   0.000001
     2  H    0.346487   0.428280  -0.037210   0.001305  -0.000125  -0.000043
     3  H    0.346647  -0.037210   0.435535  -0.000028   0.000003   0.000001
     4  O   -0.000029   0.001305  -0.000028   7.826485   0.342827   0.345188
     5  H    0.000010  -0.000125   0.000003   0.342827   0.434266  -0.034850
     6  H    0.000001  -0.000043   0.000001   0.345188  -0.034850   0.430513
 Mulliken charges:
               1
     1  O   -0.517665
     2  H    0.261305
     3  H    0.255050
     4  O   -0.515750
     5  H    0.257869
     6  H    0.259190
 Sum of Mulliken charges =  -0.00000
 Mulliken charges with hydrogens summed into heavy atoms:
               1
     1  O   -0.001309
     4  O    0.001309
 Electronic spatial extent (au):  <R**2>=            438.9035
 Charge=             -0.0000 electrons
 Dipole moment (field-independent basis, Debye):
    X=              0.4654    Y=             -2.8372    Z=              0.0000  Tot=              2.8751
 Quadrupole moment (field-independent basis, Debye-Ang):
   XX=             -9.6478   YY=             -7.8584   ZZ=            -14.7175
   XY=              6.5933   XZ=              0.0000   YZ=              0.0000
 Traceless Quadrupole moment (field-independent basis, Debye-Ang):
   XX=              1.0934   YY=              2.8829   ZZ=             -3.9763
   XY=              6.5933   XZ=              0.0000   YZ=              0.0000
 Octapole moment (field-independent basis, Debye-Ang**2):
  XXX=             -0.2947  YYY=            -46.0790  ZZZ=              0.0000  XYY=             12.6543
  XXY=             -1.2330  XXZ=              0.0000  XZZ=              0.0617  YZZ=             -0.3991
  YYZ=              0.0000  XYZ=              0.0000
 Hexadecapole moment (field-independent basis, Debye-Ang**3):
 XXXX=            -10.4566 YYYY=           -327.3002 ZZZZ=            -11.3482 XXXY=              3.7764
 XXXZ=              0.0000 YYYX=             30.4570 YYYZ=              0.0000 ZZZX=              0.0000
 ZZZY=              0.0000 XXYY=            -55.1849 XXZZ=             -4.4033 YYZZ=            -86.8276
 XXYZ=              0.0000 YYXZ=              0.0000 ZZXY=             -1.9011
 N-N= 2.910141608454D+01 E-N=-4.196034442473D+02  KE= 1.518010278972D+02
 Symmetry A'   KE= 1.427659427010D+02
 Symmetry A"   KE= 9.035085196131D+00
 Leave Link  601 at Fri Aug 26 21:20:53 2022, MaxMem=   536870912 cpu:               0.1 elap:               0.0
 (Enter /usr/site/hpc/x86_64/glibc-2.17/broadwell/gaussian/g16_a.03/pgi-16.5/g16/l9999.exe)
 1\1\GINC-N004\SP\RCCSD(T)-FC\CC-pVTZ\H4O2\C7441284\26-Aug-2022\0\\#p C
 CSD(T)/cc-pVTZ\\H2O_H2O_3374\\0,1\O,0,0.,-0.009833,0.\H,0,-0.799571,-0
 .580965,0.\H,0,0.799571,-0.580965,0.\O,0,-3.84529,-2.739658,0.\H,0,-4.
 416422,-1.940087,0.\H,0,-4.416422,-3.53923,0.\\Version=ES64L-G16RevA.0
 3\State=1-A'\HF=-152.1092363\MP2=-152.6350968\MP3=-152.6426351\MP4D=-1
 52.6517245\MP4DQ=-152.6441819\MP4SDQ=-152.6472309\CCSD=-152.6466433\CC
 SD(T)=-152.6622641\RMSD=6.975e-09\PG=CS [SG(H4O2)]\\@


 WHEN HAVING A MEETING OF THE MINDS,
 MAKE SURE YOU HAVE THE EQUIPMENT FOR IT.
 Job cpu time:       0 days  0 hours  1 minutes 16.4 seconds.
 Elapsed time:       0 days  0 hours  0 minutes 19.4 seconds.
 File lengths (MBytes):  RWF=    328 Int=      0 D2E=      0 Chk=      8 Scr=      8
 Normal termination of Gaussian 16 at Fri Aug 26 21:20:53 2022.
