 Entering Gaussian System, Link 0=g16
 Input=H2O_H2O_295.com
 Output=H2O_H2O_295.log
 Initial command:
 /usr/site/hpc/x86_64/glibc-2.17/broadwell/gaussian/g16_a.03/pgi-16.5/g16/l1.exe "/gpfs/gpfs1/scratch/c7441284/ForceFieldModel/FittingData2/Gau-4164866.inp" -scrdir="/gpfs/gpfs1/scratch/c7441284/ForceFieldModel/FittingData2/"
 Entering Link 1 = /usr/site/hpc/x86_64/glibc-2.17/broadwell/gaussian/g16_a.03/pgi-16.5/g16/l1.exe PID=   4164867.
  
 Copyright (c) 1988,1990,1992,1993,1995,1998,2003,2009,2016,
            Gaussian, Inc.  All Rights Reserved.
  
 This is part of the Gaussian(R) 16 program.  It is based on
 the Gaussian(R) 09 system (copyright 2009, Gaussian, Inc.),
 the Gaussian(R) 03 system (copyright 2003, Gaussian, Inc.),
 the Gaussian(R) 98 system (copyright 1998, Gaussian, Inc.),
 the Gaussian(R) 94 system (copyright 1995, Gaussian, Inc.),
 the Gaussian 92(TM) system (copyright 1992, Gaussian, Inc.),
 the Gaussian 90(TM) system (copyright 1990, Gaussian, Inc.),
 the Gaussian 88(TM) system (copyright 1988, Gaussian, Inc.),
 the Gaussian 86(TM) system (copyright 1986, Carnegie Mellon
 University), and the Gaussian 82(TM) system (copyright 1983,
 Carnegie Mellon University). Gaussian is a federally registered
 trademark of Gaussian, Inc.
  
 This software contains proprietary and confidential information,
 including trade secrets, belonging to Gaussian, Inc.
  
 This software is provided under written license and may be
 used, copied, transmitted, or stored only in accord with that
 written license.
  
 The following legend is applicable only to US Government
 contracts under FAR:
  
                    RESTRICTED RIGHTS LEGEND
  
 Use, reproduction and disclosure by the US Government is
 subject to restrictions as set forth in subparagraphs (a)
 and (c) of the Commercial Computer Software - Restricted
 Rights clause in FAR 52.227-19.
  
 Gaussian, Inc.
 340 Quinnipiac St., Bldg. 40, Wallingford CT 06492
  
  
 ---------------------------------------------------------------
 Warning -- This program may not be used in any manner that
 competes with the business of Gaussian, Inc. or will provide
 assistance to any competitor of Gaussian, Inc.  The licensee
 of this program is prohibited from giving any competitor of
 Gaussian, Inc. access to this program.  By using this program,
 the user acknowledges that Gaussian, Inc. is engaged in the
 business of creating and licensing software in the field of
 computational chemistry and represents and warrants to the
 licensee that it is not a competitor of Gaussian, Inc. and that
 it will not use this program in any manner prohibited above.
 ---------------------------------------------------------------
  

 Cite this work as:
 Gaussian 16, Revision A.03,
 M. J. Frisch, G. W. Trucks, H. B. Schlegel, G. E. Scuseria, 
 M. A. Robb, J. R. Cheeseman, G. Scalmani, V. Barone, 
 G. A. Petersson, H. Nakatsuji, X. Li, M. Caricato, A. V. Marenich, 
 J. Bloino, B. G. Janesko, R. Gomperts, B. Mennucci, H. P. Hratchian, 
 J. V. Ortiz, A. F. Izmaylov, J. L. Sonnenberg, D. Williams-Young, 
 F. Ding, F. Lipparini, F. Egidi, J. Goings, B. Peng, A. Petrone, 
 T. Henderson, D. Ranasinghe, V. G. Zakrzewski, J. Gao, N. Rega, 
 G. Zheng, W. Liang, M. Hada, M. Ehara, K. Toyota, R. Fukuda, 
 J. Hasegawa, M. Ishida, T. Nakajima, Y. Honda, O. Kitao, H. Nakai, 
 T. Vreven, K. Throssell, J. A. Montgomery, Jr., J. E. Peralta, 
 F. Ogliaro, M. J. Bearpark, J. J. Heyd, E. N. Brothers, K. N. Kudin, 
 V. N. Staroverov, T. A. Keith, R. Kobayashi, J. Normand, 
 K. Raghavachari, A. P. Rendell, J. C. Burant, S. S. Iyengar, 
 J. Tomasi, M. Cossi, J. M. Millam, M. Klene, C. Adamo, R. Cammi, 
 J. W. Ochterski, R. L. Martin, K. Morokuma, O. Farkas, 
 J. B. Foresman, and D. J. Fox, Gaussian, Inc., Wallingford CT, 2016.
 
 ******************************************
 Gaussian 16:  ES64L-G16RevA.03 25-Dec-2016
                26-Aug-2022 
 ******************************************
 %NProcShared=4
 Will use up to    4 processors via shared memory.
 %Mem=4GB
 %Chk=H2O_H2O_295.chk
 ------------------
 #p CCSD(T)/cc-pVTZ
 ------------------
 1/38=1,172=1/1;
 2/12=2,17=6,18=5,40=1/2;
 3/5=16,6=1,11=9,25=1,30=1/1,2,3;
 4//1;
 5/5=2,38=5/2;
 8/6=4,9=120000,10=1/1,4;
 9/5=7,14=2/13;
 6/7=2,8=2,9=2,10=2/1;
 99/5=1,9=1/99;
 Leave Link    1 at Fri Aug 26 17:13:56 2022, MaxMem=   536870912 cpu:               0.5 elap:               0.1
 (Enter /usr/site/hpc/x86_64/glibc-2.17/broadwell/gaussian/g16_a.03/pgi-16.5/g16/l101.exe)
 -----------
 H2O_H2O_295
 -----------
 Symbolic Z-matrix:
 Charge =  0 Multiplicity = 1
 O                     0.       -0.00983   0. 
 H                    -0.79957  -0.58097   0. 
 H                     0.79957  -0.58097   0. 
 O                    -1.8488   -1.31636   0. 
 H                    -2.60742  -0.69185   0. 
 H                    -2.19353  -2.2365    0. 
 
 ITRead=  0  0  0  0  0  0
 MicOpt= -1 -1 -1 -1 -1 -1
 NAtoms=      6 NQM=        6 NQMF=       0 NMMI=      0 NMMIF=      0
                NMic=       0 NMicF=      0.
                    Isotopes and Nuclear Properties:
 (Nuclear quadrupole moments (NQMom) in fm**2, nuclear magnetic moments (NMagM)
  in nuclear magnetons)

  Atom         1           2           3           4           5           6
 IAtWgt=          16           1           1          16           1           1
 AtmWgt=  15.9949146   1.0078250   1.0078250  15.9949146   1.0078250   1.0078250
 NucSpn=           0           1           1           0           1           1
 AtZEff=  -0.0000000  -0.0000000  -0.0000000  -0.0000000  -0.0000000  -0.0000000
 NQMom=    0.0000000   0.0000000   0.0000000   0.0000000   0.0000000   0.0000000
 NMagM=    0.0000000   2.7928460   2.7928460   0.0000000   2.7928460   2.7928460
 AtZNuc=   8.0000000   1.0000000   1.0000000   8.0000000   1.0000000   1.0000000
 Leave Link  101 at Fri Aug 26 17:13:56 2022, MaxMem=   536870912 cpu:               0.7 elap:               0.2
 (Enter /usr/site/hpc/x86_64/glibc-2.17/broadwell/gaussian/g16_a.03/pgi-16.5/g16/l202.exe)
                          Input orientation:                          
 ---------------------------------------------------------------------
 Center     Atomic      Atomic             Coordinates (Angstroms)
 Number     Number       Type             X           Y           Z
 ---------------------------------------------------------------------
      1          8           0        0.000000   -0.009833    0.000000
      2          1           0       -0.799571   -0.580965    0.000000
      3          1           0        0.799571   -0.580965    0.000000
      4          8           0       -1.848801   -1.316355    0.000000
      5          1           0       -2.607416   -0.691848    0.000000
      6          1           0       -2.193528   -2.236501    0.000000
 ---------------------------------------------------------------------
                    Distance matrix (angstroms):
                    1          2          3          4          5
     1  O    0.000000
     2  H    0.982601   0.000000
     3  H    0.982601   1.599142   0.000000
     4  O    2.263861   1.281281   2.748576   0.000000
     5  H    2.695137   1.811242   3.408791   0.982602   0.000000
     6  H    3.125638   2.164236   3.420445   0.982601   1.599142
                    6
     6  H    0.000000
 Stoichiometry    H4O2
 Framework group  CS[SG(H4O2)]
 Deg. of freedom     9
 Full point group                 CS      NOp   2
 Largest Abelian subgroup         CS      NOp   2
 Largest concise Abelian subgroup C1      NOp   1
                         Standard orientation:                         
 ---------------------------------------------------------------------
 Center     Atomic      Atomic             Coordinates (Angstroms)
 Number     Number       Type             X           Y           Z
 ---------------------------------------------------------------------
      1          8           0        0.026876    1.218475   -0.000000
      2          1           0        0.021905    0.235886   -0.000000
      3          1           0       -0.900994    1.541839   -0.000000
      4          8           0        0.026876   -1.045385    0.000000
      5          1           0        0.974697   -1.304499    0.000000
      6          1           0       -0.525620   -1.857945    0.000000
 ---------------------------------------------------------------------
 Rotational constants (GHZ):         250.7395471          10.3396537           9.9301671
 Leave Link  202 at Fri Aug 26 17:13:56 2022, MaxMem=   536870912 cpu:               0.0 elap:               0.0
 (Enter /usr/site/hpc/x86_64/glibc-2.17/broadwell/gaussian/g16_a.03/pgi-16.5/g16/l301.exe)
 Standard basis: CC-pVTZ (5D, 7F)
 Ernie: Thresh=  0.10000D-02 Tol=  0.10000D-05 Strict=F.
 Ernie:  6 primitive shells out of 84 were deleted.
 There are    92 symmetry adapted cartesian basis functions of A'  symmetry.
 There are    38 symmetry adapted cartesian basis functions of A"  symmetry.
 There are    80 symmetry adapted basis functions of A'  symmetry.
 There are    36 symmetry adapted basis functions of A"  symmetry.
   116 basis functions,   172 primitive gaussians,   130 cartesian basis functions
    10 alpha electrons       10 beta electrons
       nuclear repulsion energy        41.4714019405 Hartrees.
 IExCor=    0 DFT=F Ex=HF Corr=None ExCW=0 ScaHFX=  1.000000
 ScaDFX=  1.000000  1.000000  1.000000  1.000000 ScalE2=  1.000000  1.000000
 IRadAn=      5 IRanWt=     -1 IRanGd=            0 ICorTp=0 IEmpDi=  4
 NAtoms=    6 NActive=    6 NUniq=    6 SFac= 1.00D+00 NAtFMM=   60 NAOKFM=F Big=F
 Integral buffers will be    131072 words long.
 Raffenetti 1 integral format.
 Two-electron integral symmetry is turned on.
 Leave Link  301 at Fri Aug 26 17:13:56 2022, MaxMem=   536870912 cpu:               0.2 elap:               0.0
 (Enter /usr/site/hpc/x86_64/glibc-2.17/broadwell/gaussian/g16_a.03/pgi-16.5/g16/l302.exe)
 NPDir=0 NMtPBC=     1 NCelOv=     1 NCel=       1 NClECP=     1 NCelD=      1
         NCelK=      1 NCelE2=     1 NClLst=     1 CellRange=     0.0.
 One-electron integrals computed using PRISM.
 One-electron integral symmetry used in STVInt
 NBasis=   116 RedAO= T EigKep=  1.99D-03  NBF=    80    36
 NBsUse=   116 1.00D-06 EigRej= -1.00D+00 NBFU=    80    36
 Leave Link  302 at Fri Aug 26 17:13:56 2022, MaxMem=   536870912 cpu:               0.5 elap:               0.1
 (Enter /usr/site/hpc/x86_64/glibc-2.17/broadwell/gaussian/g16_a.03/pgi-16.5/g16/l303.exe)
 DipDrv:  MaxL=1.
 Leave Link  303 at Fri Aug 26 17:13:56 2022, MaxMem=   536870912 cpu:               0.1 elap:               0.0
 (Enter /usr/site/hpc/x86_64/glibc-2.17/broadwell/gaussian/g16_a.03/pgi-16.5/g16/l401.exe)
 ExpMin= 1.03D-01 ExpMax= 1.53D+04 ExpMxC= 5.22D+02 IAcc=3 IRadAn=         5 AccDes= 0.00D+00
 Harris functional with IExCor=  205 and IRadAn=       5 diagonalized for initial guess.
 HarFok:  IExCor=  205 AccDes= 0.00D+00 IRadAn=         5 IDoV= 1 UseB2=F ITyADJ=14
 ICtDFT=  3500011 ScaDFX=  1.000000  1.000000  1.000000  1.000000
 FoFCou: FMM=F IPFlag=           0 FMFlag=      100000 FMFlg1=           0
         NFxFlg=           0 DoJE=T BraDBF=F KetDBF=T FulRan=T
         wScrn=  0.000000 ICntrl=       500 IOpCl=  0 I1Cent=   200000004 NGrid=           0
         NMat0=    1 NMatS0=      1 NMatT0=    0 NMatD0=    1 NMtDS0=    0 NMtDT0=    0
 Petite list used in FoFCou.
 Harris En= -152.302017541608    
 JPrj=0 DoOrth=F DoCkMO=F.
 Initial guess orbital symmetries:
       Occupied  (A') (A') (A') (A') (A') (A') (A') (A') (A") (A")
       Virtual   (A') (A') (A') (A') (A') (A') (A') (A') (A") (A')
                 (A') (A") (A') (A') (A") (A") (A') (A") (A') (A')
                 (A") (A') (A') (A') (A') (A') (A') (A") (A") (A")
                 (A') (A') (A') (A') (A') (A') (A") (A') (A') (A')
                 (A') (A') (A") (A") (A') (A") (A') (A") (A") (A')
                 (A") (A') (A') (A') (A") (A') (A") (A') (A") (A')
                 (A") (A') (A') (A') (A") (A') (A") (A') (A") (A')
                 (A") (A') (A') (A') (A') (A') (A') (A') (A') (A")
                 (A') (A") (A') (A") (A") (A') (A") (A") (A') (A')
                 (A") (A") (A") (A') (A') (A') (A') (A') (A') (A")
                 (A') (A') (A') (A') (A') (A')
 The electronic state of the initial guess is 1-A'.
 Leave Link  401 at Fri Aug 26 17:13:56 2022, MaxMem=   536870912 cpu:               0.8 elap:               0.2
 (Enter /usr/site/hpc/x86_64/glibc-2.17/broadwell/gaussian/g16_a.03/pgi-16.5/g16/l502.exe)
 Keep R1 ints in memory in symmetry-blocked form, NReq=34823457.
 FoFCou: FMM=F IPFlag=           0 FMFlag=           0 FMFlg1=           0
         NFxFlg=           0 DoJE=F BraDBF=F KetDBF=F FulRan=T
         wScrn=  0.000000 ICntrl=       600 IOpCl=  0 I1Cent=           0 NGrid=           0
         NMat0=    1 NMatS0=   6786 NMatT0=    0 NMatD0=    1 NMtDS0=    0 NMtDT0=    0
 Petite list used in FoFCou.
 Closed shell SCF:
 Using DIIS extrapolation, IDIIS=  1040.
 NGot=   536870912 LenX=   525040673 LenY=   525023332
 Requested convergence on RMS density matrix=1.00D-08 within 128 cycles.
 Requested convergence on MAX density matrix=1.00D-06.
 Requested convergence on             energy=1.00D-06.
 No special actions if energy rises.

 Cycle   1  Pass 1  IDiag  1:
 E= -151.899987945978    
 DIIS: error= 5.69D-02 at cycle   1 NSaved=   1.
 NSaved= 1 IEnMin= 1 EnMin= -151.899987945978     IErMin= 1 ErrMin= 5.69D-02
 ErrMax= 5.69D-02  0.00D+00 EMaxC= 1.00D-01 BMatC= 4.01D-01 BMatP= 4.01D-01
 IDIUse=3 WtCom= 4.31D-01 WtEn= 5.69D-01
 Coeff-Com:  0.100D+01
 Coeff-En:   0.100D+01
 Coeff:      0.100D+01
 Gap=     0.414 Goal=   None    Shift=    0.000
 GapD=    0.414 DampG=2.000 DampE=0.500 DampFc=1.0000 IDamp=-1.
 RMSDP=3.29D-03 MaxDP=9.78D-02              OVMax= 1.44D-01

 Cycle   2  Pass 1  IDiag  1:
 E= -152.018881511105     Delta-E=       -0.118893565127 Rises=F Damp=F
 DIIS: error= 3.18D-02 at cycle   2 NSaved=   2.
 NSaved= 2 IEnMin= 2 EnMin= -152.018881511105     IErMin= 2 ErrMin= 3.18D-02
 ErrMax= 3.18D-02  0.00D+00 EMaxC= 1.00D-01 BMatC= 1.02D-01 BMatP= 4.01D-01
 IDIUse=3 WtCom= 6.82D-01 WtEn= 3.18D-01
 Coeff-Com:  0.304D+00 0.696D+00
 Coeff-En:   0.108D+00 0.892D+00
 Coeff:      0.242D+00 0.758D+00
 Gap=     0.567 Goal=   None    Shift=    0.000
 RMSDP=1.68D-03 MaxDP=5.09D-02 DE=-1.19D-01 OVMax= 6.40D-02

 Cycle   3  Pass 1  IDiag  1:
 E= -152.077006726986     Delta-E=       -0.058125215881 Rises=F Damp=F
 DIIS: error= 7.36D-03 at cycle   3 NSaved=   3.
 NSaved= 3 IEnMin= 3 EnMin= -152.077006726986     IErMin= 3 ErrMin= 7.36D-03
 ErrMax= 7.36D-03  0.00D+00 EMaxC= 1.00D-01 BMatC= 5.76D-03 BMatP= 1.02D-01
 IDIUse=3 WtCom= 9.26D-01 WtEn= 7.36D-02
 Coeff-Com: -0.309D-01 0.158D+00 0.873D+00
 Coeff-En:   0.000D+00 0.000D+00 0.100D+01
 Coeff:     -0.286D-01 0.147D+00 0.882D+00
 Gap=     0.534 Goal=   None    Shift=    0.000
 RMSDP=2.76D-04 MaxDP=8.12D-03 DE=-5.81D-02 OVMax= 1.52D-02

 Cycle   4  Pass 1  IDiag  1:
 E= -152.080560782496     Delta-E=       -0.003554055510 Rises=F Damp=F
 DIIS: error= 5.57D-04 at cycle   4 NSaved=   4.
 NSaved= 4 IEnMin= 4 EnMin= -152.080560782496     IErMin= 4 ErrMin= 5.57D-04
 ErrMax= 5.57D-04  0.00D+00 EMaxC= 1.00D-01 BMatC= 3.56D-05 BMatP= 5.76D-03
 IDIUse=3 WtCom= 9.94D-01 WtEn= 5.57D-03
 Coeff-Com:  0.227D-02-0.355D-01-0.121D+00 0.115D+01
 Coeff-En:   0.000D+00 0.000D+00 0.000D+00 0.100D+01
 Coeff:      0.225D-02-0.353D-01-0.121D+00 0.115D+01
 Gap=     0.539 Goal=   None    Shift=    0.000
 RMSDP=6.54D-05 MaxDP=1.26D-03 DE=-3.55D-03 OVMax= 2.39D-03

 Cycle   5  Pass 1  IDiag  1:
 E= -152.080610368040     Delta-E=       -0.000049585544 Rises=F Damp=F
 DIIS: error= 2.81D-04 at cycle   5 NSaved=   5.
 NSaved= 5 IEnMin= 5 EnMin= -152.080610368040     IErMin= 5 ErrMin= 2.81D-04
 ErrMax= 2.81D-04  0.00D+00 EMaxC= 1.00D-01 BMatC= 6.43D-06 BMatP= 3.56D-05
 IDIUse=3 WtCom= 9.97D-01 WtEn= 2.81D-03
 Coeff-Com:  0.381D-02-0.268D-01-0.121D+00 0.323D+00 0.821D+00
 Coeff-En:   0.000D+00 0.000D+00 0.000D+00 0.000D+00 0.100D+01
 Coeff:      0.380D-02-0.268D-01-0.121D+00 0.322D+00 0.821D+00
 Gap=     0.539 Goal=   None    Shift=    0.000
 RMSDP=2.16D-05 MaxDP=3.84D-04 DE=-4.96D-05 OVMax= 9.68D-04

 Cycle   6  Pass 1  IDiag  1:
 E= -152.080617113074     Delta-E=       -0.000006745035 Rises=F Damp=F
 DIIS: error= 7.23D-05 at cycle   6 NSaved=   6.
 NSaved= 6 IEnMin= 6 EnMin= -152.080617113074     IErMin= 6 ErrMin= 7.23D-05
 ErrMax= 7.23D-05  0.00D+00 EMaxC= 1.00D-01 BMatC= 3.71D-07 BMatP= 6.43D-06
 IDIUse=1 WtCom= 1.00D+00 WtEn= 0.00D+00
 Coeff-Com: -0.160D-03 0.269D-02 0.127D-01-0.114D+00 0.949D-02 0.109D+01
 Coeff:     -0.160D-03 0.269D-02 0.127D-01-0.114D+00 0.949D-02 0.109D+01
 Gap=     0.539 Goal=   None    Shift=    0.000
 RMSDP=7.49D-06 MaxDP=1.69D-04 DE=-6.75D-06 OVMax= 3.82D-04

 Cycle   7  Pass 1  IDiag  1:
 E= -152.080617724763     Delta-E=       -0.000000611689 Rises=F Damp=F
 DIIS: error= 1.07D-05 at cycle   7 NSaved=   7.
 NSaved= 7 IEnMin= 7 EnMin= -152.080617724763     IErMin= 7 ErrMin= 1.07D-05
 ErrMax= 1.07D-05  0.00D+00 EMaxC= 1.00D-01 BMatC= 1.04D-08 BMatP= 3.71D-07
 IDIUse=1 WtCom= 1.00D+00 WtEn= 0.00D+00
 Coeff-Com: -0.112D-03 0.535D-03 0.209D-02 0.742D-02-0.387D-01-0.202D+00
 Coeff-Com:  0.123D+01
 Coeff:     -0.112D-03 0.535D-03 0.209D-02 0.742D-02-0.387D-01-0.202D+00
 Coeff:      0.123D+01
 Gap=     0.539 Goal=   None    Shift=    0.000
 RMSDP=1.97D-06 MaxDP=4.46D-05 DE=-6.12D-07 OVMax= 1.18D-04

 Cycle   8  Pass 1  IDiag  1:
 E= -152.080617755266     Delta-E=       -0.000000030502 Rises=F Damp=F
 DIIS: error= 3.24D-06 at cycle   8 NSaved=   8.
 NSaved= 8 IEnMin= 8 EnMin= -152.080617755266     IErMin= 8 ErrMin= 3.24D-06
 ErrMax= 3.24D-06  0.00D+00 EMaxC= 1.00D-01 BMatC= 6.90D-10 BMatP= 1.04D-08
 IDIUse=1 WtCom= 1.00D+00 WtEn= 0.00D+00
 Coeff-Com:  0.227D-04-0.253D-03-0.116D-02 0.741D-02 0.386D-02-0.503D-01
 Coeff-Com: -0.109D+00 0.115D+01
 Coeff:      0.227D-04-0.253D-03-0.116D-02 0.741D-02 0.386D-02-0.503D-01
 Coeff:     -0.109D+00 0.115D+01
 Gap=     0.539 Goal=   None    Shift=    0.000
 RMSDP=3.80D-07 MaxDP=7.30D-06 DE=-3.05D-08 OVMax= 2.66D-05

 Cycle   9  Pass 1  IDiag  1:
 E= -152.080617756846     Delta-E=       -0.000000001580 Rises=F Damp=F
 DIIS: error= 8.05D-07 at cycle   9 NSaved=   9.
 NSaved= 9 IEnMin= 9 EnMin= -152.080617756846     IErMin= 9 ErrMin= 8.05D-07
 ErrMax= 8.05D-07  0.00D+00 EMaxC= 1.00D-01 BMatC= 4.45D-11 BMatP= 6.90D-10
 IDIUse=1 WtCom= 1.00D+00 WtEn= 0.00D+00
 Coeff-Com:  0.428D-05 0.989D-06 0.552D-04-0.189D-02 0.222D-02 0.219D-01
 Coeff-Com: -0.515D-01-0.239D+00 0.127D+01
 Coeff:      0.428D-05 0.989D-06 0.552D-04-0.189D-02 0.222D-02 0.219D-01
 Coeff:     -0.515D-01-0.239D+00 0.127D+01
 Gap=     0.539 Goal=   None    Shift=    0.000
 RMSDP=9.22D-08 MaxDP=1.95D-06 DE=-1.58D-09 OVMax= 6.97D-06

 Cycle  10  Pass 1  IDiag  1:
 E= -152.080617756956     Delta-E=       -0.000000000111 Rises=F Damp=F
 DIIS: error= 1.59D-07 at cycle  10 NSaved=  10.
 NSaved=10 IEnMin=10 EnMin= -152.080617756956     IErMin=10 ErrMin= 1.59D-07
 ErrMax= 1.59D-07  0.00D+00 EMaxC= 1.00D-01 BMatC= 1.77D-12 BMatP= 4.45D-11
 IDIUse=1 WtCom= 1.00D+00 WtEn= 0.00D+00
 Coeff-Com: -0.159D-05 0.109D-04 0.431D-04-0.475D-04-0.449D-03-0.991D-03
 Coeff-Com:  0.861D-02 0.263D-02-0.234D+00 0.122D+01
 Coeff:     -0.159D-05 0.109D-04 0.431D-04-0.475D-04-0.449D-03-0.991D-03
 Coeff:      0.861D-02 0.263D-02-0.234D+00 0.122D+01
 Gap=     0.539 Goal=   None    Shift=    0.000
 RMSDP=1.85D-08 MaxDP=3.85D-07 DE=-1.11D-10 OVMax= 1.40D-06

 Cycle  11  Pass 1  IDiag  1:
 E= -152.080617756961     Delta-E=       -0.000000000005 Rises=F Damp=F
 DIIS: error= 3.23D-08 at cycle  11 NSaved=  11.
 NSaved=11 IEnMin=11 EnMin= -152.080617756961     IErMin=11 ErrMin= 3.23D-08
 ErrMax= 3.23D-08  0.00D+00 EMaxC= 1.00D-01 BMatC= 8.96D-14 BMatP= 1.77D-12
 IDIUse=1 WtCom= 1.00D+00 WtEn= 0.00D+00
 Coeff-Com: -0.114D-09-0.133D-05-0.832D-05 0.920D-04-0.243D-04-0.757D-03
 Coeff-Com:  0.757D-03 0.129D-01-0.238D-01-0.228D+00 0.124D+01
 Coeff:     -0.114D-09-0.133D-05-0.832D-05 0.920D-04-0.243D-04-0.757D-03
 Coeff:      0.757D-03 0.129D-01-0.238D-01-0.228D+00 0.124D+01
 Gap=     0.539 Goal=   None    Shift=    0.000
 RMSDP=3.86D-09 MaxDP=8.46D-08 DE=-4.92D-12 OVMax= 2.40D-07

 SCF Done:  E(RHF) =  -152.080617757     A.U. after   11 cycles
            NFock= 11  Conv=0.39D-08     -V/T= 2.0001
 KE= 1.520726927976D+02 PE=-4.445905079889D+02 EE= 9.896579549381D+01
 Leave Link  502 at Fri Aug 26 17:13:58 2022, MaxMem=   536870912 cpu:               4.5 elap:               1.2
 (Enter /usr/site/hpc/x86_64/glibc-2.17/broadwell/gaussian/g16_a.03/pgi-16.5/g16/l801.exe)
 Windowed orbitals will be sorted by symmetry type.
 ExpMin= 1.03D-01 ExpMax= 1.53D+04 ExpMxC= 5.22D+02 IAcc=3 IRadAn=         5 AccDes= 0.00D+00
 HarFok:  IExCor=  205 AccDes= 0.00D+00 IRadAn=         5 IDoV=-2 UseB2=F ITyADJ=14
 ICtDFT= 12500011 ScaDFX=  1.000000  1.000000  1.000000  1.000000
 Largest valence mixing into a core orbital is  1.10D-04
 Largest core mixing into a valence orbital is  1.78D-05
 Range of M.O.s used for correlation:     3   116
 NBasis=   116 NAE=    10 NBE=    10 NFC=     2 NFV=     0
 NROrb=    114 NOA=     8 NOB=     8 NVA=   106 NVB=   106
 Leave Link  801 at Fri Aug 26 17:13:58 2022, MaxMem=   536870912 cpu:               0.3 elap:               0.1
 (Enter /usr/site/hpc/x86_64/glibc-2.17/broadwell/gaussian/g16_a.03/pgi-16.5/g16/l804.exe)
 Closed-shell transformation, MDV=   536870912 ITran=4 ISComp=2.
 Unit  1 TFree=        834515 TCopy=        406125.
 Semi-Direct transformation.
 ModeAB=           2 MOrb=             8 LenV=     536359896
 LASXX=      2873146 LTotXX=     2873146 LenRXX=     2873146
 LTotAB=     2958132 MaxLAS=     7765680 LenRXY=     7765680
 NonZer=     7990944 LenScr=    12058624 LnRSAI=           0
 LnScr1=           0 LExtra=           0 Total=     22697450
 MaxDsk=          -1 SrtSym=           F ITran=            4
 DoSDTr:  NPSUse=  4
 JobTyp=0 Pass  1:  I=   1 to   8.
 (rs|ai) integrals will be sorted in core.
 Complete sort for first half transformation.
 First half transformation complete.
 Complete sort for second half transformation.
 Second half transformation complete.
 Spin components of T(2) and E(2):
     alpha-alpha T2 =       0.1600901928D-01 E2=     -0.6615736657D-01
     alpha-beta  T2 =       0.9098529088D-01 E2=     -0.4013540052D+00
     beta-beta   T2 =       0.1600901928D-01 E2=     -0.6615736657D-01
 ANorm=    0.1059718514D+01
 E2 =    -0.5336687383D+00 EUMP2 =    -0.15261428649528D+03
 Leave Link  804 at Fri Aug 26 17:13:59 2022, MaxMem=   536870912 cpu:               5.2 elap:               1.3
 (Enter /usr/site/hpc/x86_64/glibc-2.17/broadwell/gaussian/g16_a.03/pgi-16.5/g16/l913.exe)
 CIDS:  MDV=   536870912.
 Frozen-core window:  NFC=   2 NFV=   0.
 IFCWin=0 IBDFC=1 NFBD=     0     0 NFCmp=     0     0 NFFFC=     0     0
 Using DD3R+UMP44R for 1st iteration.
 Using DD4RQ for 2nd and later iterations.
 Keep R2 and R3 ints in memory in symmetry-blocked form, NReq=35357534.
 FoFCou: FMM=F IPFlag=           0 FMFlag=           0 FMFlg1=           0
         NFxFlg=           0 DoJE=F BraDBF=F KetDBF=F FulRan=T
         wScrn=  0.000000 ICntrl=       600 IOpCl=  0 I1Cent=           0 NGrid=           0
         NMat0=    1 NMatS0=   6786 NMatT0=    0 NMatD0=    1 NMtDS0=    0 NMtDT0=    0
 Petite list used in FoFCou.
 CIDS: In Core Option IDoMem=           1.
 CCSD(T)
 =======
 Iterations=  50 Convergence= 0.100D-06
 Produce multiple copies of IABC intergrals
 Iteration Nr.   1
 **********************
 DD1Dir will call FoFMem   1 times, MxPair=        72
 NAB=    36 NAA=     0 NBB=     0.
 MP4(R+Q)=  0.81554199D-02
 Maximum subspace dimension=  5
 A-vector RMS=  1.9213792D-03 Max=  7.5901430D-03 conv= 1.00D-05.
 RLE energy=       -0.5315629058
 E3=       -0.60967206D-02        EUMP3=      -0.15262038322D+03
 E4(DQ)=   -0.67878366D-03        UMP4(DQ)=   -0.15262106200D+03
 E4(SDQ)=  -0.39327024D-02        UMP4(SDQ)=  -0.15262431592D+03
 VARIATIONAL ENERGIES WITH THE FIRST-ORDER WAVEFUNCTION:
 DE(Corr)= -0.53155457     E(Corr)=     -152.61217233    
 NORM(A)=   0.10594464D+01
 Iteration Nr.   2
 **********************
 DD1Dir will call FoFMem   1 times, MxPair=        72
 NAB=    36 NAA=     0 NBB=     0.
 A-vector RMS=  2.0878526D-04 Max=  1.9181455D-03 conv= 1.00D-05.
 RLE energy=       -0.5424436965
 DE(Corr)= -0.54151108     E(CORR)=     -152.62212884     Delta=-9.96D-03
 NORM(A)=   0.10630463D+01
 Iteration Nr.   3
 **********************
 DD1Dir will call FoFMem   1 times, MxPair=        72
 NAB=    36 NAA=     0 NBB=     0.
 A-vector RMS=  2.1636322D-04 Max=  2.0815298D-03 conv= 1.00D-05.
 RLE energy=       -0.5429064169
 DE(Corr)= -0.54232746     E(CORR)=     -152.62294522     Delta=-8.16D-04
 NORM(A)=   0.10636386D+01
 Iteration Nr.   4
 **********************
 DD1Dir will call FoFMem   1 times, MxPair=        72
 NAB=    36 NAA=     0 NBB=     0.
 A-vector RMS=  4.2839613D-05 Max=  4.8317141D-04 conv= 1.00D-05.
 RLE energy=       -0.5429727533
 DE(Corr)= -0.54294090     E(CORR)=     -152.62355866     Delta=-6.13D-04
 NORM(A)=   0.10637547D+01
 Iteration Nr.   5
 **********************
 DD1Dir will call FoFMem   1 times, MxPair=        72
 NAB=    36 NAA=     0 NBB=     0.
 A-vector RMS=  3.5056123D-05 Max=  4.5216902D-04 conv= 1.00D-05.
 RLE energy=       -0.5429920794
 DE(Corr)= -0.54298381     E(CORR)=     -152.62360157     Delta=-4.29D-05
 NORM(A)=   0.10637793D+01
 Iteration Nr.   6
 **********************
 DD1Dir will call FoFMem   1 times, MxPair=        72
 NAB=    36 NAA=     0 NBB=     0.
 A-vector RMS=  8.2682136D-06 Max=  9.3903874D-05 conv= 1.00D-05.
 RLE energy=       -0.5429887473
 DE(Corr)= -0.54298876     E(CORR)=     -152.62360652     Delta=-4.95D-06
 NORM(A)=   0.10637817D+01
 Iteration Nr.   7
 **********************
 DD1Dir will call FoFMem   1 times, MxPair=        72
 NAB=    36 NAA=     0 NBB=     0.
 A-vector RMS=  4.4080368D-06 Max=  5.2353410D-05 conv= 1.00D-05.
 RLE energy=       -0.5429856654
 DE(Corr)= -0.54298919     E(CORR)=     -152.62360695     Delta=-4.33D-07
 NORM(A)=   0.10637827D+01
 Iteration Nr.   8
 **********************
 DD1Dir will call FoFMem   1 times, MxPair=        72
 NAB=    36 NAA=     0 NBB=     0.
 A-vector RMS=  2.0990028D-06 Max=  2.6294461D-05 conv= 1.00D-05.
 RLE energy=       -0.5429884510
 DE(Corr)= -0.54298884     E(CORR)=     -152.62360660     Delta= 3.52D-07
 NORM(A)=   0.10637842D+01
 Iteration Nr.   9
 **********************
 DD1Dir will call FoFMem   1 times, MxPair=        72
 NAB=    36 NAA=     0 NBB=     0.
 A-vector RMS=  3.9081385D-07 Max=  5.7880628D-06 conv= 1.00D-05.
 RLE energy=       -0.5429886148
 DE(Corr)= -0.54298869     E(CORR)=     -152.62360645     Delta= 1.50D-07
 NORM(A)=   0.10637846D+01
 Iteration Nr.  10
 **********************
 DD1Dir will call FoFMem   1 times, MxPair=        72
 NAB=    36 NAA=     0 NBB=     0.
 A-vector RMS=  1.4133990D-07 Max=  1.8367187D-06 conv= 1.00D-05.
 RLE energy=       -0.5429889448
 DE(Corr)= -0.54298895     E(CORR)=     -152.62360670     Delta=-2.55D-07
 NORM(A)=   0.10637849D+01
 Iteration Nr.  11
 **********************
 DD1Dir will call FoFMem   1 times, MxPair=        72
 NAB=    36 NAA=     0 NBB=     0.
 A-vector RMS=  6.4773476D-08 Max=  6.1196536D-07 conv= 1.00D-05.
 RLE energy=       -0.5429890326
 DE(Corr)= -0.54298901     E(CORR)=     -152.62360676     Delta=-6.10D-08
 NORM(A)=   0.10637850D+01
 CI/CC converged in   11 iterations to DelEn=-6.10D-08 Conv= 1.00D-07 ErrA1= 6.48D-08 Conv= 1.00D-05
 Wavefunction amplitudes converged. E(Corr)=     -152.62360676    
 Largest amplitude= 3.84D-02
 IPart=  4 IA=    7   11.05% done.
 IPart=  3 IA=   13   21.46% done.
 IPart=  1 IA=   19   31.21% done.
 IPart=  4 IA=   25   40.32% done.
 IPart=  4 IA=   32   50.13% done.
 IPart=  4 IA=   40   60.27% done.
 IPart=  3 IA=   49   70.30% done.
 IPart=  4 IA=   60   80.58% done.
 IPart=  2 IA=   74   90.51% done.
 Time for triples=       54.46 seconds.
 T4(CCSD)= -0.17112115D-01
 T5(CCSD)=  0.43145692D-03
 CCSD(T)= -0.15264028742D+03
 Discarding MO integrals.
 Leave Link  913 at Fri Aug 26 17:14:20 2022, MaxMem=   536870912 cpu:              81.2 elap:              20.5
 (Enter /usr/site/hpc/x86_64/glibc-2.17/broadwell/gaussian/g16_a.03/pgi-16.5/g16/l601.exe)
 Copying SCF densities to generalized density rwf, IOpCl= 0 IROHF=0.

 **********************************************************************

            Population analysis using the SCF density.

 **********************************************************************

 Orbital symmetries:
       Occupied  (A') (A') (A') (A') (A') (A') (A') (A") (A') (A")
       Virtual   (A') (A') (A') (A') (A') (A') (A') (A') (A') (A")
                 (A') (A') (A") (A") (A') (A") (A') (A") (A') (A')
                 (A') (A") (A') (A') (A') (A') (A') (A") (A") (A')
                 (A") (A') (A') (A') (A') (A') (A") (A') (A') (A')
                 (A') (A') (A") (A") (A') (A") (A') (A') (A") (A')
                 (A") (A') (A") (A") (A') (A') (A") (A") (A") (A')
                 (A') (A') (A') (A') (A") (A') (A") (A') (A") (A')
                 (A') (A") (A') (A') (A') (A') (A') (A') (A') (A')
                 (A") (A") (A') (A") (A") (A') (A") (A") (A') (A")
                 (A') (A") (A') (A") (A') (A') (A') (A') (A') (A")
                 (A') (A') (A') (A') (A') (A')
 The electronic state is 1-A'.
 Alpha  occ. eigenvalues --  -20.60952 -20.46938  -1.40630  -1.26100  -0.77875
 Alpha  occ. eigenvalues --   -0.72601  -0.57379  -0.56627  -0.47301  -0.42908
 Alpha virt. eigenvalues --    0.11015   0.17433   0.20255   0.33877   0.47117
 Alpha virt. eigenvalues --    0.52822   0.60354   0.68407   0.70413   0.71882
 Alpha virt. eigenvalues --    0.77096   0.78295   0.78858   0.83978   0.84175
 Alpha virt. eigenvalues --    0.87656   0.96915   0.98801   1.05348   1.12968
 Alpha virt. eigenvalues --    1.20540   1.20891   1.31721   1.42787   1.51433
 Alpha virt. eigenvalues --    1.56006   1.63802   1.90820   1.99440   2.07399
 Alpha virt. eigenvalues --    2.09377   2.11095   2.20499   2.22892   2.30905
 Alpha virt. eigenvalues --    2.35098   2.39290   2.57650   2.61935   2.78307
 Alpha virt. eigenvalues --    3.05266   3.23782   3.30675   3.44998   3.45765
 Alpha virt. eigenvalues --    3.48355   3.50043   3.59011   3.60516   3.67553
 Alpha virt. eigenvalues --    3.69430   3.78405   3.85998   3.91147   3.91712
 Alpha virt. eigenvalues --    3.96232   3.96313   4.09205   4.11911   4.13320
 Alpha virt. eigenvalues --    4.18008   4.19363   4.26628   4.27425   4.33886
 Alpha virt. eigenvalues --    4.45338   4.49288   4.53822   4.67503   4.81107
 Alpha virt. eigenvalues --    4.84823   4.87706   4.92218   5.01386   5.16072
 Alpha virt. eigenvalues --    5.33000   5.54028   5.55720   5.69757   5.93293
 Alpha virt. eigenvalues --    6.05299   6.10892   6.55870   6.80979   6.84997
 Alpha virt. eigenvalues --    6.85077   6.91536   6.94961   7.01212   7.05659
 Alpha virt. eigenvalues --    7.06230   7.14180   7.22308   7.29197   7.32531
 Alpha virt. eigenvalues --    7.47098   7.48562   7.55522   7.58104   7.64343
 Alpha virt. eigenvalues --    7.94028   8.15864   8.46294   8.60735  13.00596
 Alpha virt. eigenvalues --   13.09969
          Condensed to atoms (all electrons):
               1          2          3          4          5          6
     1  O    8.007198   0.386700   0.346285  -0.105878   0.005452   0.005300
     2  H    0.386700   0.327537  -0.046626   0.043863  -0.004923  -0.003976
     3  H    0.346285  -0.046626   0.465288   0.008639  -0.000028  -0.000373
     4  O   -0.105878   0.043863   0.008639   7.816313   0.306824   0.307937
     5  H    0.005452  -0.004923  -0.000028   0.306824   0.445796  -0.014571
     6  H    0.005300  -0.003976  -0.000373   0.307937  -0.014571   0.468619
 Mulliken charges:
               1
     1  O   -0.645057
     2  H    0.297425
     3  H    0.226816
     4  O   -0.377699
     5  H    0.261450
     6  H    0.237065
 Sum of Mulliken charges =  -0.00000
 Mulliken charges with hydrogens summed into heavy atoms:
               1
     1  O   -0.120816
     4  O    0.120816
 Electronic spatial extent (au):  <R**2>=            133.0228
 Charge=             -0.0000 electrons
 Dipole moment (field-independent basis, Debye):
    X=             -0.8442    Y=             -4.4934    Z=              0.0000  Tot=              4.5720
 Quadrupole moment (field-independent basis, Debye-Ang):
   XX=             -9.2202   YY=             -9.7475   ZZ=            -14.6229
   XY=             -2.9629   XZ=              0.0000   YZ=             -0.0000
 Traceless Quadrupole moment (field-independent basis, Debye-Ang):
   XX=              1.9767   YY=              1.4494   ZZ=             -3.4261
   XY=             -2.9629   XZ=              0.0000   YZ=             -0.0000
 Octapole moment (field-independent basis, Debye-Ang**2):
  XXX=              0.1470  YYY=            -16.6171  ZZZ=              0.0000  XYY=             -5.6012
  XXY=             -2.7104  XXZ=              0.0000  XZZ=             -0.1025  YZZ=             -1.0715
  YYZ=              0.0000  XYZ=              0.0000
 Hexadecapole moment (field-independent basis, Debye-Ang**3):
 XXXX=            -10.7849 YYYY=            -97.5441 ZZZZ=            -11.2976 XXXY=             -2.1543
 XXXZ=              0.0000 YYYX=             -1.0198 YYYZ=              0.0000 ZZZX=             -0.0000
 ZZZY=              0.0000 XXYY=            -13.4478 XXZZ=             -4.4375 YYZZ=            -23.9938
 XXYZ=              0.0000 YYXZ=              0.0000 ZZXY=              0.8053
 N-N= 4.147140194052D+01 E-N=-4.445905071788D+02  KE= 1.520726927976D+02
 Symmetry A'   KE= 1.431077841879D+02
 Symmetry A"   KE= 8.964908609693D+00
 Leave Link  601 at Fri Aug 26 17:14:20 2022, MaxMem=   536870912 cpu:               0.2 elap:               0.1
 (Enter /usr/site/hpc/x86_64/glibc-2.17/broadwell/gaussian/g16_a.03/pgi-16.5/g16/l9999.exe)
 1\1\GINC-N041\SP\RCCSD(T)-FC\CC-pVTZ\H4O2\C7441284\26-Aug-2022\0\\#p C
 CSD(T)/cc-pVTZ\\H2O_H2O_295\\0,1\O,0,0.,-0.009833,0.\H,0,-0.799571,-0.
 580965,0.\H,0,0.799571,-0.580965,0.\O,0,-1.848801,-1.316355,0.\H,0,-2.
 607416,-0.691848,0.\H,0,-2.193528,-2.236501,0.\\Version=ES64L-G16RevA.
 03\State=1-A'\HF=-152.0806178\MP2=-152.6142865\MP3=-152.6203832\MP4D=-
 152.6292174\MP4DQ=-152.621062\MP4SDQ=-152.6243159\CCSD=-152.6236068\CC
 SD(T)=-152.6402874\RMSD=3.856e-09\PG=CS [SG(H4O2)]\\@


 I HAVE NOT FAILED, I HAVE ONLY DISCOVERED 10,000
 WAYS THAT DIDN'T WORK.  -- THOMAS A. EDISON
 Job cpu time:       0 days  0 hours  1 minutes 34.5 seconds.
 Elapsed time:       0 days  0 hours  0 minutes 24.0 seconds.
 File lengths (MBytes):  RWF=    572 Int=      0 D2E=      0 Chk=      8 Scr=      8
 Normal termination of Gaussian 16 at Fri Aug 26 17:14:20 2022.
