 Entering Gaussian System, Link 0=g16
 Input=H2O_H2O_4065.com
 Output=H2O_H2O_4065.log
 Initial command:
 /usr/site/hpc/x86_64/glibc-2.17/broadwell/gaussian/g16_a.03/pgi-16.5/g16/l1.exe "/gpfs/gpfs1/scratch/c7441284/ForceFieldModel/FittingData2/Gau-833906.inp" -scrdir="/gpfs/gpfs1/scratch/c7441284/ForceFieldModel/FittingData2/"
 Entering Link 1 = /usr/site/hpc/x86_64/glibc-2.17/broadwell/gaussian/g16_a.03/pgi-16.5/g16/l1.exe PID=    833913.
  
 Copyright (c) 1988,1990,1992,1993,1995,1998,2003,2009,2016,
            Gaussian, Inc.  All Rights Reserved.
  
 This is part of the Gaussian(R) 16 program.  It is based on
 the Gaussian(R) 09 system (copyright 2009, Gaussian, Inc.),
 the Gaussian(R) 03 system (copyright 2003, Gaussian, Inc.),
 the Gaussian(R) 98 system (copyright 1998, Gaussian, Inc.),
 the Gaussian(R) 94 system (copyright 1995, Gaussian, Inc.),
 the Gaussian 92(TM) system (copyright 1992, Gaussian, Inc.),
 the Gaussian 90(TM) system (copyright 1990, Gaussian, Inc.),
 the Gaussian 88(TM) system (copyright 1988, Gaussian, Inc.),
 the Gaussian 86(TM) system (copyright 1986, Carnegie Mellon
 University), and the Gaussian 82(TM) system (copyright 1983,
 Carnegie Mellon University). Gaussian is a federally registered
 trademark of Gaussian, Inc.
  
 This software contains proprietary and confidential information,
 including trade secrets, belonging to Gaussian, Inc.
  
 This software is provided under written license and may be
 used, copied, transmitted, or stored only in accord with that
 written license.
  
 The following legend is applicable only to US Government
 contracts under FAR:
  
                    RESTRICTED RIGHTS LEGEND
  
 Use, reproduction and disclosure by the US Government is
 subject to restrictions as set forth in subparagraphs (a)
 and (c) of the Commercial Computer Software - Restricted
 Rights clause in FAR 52.227-19.
  
 Gaussian, Inc.
 340 Quinnipiac St., Bldg. 40, Wallingford CT 06492
  
  
 ---------------------------------------------------------------
 Warning -- This program may not be used in any manner that
 competes with the business of Gaussian, Inc. or will provide
 assistance to any competitor of Gaussian, Inc.  The licensee
 of this program is prohibited from giving any competitor of
 Gaussian, Inc. access to this program.  By using this program,
 the user acknowledges that Gaussian, Inc. is engaged in the
 business of creating and licensing software in the field of
 computational chemistry and represents and warrants to the
 licensee that it is not a competitor of Gaussian, Inc. and that
 it will not use this program in any manner prohibited above.
 ---------------------------------------------------------------
  

 Cite this work as:
 Gaussian 16, Revision A.03,
 M. J. Frisch, G. W. Trucks, H. B. Schlegel, G. E. Scuseria, 
 M. A. Robb, J. R. Cheeseman, G. Scalmani, V. Barone, 
 G. A. Petersson, H. Nakatsuji, X. Li, M. Caricato, A. V. Marenich, 
 J. Bloino, B. G. Janesko, R. Gomperts, B. Mennucci, H. P. Hratchian, 
 J. V. Ortiz, A. F. Izmaylov, J. L. Sonnenberg, D. Williams-Young, 
 F. Ding, F. Lipparini, F. Egidi, J. Goings, B. Peng, A. Petrone, 
 T. Henderson, D. Ranasinghe, V. G. Zakrzewski, J. Gao, N. Rega, 
 G. Zheng, W. Liang, M. Hada, M. Ehara, K. Toyota, R. Fukuda, 
 J. Hasegawa, M. Ishida, T. Nakajima, Y. Honda, O. Kitao, H. Nakai, 
 T. Vreven, K. Throssell, J. A. Montgomery, Jr., J. E. Peralta, 
 F. Ogliaro, M. J. Bearpark, J. J. Heyd, E. N. Brothers, K. N. Kudin, 
 V. N. Staroverov, T. A. Keith, R. Kobayashi, J. Normand, 
 K. Raghavachari, A. P. Rendell, J. C. Burant, S. S. Iyengar, 
 J. Tomasi, M. Cossi, J. M. Millam, M. Klene, C. Adamo, R. Cammi, 
 J. W. Ochterski, R. L. Martin, K. Morokuma, O. Farkas, 
 J. B. Foresman, and D. J. Fox, Gaussian, Inc., Wallingford CT, 2016.
 
 ******************************************
 Gaussian 16:  ES64L-G16RevA.03 25-Dec-2016
                27-Aug-2022 
 ******************************************
 %NProcShared=4
 Will use up to    4 processors via shared memory.
 %Mem=4GB
 %Chk=H2O_H2O_4065.chk
 ------------------
 #p CCSD(T)/cc-pVTZ
 ------------------
 1/38=1,172=1/1;
 2/12=2,17=6,18=5,40=1/2;
 3/5=16,6=1,11=9,25=1,30=1/1,2,3;
 4//1;
 5/5=2,38=5/2;
 8/6=4,9=120000,10=1/1,4;
 9/5=7,14=2/13;
 6/7=2,8=2,9=2,10=2/1;
 99/5=1,9=1/99;
 Leave Link    1 at Sat Aug 27 23:05:50 2022, MaxMem=   536870912 cpu:               4.6 elap:               1.5
 (Enter /usr/site/hpc/x86_64/glibc-2.17/broadwell/gaussian/g16_a.03/pgi-16.5/g16/l101.exe)
 ------------
 H2O_H2O_4065
 ------------
 Symbolic Z-matrix:
 Charge =  0 Multiplicity = 1
 O                     0.       -0.00983   0. 
 H                    -0.79957  -0.58097   0. 
 H                     0.79957  -0.58097   0. 
 O                    -4.29804  -3.0697    0. 
 H                    -5.21714  -2.72219   0. 
 H                    -4.3287   -4.05183   0. 
 
 ITRead=  0  0  0  0  0  0
 MicOpt= -1 -1 -1 -1 -1 -1
 NAtoms=      6 NQM=        6 NQMF=       0 NMMI=      0 NMMIF=      0
                NMic=       0 NMicF=      0.
                    Isotopes and Nuclear Properties:
 (Nuclear quadrupole moments (NQMom) in fm**2, nuclear magnetic moments (NMagM)
  in nuclear magnetons)

  Atom         1           2           3           4           5           6
 IAtWgt=          16           1           1          16           1           1
 AtmWgt=  15.9949146   1.0078250   1.0078250  15.9949146   1.0078250   1.0078250
 NucSpn=           0           1           1           0           1           1
 AtZEff=  -0.0000000  -0.0000000  -0.0000000  -0.0000000  -0.0000000  -0.0000000
 NQMom=    0.0000000   0.0000000   0.0000000   0.0000000   0.0000000   0.0000000
 NMagM=    0.0000000   2.7928460   2.7928460   0.0000000   2.7928460   2.7928460
 AtZNuc=   8.0000000   1.0000000   1.0000000   8.0000000   1.0000000   1.0000000
 Leave Link  101 at Sat Aug 27 23:05:50 2022, MaxMem=   536870912 cpu:               0.3 elap:               0.1
 (Enter /usr/site/hpc/x86_64/glibc-2.17/broadwell/gaussian/g16_a.03/pgi-16.5/g16/l202.exe)
                          Input orientation:                          
 ---------------------------------------------------------------------
 Center     Atomic      Atomic             Coordinates (Angstroms)
 Number     Number       Type             X           Y           Z
 ---------------------------------------------------------------------
      1          8           0        0.000000   -0.009833    0.000000
      2          1           0       -0.799571   -0.580965    0.000000
      3          1           0        0.799571   -0.580965    0.000000
      4          8           0       -4.298043   -3.069705    0.000000
      5          1           0       -5.217140   -2.722189    0.000000
      6          1           0       -4.328704   -4.051828    0.000000
 ---------------------------------------------------------------------
                    Distance matrix (angstroms):
                    1          2          3          4          5
     1  O    0.000000
     2  H    0.982601   0.000000
     3  H    0.982601   1.599142   0.000000
     4  O    5.275982   4.293382   5.672697   0.000000
     5  H    5.880087   4.909150   6.386364   0.982602   0.000000
     6  H    5.922449   4.949916   6.192422   0.982601   1.599143
                    6
     6  H    0.000000
 Stoichiometry    H4O2
 Framework group  CS[SG(H4O2)]
 Deg. of freedom     9
 Full point group                 CS      NOp   2
 Largest Abelian subgroup         CS      NOp   2
 Largest concise Abelian subgroup C1      NOp   1
                         Standard orientation:                         
 ---------------------------------------------------------------------
 Center     Atomic      Atomic             Coordinates (Angstroms)
 Number     Number       Type             X           Y           Z
 ---------------------------------------------------------------------
      1          8           0        0.044835    2.728203    0.000000
      2          1           0        0.043287    1.745603    0.000000
      3          1           0       -0.884155    3.048333    0.000000
      4          8           0        0.044835   -2.547780    0.000000
      5          1           0        0.860978   -3.094969    0.000000
      6          1           0       -0.737463   -3.142352    0.000000
 ---------------------------------------------------------------------
 Rotational constants (GHZ):         240.4089600           1.9826942           1.9664763
 Leave Link  202 at Sat Aug 27 23:05:50 2022, MaxMem=   536870912 cpu:               0.0 elap:               0.0
 (Enter /usr/site/hpc/x86_64/glibc-2.17/broadwell/gaussian/g16_a.03/pgi-16.5/g16/l301.exe)
 Standard basis: CC-pVTZ (5D, 7F)
 Ernie: Thresh=  0.10000D-02 Tol=  0.10000D-05 Strict=F.
 Ernie:  6 primitive shells out of 84 were deleted.
 There are    92 symmetry adapted cartesian basis functions of A'  symmetry.
 There are    38 symmetry adapted cartesian basis functions of A"  symmetry.
 There are    80 symmetry adapted basis functions of A'  symmetry.
 There are    36 symmetry adapted basis functions of A"  symmetry.
   116 basis functions,   172 primitive gaussians,   130 cartesian basis functions
    10 alpha electrons       10 beta electrons
       nuclear repulsion energy        27.8645824948 Hartrees.
 IExCor=    0 DFT=F Ex=HF Corr=None ExCW=0 ScaHFX=  1.000000
 ScaDFX=  1.000000  1.000000  1.000000  1.000000 ScalE2=  1.000000  1.000000
 IRadAn=      5 IRanWt=     -1 IRanGd=            0 ICorTp=0 IEmpDi=  4
 NAtoms=    6 NActive=    6 NUniq=    6 SFac= 1.00D+00 NAtFMM=   60 NAOKFM=F Big=F
 Integral buffers will be    131072 words long.
 Raffenetti 1 integral format.
 Two-electron integral symmetry is turned on.
 Leave Link  301 at Sat Aug 27 23:05:51 2022, MaxMem=   536870912 cpu:               0.2 elap:               0.1
 (Enter /usr/site/hpc/x86_64/glibc-2.17/broadwell/gaussian/g16_a.03/pgi-16.5/g16/l302.exe)
 NPDir=0 NMtPBC=     1 NCelOv=     1 NCel=       1 NClECP=     1 NCelD=      1
         NCelK=      1 NCelE2=     1 NClLst=     1 CellRange=     0.0.
 One-electron integrals computed using PRISM.
 One-electron integral symmetry used in STVInt
 NBasis=   116 RedAO= T EigKep=  2.64D-03  NBF=    80    36
 NBsUse=   116 1.00D-06 EigRej= -1.00D+00 NBFU=    80    36
 Leave Link  302 at Sat Aug 27 23:05:51 2022, MaxMem=   536870912 cpu:               0.4 elap:               0.1
 (Enter /usr/site/hpc/x86_64/glibc-2.17/broadwell/gaussian/g16_a.03/pgi-16.5/g16/l303.exe)
 DipDrv:  MaxL=1.
 Leave Link  303 at Sat Aug 27 23:05:51 2022, MaxMem=   536870912 cpu:               0.1 elap:               0.0
 (Enter /usr/site/hpc/x86_64/glibc-2.17/broadwell/gaussian/g16_a.03/pgi-16.5/g16/l401.exe)
 ExpMin= 1.03D-01 ExpMax= 1.53D+04 ExpMxC= 5.22D+02 IAcc=3 IRadAn=         5 AccDes= 0.00D+00
 Harris functional with IExCor=  205 and IRadAn=       5 diagonalized for initial guess.
 HarFok:  IExCor=  205 AccDes= 0.00D+00 IRadAn=         5 IDoV= 1 UseB2=F ITyADJ=14
 ICtDFT=  3500011 ScaDFX=  1.000000  1.000000  1.000000  1.000000
 FoFCou: FMM=F IPFlag=           0 FMFlag=      100000 FMFlg1=           0
         NFxFlg=           0 DoJE=T BraDBF=F KetDBF=T FulRan=T
         wScrn=  0.000000 ICntrl=       500 IOpCl=  0 I1Cent=   200000004 NGrid=           0
         NMat0=    1 NMatS0=      1 NMatT0=    0 NMatD0=    1 NMtDS0=    0 NMtDT0=    0
 Petite list used in FoFCou.
 Harris En= -152.298712967512    
 JPrj=0 DoOrth=F DoCkMO=F.
 Initial guess orbital symmetries:
       Occupied  (A') (A') (A') (A') (A') (A') (A') (A') (A") (A")
       Virtual   (A') (A') (A') (A') (A') (A') (A') (A') (A') (A')
                 (A") (A") (A') (A') (A') (A') (A") (A") (A") (A")
                 (A') (A') (A') (A') (A') (A') (A') (A') (A") (A")
                 (A") (A") (A') (A') (A') (A') (A') (A') (A') (A')
                 (A') (A') (A") (A") (A') (A') (A") (A") (A") (A")
                 (A') (A') (A') (A') (A') (A') (A") (A") (A') (A')
                 (A') (A') (A") (A") (A") (A") (A') (A') (A') (A')
                 (A") (A") (A') (A') (A') (A') (A') (A') (A') (A')
                 (A") (A") (A') (A') (A") (A") (A") (A") (A') (A')
                 (A") (A") (A') (A') (A') (A') (A") (A") (A') (A')
                 (A') (A') (A') (A') (A') (A')
 The electronic state of the initial guess is 1-A'.
 Leave Link  401 at Sat Aug 27 23:05:51 2022, MaxMem=   536870912 cpu:               0.7 elap:               0.2
 (Enter /usr/site/hpc/x86_64/glibc-2.17/broadwell/gaussian/g16_a.03/pgi-16.5/g16/l502.exe)
 Keep R1 ints in memory in symmetry-blocked form, NReq=34823457.
 FoFCou: FMM=F IPFlag=           0 FMFlag=           0 FMFlg1=           0
         NFxFlg=           0 DoJE=F BraDBF=F KetDBF=F FulRan=T
         wScrn=  0.000000 ICntrl=       600 IOpCl=  0 I1Cent=           0 NGrid=           0
         NMat0=    1 NMatS0=   6786 NMatT0=    0 NMatD0=    1 NMtDS0=    0 NMtDT0=    0
 Petite list used in FoFCou.
 Closed shell SCF:
 Using DIIS extrapolation, IDIIS=  1040.
 NGot=   536870912 LenX=   525040673 LenY=   525023332
 Requested convergence on RMS density matrix=1.00D-08 within 128 cycles.
 Requested convergence on MAX density matrix=1.00D-06.
 Requested convergence on             energy=1.00D-06.
 No special actions if energy rises.

 Cycle   1  Pass 1  IDiag  1:
 E= -151.929431980873    
 DIIS: error= 6.59D-02 at cycle   1 NSaved=   1.
 NSaved= 1 IEnMin= 1 EnMin= -151.929431980873     IErMin= 1 ErrMin= 6.59D-02
 ErrMax= 6.59D-02  0.00D+00 EMaxC= 1.00D-01 BMatC= 3.99D-01 BMatP= 3.99D-01
 IDIUse=3 WtCom= 3.41D-01 WtEn= 6.59D-01
 Coeff-Com:  0.100D+01
 Coeff-En:   0.100D+01
 Coeff:      0.100D+01
 Gap=     0.513 Goal=   None    Shift=    0.000
 GapD=    0.513 DampG=2.000 DampE=0.500 DampFc=1.0000 IDamp=-1.
 RMSDP=2.50D-03 MaxDP=6.70D-02              OVMax= 1.26D-01

 Cycle   2  Pass 1  IDiag  1:
 E= -152.040776870448     Delta-E=       -0.111344889575 Rises=F Damp=F
 DIIS: error= 4.14D-02 at cycle   2 NSaved=   2.
 NSaved= 2 IEnMin= 2 EnMin= -152.040776870448     IErMin= 2 ErrMin= 4.14D-02
 ErrMax= 4.14D-02  0.00D+00 EMaxC= 1.00D-01 BMatC= 1.12D-01 BMatP= 3.99D-01
 IDIUse=3 WtCom= 5.86D-01 WtEn= 4.14D-01
 Coeff-Com:  0.319D+00 0.681D+00
 Coeff-En:   0.165D+00 0.835D+00
 Coeff:      0.255D+00 0.745D+00
 Gap=     0.648 Goal=   None    Shift=    0.000
 RMSDP=1.32D-03 MaxDP=3.97D-02 DE=-1.11D-01 OVMax= 5.70D-02

 Cycle   3  Pass 1  IDiag  1:
 E= -152.104956025023     Delta-E=       -0.064179154574 Rises=F Damp=F
 DIIS: error= 8.97D-03 at cycle   3 NSaved=   3.
 NSaved= 3 IEnMin= 3 EnMin= -152.104956025023     IErMin= 3 ErrMin= 8.97D-03
 ErrMax= 8.97D-03  0.00D+00 EMaxC= 1.00D-01 BMatC= 5.95D-03 BMatP= 1.12D-01
 IDIUse=3 WtCom= 9.10D-01 WtEn= 8.97D-02
 Coeff-Com: -0.303D-01 0.156D+00 0.874D+00
 Coeff-En:   0.000D+00 0.000D+00 0.100D+01
 Coeff:     -0.276D-01 0.142D+00 0.886D+00
 Gap=     0.620 Goal=   None    Shift=    0.000
 RMSDP=2.42D-04 MaxDP=5.74D-03 DE=-6.42D-02 OVMax= 1.33D-02

 Cycle   4  Pass 1  IDiag  1:
 E= -152.108656974550     Delta-E=       -0.003700949527 Rises=F Damp=F
 DIIS: error= 8.50D-04 at cycle   4 NSaved=   4.
 NSaved= 4 IEnMin= 4 EnMin= -152.108656974550     IErMin= 4 ErrMin= 8.50D-04
 ErrMax= 8.50D-04  0.00D+00 EMaxC= 1.00D-01 BMatC= 3.68D-05 BMatP= 5.95D-03
 IDIUse=3 WtCom= 9.91D-01 WtEn= 8.50D-03
 Coeff-Com:  0.678D-02-0.612D-01-0.238D+00 0.129D+01
 Coeff-En:   0.000D+00 0.000D+00 0.000D+00 0.100D+01
 Coeff:      0.672D-02-0.606D-01-0.236D+00 0.129D+01
 Gap=     0.623 Goal=   None    Shift=    0.000
 RMSDP=5.16D-05 MaxDP=1.03D-03 DE=-3.70D-03 OVMax= 2.19D-03

 Cycle   5  Pass 1  IDiag  1:
 E= -152.108706200716     Delta-E=       -0.000049226166 Rises=F Damp=F
 DIIS: error= 1.93D-04 at cycle   5 NSaved=   5.
 NSaved= 5 IEnMin= 5 EnMin= -152.108706200716     IErMin= 5 ErrMin= 1.93D-04
 ErrMax= 1.93D-04  0.00D+00 EMaxC= 1.00D-01 BMatC= 1.34D-06 BMatP= 3.68D-05
 IDIUse=3 WtCom= 9.98D-01 WtEn= 1.93D-03
 Coeff-Com:  0.515D-03 0.649D-03-0.216D-02-0.226D+00 0.123D+01
 Coeff-En:   0.000D+00 0.000D+00 0.000D+00 0.000D+00 0.100D+01
 Coeff:      0.514D-03 0.648D-03-0.215D-02-0.226D+00 0.123D+01
 Gap=     0.624 Goal=   None    Shift=    0.000
 RMSDP=1.43D-05 MaxDP=2.95D-04 DE=-4.92D-05 OVMax= 6.85D-04

 Cycle   6  Pass 1  IDiag  1:
 E= -152.108708993542     Delta-E=       -0.000002792825 Rises=F Damp=F
 DIIS: error= 2.75D-05 at cycle   6 NSaved=   6.
 NSaved= 6 IEnMin= 6 EnMin= -152.108708993542     IErMin= 6 ErrMin= 2.75D-05
 ErrMax= 2.75D-05  0.00D+00 EMaxC= 1.00D-01 BMatC= 3.31D-08 BMatP= 1.34D-06
 IDIUse=1 WtCom= 1.00D+00 WtEn= 0.00D+00
 Coeff-Com: -0.254D-03 0.152D-02 0.645D-02-0.128D-02-0.236D+00 0.123D+01
 Coeff:     -0.254D-03 0.152D-02 0.645D-02-0.128D-02-0.236D+00 0.123D+01
 Gap=     0.624 Goal=   None    Shift=    0.000
 RMSDP=2.94D-06 MaxDP=6.73D-05 DE=-2.79D-06 OVMax= 1.53D-04

 Cycle   7  Pass 1  IDiag  1:
 E= -152.108709085162     Delta-E=       -0.000000091620 Rises=F Damp=F
 DIIS: error= 5.35D-06 at cycle   7 NSaved=   7.
 NSaved= 7 IEnMin= 7 EnMin= -152.108709085162     IErMin= 7 ErrMin= 5.35D-06
 ErrMax= 5.35D-06  0.00D+00 EMaxC= 1.00D-01 BMatC= 2.66D-09 BMatP= 3.31D-08
 IDIUse=1 WtCom= 1.00D+00 WtEn= 0.00D+00
 Coeff-Com: -0.336D-04-0.177D-04 0.702D-04 0.138D-01-0.761D-01 0.675D-01
 Coeff-Com:  0.995D+00
 Coeff:     -0.336D-04-0.177D-04 0.702D-04 0.138D-01-0.761D-01 0.675D-01
 Coeff:      0.995D+00
 Gap=     0.624 Goal=   None    Shift=    0.000
 RMSDP=4.19D-07 MaxDP=1.20D-05 DE=-9.16D-08 OVMax= 3.12D-05

 Cycle   8  Pass 1  IDiag  1:
 E= -152.108709089163     Delta-E=       -0.000000004001 Rises=F Damp=F
 DIIS: error= 1.98D-06 at cycle   8 NSaved=   8.
 NSaved= 8 IEnMin= 8 EnMin= -152.108709089163     IErMin= 8 ErrMin= 1.98D-06
 ErrMax= 1.98D-06  0.00D+00 EMaxC= 1.00D-01 BMatC= 4.40D-10 BMatP= 2.66D-09
 IDIUse=1 WtCom= 1.00D+00 WtEn= 0.00D+00
 Coeff-Com:  0.248D-04-0.204D-03-0.825D-03 0.354D-02 0.128D-01-0.138D+00
 Coeff-Com:  0.220D+00 0.903D+00
 Coeff:      0.248D-04-0.204D-03-0.825D-03 0.354D-02 0.128D-01-0.138D+00
 Coeff:      0.220D+00 0.903D+00
 Gap=     0.624 Goal=   None    Shift=    0.000
 RMSDP=1.40D-07 MaxDP=3.54D-06 DE=-4.00D-09 OVMax= 1.07D-05

 Cycle   9  Pass 1  IDiag  1:
 E= -152.108709089745     Delta-E=       -0.000000000582 Rises=F Damp=F
 DIIS: error= 8.80D-07 at cycle   9 NSaved=   9.
 NSaved= 9 IEnMin= 9 EnMin= -152.108709089745     IErMin= 9 ErrMin= 8.80D-07
 ErrMax= 8.80D-07  0.00D+00 EMaxC= 1.00D-01 BMatC= 2.64D-11 BMatP= 4.40D-10
 IDIUse=1 WtCom= 1.00D+00 WtEn= 0.00D+00
 Coeff-Com:  0.783D-06 0.307D-04 0.126D-03-0.244D-02 0.852D-02 0.804D-02
 Coeff-Com: -0.137D+00-0.105D+00 0.123D+01
 Coeff:      0.783D-06 0.307D-04 0.126D-03-0.244D-02 0.852D-02 0.804D-02
 Coeff:     -0.137D+00-0.105D+00 0.123D+01
 Gap=     0.624 Goal=   None    Shift=    0.000
 RMSDP=5.46D-08 MaxDP=1.09D-06 DE=-5.82D-10 OVMax= 3.05D-06

 Cycle  10  Pass 1  IDiag  1:
 E= -152.108709089797     Delta-E=       -0.000000000051 Rises=F Damp=F
 DIIS: error= 9.78D-08 at cycle  10 NSaved=  10.
 NSaved=10 IEnMin=10 EnMin= -152.108709089797     IErMin=10 ErrMin= 9.78D-08
 ErrMax= 9.78D-08  0.00D+00 EMaxC= 1.00D-01 BMatC= 4.22D-13 BMatP= 2.64D-11
 IDIUse=1 WtCom= 1.00D+00 WtEn= 0.00D+00
 Coeff-Com: -0.582D-06-0.417D-05-0.196D-04 0.540D-03-0.201D-02-0.141D-02
 Coeff-Com:  0.361D-01 0.175D-01-0.375D+00 0.132D+01
 Coeff:     -0.582D-06-0.417D-05-0.196D-04 0.540D-03-0.201D-02-0.141D-02
 Coeff:      0.361D-01 0.175D-01-0.375D+00 0.132D+01
 Gap=     0.624 Goal=   None    Shift=    0.000
 RMSDP=7.10D-09 MaxDP=1.91D-07 DE=-5.12D-11 OVMax= 4.10D-07

 SCF Done:  E(RHF) =  -152.108709090     A.U. after   10 cycles
            NFock= 10  Conv=0.71D-08     -V/T= 2.0020
 KE= 1.518025689242D+02 PE=-4.171493184885D+02 EE= 8.537345797968D+01
 Leave Link  502 at Sat Aug 27 23:05:52 2022, MaxMem=   536870912 cpu:               3.8 elap:               1.1
 (Enter /usr/site/hpc/x86_64/glibc-2.17/broadwell/gaussian/g16_a.03/pgi-16.5/g16/l801.exe)
 Windowed orbitals will be sorted by symmetry type.
 ExpMin= 1.03D-01 ExpMax= 1.53D+04 ExpMxC= 5.22D+02 IAcc=3 IRadAn=         5 AccDes= 0.00D+00
 HarFok:  IExCor=  205 AccDes= 0.00D+00 IRadAn=         5 IDoV=-2 UseB2=F ITyADJ=14
 ICtDFT= 12500011 ScaDFX=  1.000000  1.000000  1.000000  1.000000
 Largest valence mixing into a core orbital is  1.12D-04
 Largest core mixing into a valence orbital is  1.76D-05
 Range of M.O.s used for correlation:     3   116
 NBasis=   116 NAE=    10 NBE=    10 NFC=     2 NFV=     0
 NROrb=    114 NOA=     8 NOB=     8 NVA=   106 NVB=   106
 Leave Link  801 at Sat Aug 27 23:05:52 2022, MaxMem=   536870912 cpu:               0.3 elap:               0.1
 (Enter /usr/site/hpc/x86_64/glibc-2.17/broadwell/gaussian/g16_a.03/pgi-16.5/g16/l804.exe)
 Closed-shell transformation, MDV=   536870912 ITran=4 ISComp=2.
 Unit  1 TFree=        834515 TCopy=        406125.
 Semi-Direct transformation.
 ModeAB=           4 MOrb=             8 LenV=     536376815
 LASXX=      2873146 LTotXX=     2873146 LenRXX=     5831278
 LTotAB=     2958132 MaxLAS=     5451936 LenRXY=           0
 NonZer=     8704424 LenScr=    13107200 LnRSAI=     5451936
 LnScr1=     8388608 LExtra=           0 Total=     32779022
 MaxDsk=          -1 SrtSym=           T ITran=            4
 DoSDTr:  NPSUse=  4
 JobTyp=0 Pass  1:  I=   1 to   8.
 (rs|ai) integrals will be sorted in core.
 Complete sort for first half transformation.
 First half transformation complete.
 Complete sort for second half transformation.
 Second half transformation complete.
 Spin components of T(2) and E(2):
     alpha-alpha T2 =       0.1555325154D-01 E2=     -0.6380146385D-01
     alpha-beta  T2 =       0.9184015490D-01 E2=     -0.3982132776D+00
     beta-beta   T2 =       0.1555325154D-01 E2=     -0.6380146385D-01
 ANorm=    0.1059691775D+01
 E2 =    -0.5258162053D+00 EUMP2 =    -0.15263452529511D+03
 Leave Link  804 at Sat Aug 27 23:05:53 2022, MaxMem=   536870912 cpu:               3.9 elap:               1.1
 (Enter /usr/site/hpc/x86_64/glibc-2.17/broadwell/gaussian/g16_a.03/pgi-16.5/g16/l913.exe)
 CIDS:  MDV=   536870912.
 Frozen-core window:  NFC=   2 NFV=   0.
 IFCWin=0 IBDFC=1 NFBD=     0     0 NFCmp=     0     0 NFFFC=     0     0
 Using DD3R+UMP44R for 1st iteration.
 Using DD4RQ for 2nd and later iterations.
 Keep R2 and R3 ints in memory in symmetry-blocked form, NReq=35357534.
 FoFCou: FMM=F IPFlag=           0 FMFlag=           0 FMFlg1=           0
         NFxFlg=           0 DoJE=F BraDBF=F KetDBF=F FulRan=T
         wScrn=  0.000000 ICntrl=       600 IOpCl=  0 I1Cent=           0 NGrid=           0
         NMat0=    1 NMatS0=   6786 NMatT0=    0 NMatD0=    1 NMtDS0=    0 NMtDT0=    0
 Petite list used in FoFCou.
 CIDS: In Core Option IDoMem=           1.
 CCSD(T)
 =======
 Iterations=  50 Convergence= 0.100D-06
 Produce multiple copies of IABC intergrals
 Iteration Nr.   1
 **********************
 DD1Dir will call FoFMem   1 times, MxPair=        72
 NAB=    36 NAA=     0 NBB=     0.
 MP4(R+Q)=  0.75430628D-02
 Maximum subspace dimension=  5
 A-vector RMS=  1.7376234D-03 Max=  6.1779998D-03 conv= 1.00D-05.
 RLE energy=       -0.5257641402
 E3=       -0.75617259D-02        EUMP3=      -0.15264208702D+03
 E4(DQ)=   -0.15491417D-02        UMP4(DQ)=   -0.15264363616D+03
 E4(SDQ)=  -0.45960643D-02        UMP4(SDQ)=  -0.15264668309D+03
 VARIATIONAL ENERGIES WITH THE FIRST-ORDER WAVEFUNCTION:
 DE(Corr)= -0.52576414     E(Corr)=     -152.63447323    
 NORM(A)=   0.10600567D+01
 Iteration Nr.   2
 **********************
 DD1Dir will call FoFMem   1 times, MxPair=        72
 NAB=    36 NAA=     0 NBB=     0.
 A-vector RMS=  2.1272415D-04 Max=  2.3188680D-03 conv= 1.00D-05.
 RLE energy=       -0.5368063208
 DE(Corr)= -0.53564752     E(CORR)=     -152.64435661     Delta=-9.88D-03
 NORM(A)=   0.10637948D+01
 Iteration Nr.   3
 **********************
 DD1Dir will call FoFMem   1 times, MxPair=        72
 NAB=    36 NAA=     0 NBB=     0.
 A-vector RMS=  1.4002349D-04 Max=  8.3900822D-04 conv= 1.00D-05.
 RLE energy=       -0.5373008923
 DE(Corr)= -0.53671693     E(CORR)=     -152.64542602     Delta=-1.07D-03
 NORM(A)=   0.10644301D+01
 Iteration Nr.   4
 **********************
 DD1Dir will call FoFMem   1 times, MxPair=        72
 NAB=    36 NAA=     0 NBB=     0.
 A-vector RMS=  2.6022045D-05 Max=  1.3933158D-04 conv= 1.00D-05.
 RLE energy=       -0.5373838685
 DE(Corr)= -0.53734869     E(CORR)=     -152.64605778     Delta=-6.32D-04
 NORM(A)=   0.10645399D+01
 Iteration Nr.   5
 **********************
 DD1Dir will call FoFMem   1 times, MxPair=        72
 NAB=    36 NAA=     0 NBB=     0.
 A-vector RMS=  1.8478628D-05 Max=  1.5525125D-04 conv= 1.00D-05.
 RLE energy=       -0.5373921342
 DE(Corr)= -0.53738545     E(CORR)=     -152.64609454     Delta=-3.68D-05
 NORM(A)=   0.10645492D+01
 Iteration Nr.   6
 **********************
 DD1Dir will call FoFMem   1 times, MxPair=        72
 NAB=    36 NAA=     0 NBB=     0.
 A-vector RMS=  5.5233687D-06 Max=  4.3798733D-05 conv= 1.00D-05.
 RLE energy=       -0.5373831425
 DE(Corr)= -0.53738860     E(CORR)=     -152.64609769     Delta=-3.15D-06
 NORM(A)=   0.10645493D+01
 Iteration Nr.   7
 **********************
 DD1Dir will call FoFMem   1 times, MxPair=        72
 NAB=    36 NAA=     0 NBB=     0.
 A-vector RMS=  2.6382644D-06 Max=  2.2205613D-05 conv= 1.00D-05.
 RLE energy=       -0.5373896382
 DE(Corr)= -0.53738875     E(CORR)=     -152.64609784     Delta=-1.51D-07
 NORM(A)=   0.10645515D+01
 Iteration Nr.   8
 **********************
 DD1Dir will call FoFMem   1 times, MxPair=        72
 NAB=    36 NAA=     0 NBB=     0.
 A-vector RMS=  5.9824268D-07 Max=  5.2484127D-06 conv= 1.00D-05.
 RLE energy=       -0.5373881566
 DE(Corr)= -0.53738832     E(CORR)=     -152.64609741     Delta= 4.27D-07
 NORM(A)=   0.10645516D+01
 Iteration Nr.   9
 **********************
 DD1Dir will call FoFMem   1 times, MxPair=        72
 NAB=    36 NAA=     0 NBB=     0.
 A-vector RMS=  1.5310379D-07 Max=  1.1609104D-06 conv= 1.00D-05.
 RLE energy=       -0.5373885192
 DE(Corr)= -0.53738857     E(CORR)=     -152.64609766     Delta=-2.48D-07
 NORM(A)=   0.10645519D+01
 Iteration Nr.  10
 **********************
 DD1Dir will call FoFMem   1 times, MxPair=        72
 NAB=    36 NAA=     0 NBB=     0.
 A-vector RMS=  5.6119251D-08 Max=  5.2618567D-07 conv= 1.00D-05.
 RLE energy=       -0.5373886060
 DE(Corr)= -0.53738858     E(CORR)=     -152.64609767     Delta=-7.74D-09
 NORM(A)=   0.10645520D+01
 CI/CC converged in   10 iterations to DelEn=-7.74D-09 Conv= 1.00D-07 ErrA1= 5.61D-08 Conv= 1.00D-05
 Wavefunction amplitudes converged. E(Corr)=     -152.64609767    
 Largest amplitude= 4.80D-02
 IPart=  4 IA=    7   11.05% done.
 IPart=  2 IA=   13   21.46% done.
 IPart=  1 IA=   19   31.21% done.
 IPart=  3 IA=   25   40.32% done.
 IPart=  3 IA=   32   50.13% done.
 IPart=  3 IA=   40   60.27% done.
 IPart=  3 IA=   49   70.30% done.
 IPart=  2 IA=   60   80.58% done.
 IPart=  4 IA=   74   90.51% done.
 Time for triples=       52.53 seconds.
 T4(CCSD)= -0.16015609D-01
 T5(CCSD)=  0.40103757D-03
 CCSD(T)= -0.15266171224D+03
 Discarding MO integrals.
 Leave Link  913 at Sat Aug 27 23:06:15 2022, MaxMem=   536870912 cpu:              82.5 elap:              21.8
 (Enter /usr/site/hpc/x86_64/glibc-2.17/broadwell/gaussian/g16_a.03/pgi-16.5/g16/l601.exe)
 Copying SCF densities to generalized density rwf, IOpCl= 0 IROHF=0.

 **********************************************************************

            Population analysis using the SCF density.

 **********************************************************************

 Orbital symmetries:
       Occupied  (A') (A') (A') (A') (A') (A') (A') (A') (A") (A")
       Virtual   (A') (A') (A') (A') (A') (A') (A') (A') (A') (A')
                 (A") (A') (A") (A') (A') (A") (A') (A") (A") (A")
                 (A') (A') (A') (A') (A') (A') (A') (A') (A") (A")
                 (A") (A") (A') (A') (A') (A') (A') (A') (A') (A')
                 (A') (A') (A") (A") (A') (A') (A") (A") (A') (A')
                 (A") (A") (A') (A') (A') (A') (A") (A") (A") (A")
                 (A') (A') (A') (A') (A") (A") (A') (A') (A') (A')
                 (A") (A") (A') (A') (A') (A') (A') (A') (A') (A')
                 (A") (A") (A') (A') (A") (A") (A") (A") (A') (A')
                 (A") (A") (A') (A') (A') (A') (A") (A") (A') (A')
                 (A') (A') (A') (A') (A') (A')
 The electronic state is 1-A'.
 Alpha  occ. eigenvalues --  -20.56276 -20.54830  -1.33574  -1.32140  -0.70977
 Alpha  occ. eigenvalues --   -0.69540  -0.57078  -0.55616  -0.50695  -0.49266
 Alpha virt. eigenvalues --    0.13129   0.15164   0.19650   0.21277   0.53573
 Alpha virt. eigenvalues --    0.54904   0.56600   0.57827   0.66679   0.69058
 Alpha virt. eigenvalues --    0.78198   0.79547   0.79583   0.79663   0.82867
 Alpha virt. eigenvalues --    0.84163   0.84815   0.85565   0.96538   0.97956
 Alpha virt. eigenvalues --    1.13905   1.15856   1.16424   1.17884   1.51012
 Alpha virt. eigenvalues --    1.51307   1.52457   1.52994   1.99912   2.01348
 Alpha virt. eigenvalues --    2.05991   2.07420   2.08612   2.10059   2.14168
 Alpha virt. eigenvalues --    2.15550   2.24635   2.25876   2.60775   2.62363
 Alpha virt. eigenvalues --    2.92136   2.93889   3.38654   3.40082   3.49215
 Alpha virt. eigenvalues --    3.50646   3.52421   3.53845   3.58795   3.60262
 Alpha virt. eigenvalues --    3.77924   3.79357   3.84694   3.86086   3.87120
 Alpha virt. eigenvalues --    3.88364   3.92869   3.94295   4.02318   4.03754
 Alpha virt. eigenvalues --    4.07465   4.08986   4.14538   4.16054   4.29390
 Alpha virt. eigenvalues --    4.30833   4.39209   4.40604   4.44863   4.46313
 Alpha virt. eigenvalues --    4.65784   4.67210   4.80155   4.81654   5.03537
 Alpha virt. eigenvalues --    5.04968   5.23326   5.24780   5.53280   5.54713
 Alpha virt. eigenvalues --    5.97152   5.98596   6.39634   6.41080   6.85413
 Alpha virt. eigenvalues --    6.86854   6.88905   6.90341   6.93838   6.95291
 Alpha virt. eigenvalues --    6.98341   6.99785   7.07117   7.08562   7.11946
 Alpha virt. eigenvalues --    7.13160   7.17511   7.18955   7.46416   7.47916
 Alpha virt. eigenvalues --    7.69526   7.70992   8.14311   8.15789  12.48184
 Alpha virt. eigenvalues --   12.50640
          Condensed to atoms (all electrons):
               1          2          3          4          5          6
     1  O    7.822928   0.346279   0.345835  -0.000004   0.000000   0.000000
     2  H    0.346279   0.428637  -0.036742   0.000344  -0.000015  -0.000014
     3  H    0.345835  -0.036742   0.437788  -0.000005   0.000000   0.000000
     4  O   -0.000004   0.000344  -0.000005   7.822369   0.346837   0.345980
     5  H    0.000000  -0.000015   0.000000   0.346837   0.430621  -0.036323
     6  H    0.000000  -0.000014   0.000000   0.345980  -0.036323   0.433314
 Mulliken charges:
               1
     1  O   -0.515038
     2  H    0.261512
     3  H    0.253124
     4  O   -0.515521
     5  H    0.258880
     6  H    0.257043
 Sum of Mulliken charges =  -0.00000
 Mulliken charges with hydrogens summed into heavy atoms:
               1
     1  O   -0.000402
     4  O    0.000402
 Electronic spatial extent (au):  <R**2>=            541.6974
 Charge=             -0.0000 electrons
 Dipole moment (field-independent basis, Debye):
    X=             -1.5357    Y=             -3.1821    Z=             -0.0000  Tot=              3.5333
 Quadrupole moment (field-independent basis, Debye-Ang):
   XX=             -9.1568   YY=             -6.4980   ZZ=            -14.7159
   XY=             -5.4989   XZ=             -0.0000   YZ=             -0.0000
 Traceless Quadrupole moment (field-independent basis, Debye-Ang):
   XX=              0.9668   YY=              3.6256   ZZ=             -4.5923
   XY=             -5.4989   XZ=             -0.0000   YZ=             -0.0000
 Octapole moment (field-independent basis, Debye-Ang**2):
  XXX=             -1.4467  YYY=            -58.3736  ZZZ=             -0.0000  XYY=            -16.6181
  XXY=             -4.6853  XXZ=             -0.0000  XZZ=             -0.2009  YZZ=             -0.4388
  YYZ=             -0.0000  XYZ=             -0.0000
 Hexadecapole moment (field-independent basis, Debye-Ang**3):
 XXXX=            -11.1647 YYYY=           -420.4446 ZZZZ=            -11.3439 XXXY=             -2.2784
 XXXZ=             -0.0000 YYYX=            -51.6497 YYYZ=             -0.0000 ZZZX=             -0.0000
 ZZZY=             -0.0000 XXYY=            -58.0935 XXZZ=             -4.4467 YYZZ=           -108.0040
 XXYZ=             -0.0000 YYXZ=             -0.0000 ZZXY=              1.3827
 N-N= 2.786458249481D+01 E-N=-4.171493173045D+02  KE= 1.518025689242D+02
 Symmetry A'   KE= 1.427673293285D+02
 Symmetry A"   KE= 9.035239595719D+00
 Leave Link  601 at Sat Aug 27 23:06:15 2022, MaxMem=   536870912 cpu:               0.1 elap:               0.0
 (Enter /usr/site/hpc/x86_64/glibc-2.17/broadwell/gaussian/g16_a.03/pgi-16.5/g16/l9999.exe)
 1\1\GINC-N002\SP\RCCSD(T)-FC\CC-pVTZ\H4O2\ROOT\27-Aug-2022\0\\#p CCSD(
 T)/cc-pVTZ\\H2O_H2O_4065\\0,1\O,0,0.,-0.009833,0.\H,0,-0.799571,-0.580
 965,0.\H,0,0.799571,-0.580965,0.\O,0,-4.298043,-3.069705,0.\H,0,-5.217
 14,-2.722189,0.\H,0,-4.328704,-4.051828,0.\\Version=ES64L-G16RevA.03\S
 tate=1-A'\HF=-152.1087091\MP2=-152.6345253\MP3=-152.642087\MP4D=-152.6
 511792\MP4DQ=-152.6436362\MP4SDQ=-152.6466831\CCSD=-152.6460977\CCSD(T
 )=-152.6617122\RMSD=7.097e-09\PG=CS [SG(H4O2)]\\@



 IN THIS SHORT LIFE

 THAT ONLY LASTS AN HOUR

 HOW MUCH, HOW LITTLE, IS WITHIN OUR POWER....


 EMILY DICKINSON BOLTS OF MELODY NO. 521
 Job cpu time:       0 days  0 hours  1 minutes 37.1 seconds.
 Elapsed time:       0 days  0 hours  0 minutes 26.2 seconds.
 File lengths (MBytes):  RWF=    320 Int=      0 D2E=      0 Chk=      8 Scr=      8
 Normal termination of Gaussian 16 at Sat Aug 27 23:06:15 2022.
