 Entering Gaussian System, Link 0=g16
 Input=H2O_H2O_1475.com
 Output=H2O_H2O_1475.log
 Initial command:
 /usr/site/hpc/x86_64/glibc-2.17/broadwell/gaussian/g16_a.03/pgi-16.5/g16/l1.exe "/gpfs/gpfs1/scratch/c7441284/ForceFieldModel/FittingData2/Gau-169020.inp" -scrdir="/gpfs/gpfs1/scratch/c7441284/ForceFieldModel/FittingData2/"
 Entering Link 1 = /usr/site/hpc/x86_64/glibc-2.17/broadwell/gaussian/g16_a.03/pgi-16.5/g16/l1.exe PID=    169021.
  
 Copyright (c) 1988,1990,1992,1993,1995,1998,2003,2009,2016,
            Gaussian, Inc.  All Rights Reserved.
  
 This is part of the Gaussian(R) 16 program.  It is based on
 the Gaussian(R) 09 system (copyright 2009, Gaussian, Inc.),
 the Gaussian(R) 03 system (copyright 2003, Gaussian, Inc.),
 the Gaussian(R) 98 system (copyright 1998, Gaussian, Inc.),
 the Gaussian(R) 94 system (copyright 1995, Gaussian, Inc.),
 the Gaussian 92(TM) system (copyright 1992, Gaussian, Inc.),
 the Gaussian 90(TM) system (copyright 1990, Gaussian, Inc.),
 the Gaussian 88(TM) system (copyright 1988, Gaussian, Inc.),
 the Gaussian 86(TM) system (copyright 1986, Carnegie Mellon
 University), and the Gaussian 82(TM) system (copyright 1983,
 Carnegie Mellon University). Gaussian is a federally registered
 trademark of Gaussian, Inc.
  
 This software contains proprietary and confidential information,
 including trade secrets, belonging to Gaussian, Inc.
  
 This software is provided under written license and may be
 used, copied, transmitted, or stored only in accord with that
 written license.
  
 The following legend is applicable only to US Government
 contracts under FAR:
  
                    RESTRICTED RIGHTS LEGEND
  
 Use, reproduction and disclosure by the US Government is
 subject to restrictions as set forth in subparagraphs (a)
 and (c) of the Commercial Computer Software - Restricted
 Rights clause in FAR 52.227-19.
  
 Gaussian, Inc.
 340 Quinnipiac St., Bldg. 40, Wallingford CT 06492
  
  
 ---------------------------------------------------------------
 Warning -- This program may not be used in any manner that
 competes with the business of Gaussian, Inc. or will provide
 assistance to any competitor of Gaussian, Inc.  The licensee
 of this program is prohibited from giving any competitor of
 Gaussian, Inc. access to this program.  By using this program,
 the user acknowledges that Gaussian, Inc. is engaged in the
 business of creating and licensing software in the field of
 computational chemistry and represents and warrants to the
 licensee that it is not a competitor of Gaussian, Inc. and that
 it will not use this program in any manner prohibited above.
 ---------------------------------------------------------------
  

 Cite this work as:
 Gaussian 16, Revision A.03,
 M. J. Frisch, G. W. Trucks, H. B. Schlegel, G. E. Scuseria, 
 M. A. Robb, J. R. Cheeseman, G. Scalmani, V. Barone, 
 G. A. Petersson, H. Nakatsuji, X. Li, M. Caricato, A. V. Marenich, 
 J. Bloino, B. G. Janesko, R. Gomperts, B. Mennucci, H. P. Hratchian, 
 J. V. Ortiz, A. F. Izmaylov, J. L. Sonnenberg, D. Williams-Young, 
 F. Ding, F. Lipparini, F. Egidi, J. Goings, B. Peng, A. Petrone, 
 T. Henderson, D. Ranasinghe, V. G. Zakrzewski, J. Gao, N. Rega, 
 G. Zheng, W. Liang, M. Hada, M. Ehara, K. Toyota, R. Fukuda, 
 J. Hasegawa, M. Ishida, T. Nakajima, Y. Honda, O. Kitao, H. Nakai, 
 T. Vreven, K. Throssell, J. A. Montgomery, Jr., J. E. Peralta, 
 F. Ogliaro, M. J. Bearpark, J. J. Heyd, E. N. Brothers, K. N. Kudin, 
 V. N. Staroverov, T. A. Keith, R. Kobayashi, J. Normand, 
 K. Raghavachari, A. P. Rendell, J. C. Burant, S. S. Iyengar, 
 J. Tomasi, M. Cossi, J. M. Millam, M. Klene, C. Adamo, R. Cammi, 
 J. W. Ochterski, R. L. Martin, K. Morokuma, O. Farkas, 
 J. B. Foresman, and D. J. Fox, Gaussian, Inc., Wallingford CT, 2016.
 
 ******************************************
 Gaussian 16:  ES64L-G16RevA.03 25-Dec-2016
                27-Aug-2022 
 ******************************************
 %NProcShared=4
 Will use up to    4 processors via shared memory.
 %Mem=4GB
 %Chk=H2O_H2O_1475.chk
 ------------------
 #p CCSD(T)/cc-pVTZ
 ------------------
 1/38=1,172=1/1;
 2/12=2,17=6,18=5,40=1/2;
 3/5=16,6=1,11=9,25=1,30=1/1,2,3;
 4//1;
 5/5=2,38=5/2;
 8/6=4,9=120000,10=1/1,4;
 9/5=7,14=2/13;
 6/7=2,8=2,9=2,10=2/1;
 99/5=1,9=1/99;
 Leave Link    1 at Sat Aug 27 00:48:20 2022, MaxMem=   536870912 cpu:               0.3 elap:               0.1
 (Enter /usr/site/hpc/x86_64/glibc-2.17/broadwell/gaussian/g16_a.03/pgi-16.5/g16/l101.exe)
 ------------
 H2O_H2O_1475
 ------------
 Symbolic Z-matrix:
 Charge =  0 Multiplicity = 1
 O                     0.       -0.00983   0. 
 H                    -0.79957  -0.58097   0. 
 H                     0.79957  -0.58097   0. 
 O                    -2.61829  -1.88007   0. 
 H                    -3.41786  -2.4512    0. 
 H                    -1.81872  -2.4512    0. 
 
 ITRead=  0  0  0  0  0  0
 MicOpt= -1 -1 -1 -1 -1 -1
 NAtoms=      6 NQM=        6 NQMF=       0 NMMI=      0 NMMIF=      0
                NMic=       0 NMicF=      0.
                    Isotopes and Nuclear Properties:
 (Nuclear quadrupole moments (NQMom) in fm**2, nuclear magnetic moments (NMagM)
  in nuclear magnetons)

  Atom         1           2           3           4           5           6
 IAtWgt=          16           1           1          16           1           1
 AtmWgt=  15.9949146   1.0078250   1.0078250  15.9949146   1.0078250   1.0078250
 NucSpn=           0           1           1           0           1           1
 AtZEff=  -0.0000000  -0.0000000  -0.0000000  -0.0000000  -0.0000000  -0.0000000
 NQMom=    0.0000000   0.0000000   0.0000000   0.0000000   0.0000000   0.0000000
 NMagM=    0.0000000   2.7928460   2.7928460   0.0000000   2.7928460   2.7928460
 AtZNuc=   8.0000000   1.0000000   1.0000000   8.0000000   1.0000000   1.0000000
 Leave Link  101 at Sat Aug 27 00:48:20 2022, MaxMem=   536870912 cpu:               0.6 elap:               0.2
 (Enter /usr/site/hpc/x86_64/glibc-2.17/broadwell/gaussian/g16_a.03/pgi-16.5/g16/l202.exe)
                          Input orientation:                          
 ---------------------------------------------------------------------
 Center     Atomic      Atomic             Coordinates (Angstroms)
 Number     Number       Type             X           Y           Z
 ---------------------------------------------------------------------
      1          8           0        0.000000   -0.009833    0.000000
      2          1           0       -0.799571   -0.580965    0.000000
      3          1           0        0.799571   -0.580965    0.000000
      4          8           0       -2.618290   -1.880072    0.000000
      5          1           0       -3.417861   -2.451204    0.000000
      6          1           0       -1.818718   -2.451204    0.000000
 ---------------------------------------------------------------------
                    Distance matrix (angstroms):
                    1          2          3          4          5
     1  O    0.000000
     2  H    0.982601   0.000000
     3  H    0.982601   1.599142   0.000000
     4  O    3.217645   2.235043   3.656426   0.000000
     5  H    4.200246   3.217645   4.613516   0.982601   0.000000
     6  H    3.044344   2.129895   3.217644   0.982602   1.599143
                    6
     6  H    0.000000
 Stoichiometry    H4O2
 Framework group  CS[SG(H4O2)]
 Deg. of freedom     9
 Full point group                 CS      NOp   2
 Largest Abelian subgroup         CS      NOp   2
 Largest concise Abelian subgroup C1      NOp   1
                         Standard orientation:                         
 ---------------------------------------------------------------------
 Center     Atomic      Atomic             Coordinates (Angstroms)
 Number     Number       Type             X           Y           Z
 ---------------------------------------------------------------------
      1          8           0        0.092949   -1.675216    0.000000
      2          1           0        0.092949   -0.692614    0.000000
      3          1           0       -0.836544   -1.993882    0.000000
      4          8           0        0.092949    1.542429    0.000000
      5          1           0        0.092949    2.525030    0.000000
      6          1           0       -0.836544    1.223762    0.000000
 ---------------------------------------------------------------------
 Rotational constants (GHZ):         308.2994643           5.3008274           5.2112268
 Leave Link  202 at Sat Aug 27 00:48:20 2022, MaxMem=   536870912 cpu:               0.0 elap:               0.0
 (Enter /usr/site/hpc/x86_64/glibc-2.17/broadwell/gaussian/g16_a.03/pgi-16.5/g16/l301.exe)
 Standard basis: CC-pVTZ (5D, 7F)
 Ernie: Thresh=  0.10000D-02 Tol=  0.10000D-05 Strict=F.
 Ernie:  6 primitive shells out of 84 were deleted.
 There are    92 symmetry adapted cartesian basis functions of A'  symmetry.
 There are    38 symmetry adapted cartesian basis functions of A"  symmetry.
 There are    80 symmetry adapted basis functions of A'  symmetry.
 There are    36 symmetry adapted basis functions of A"  symmetry.
   116 basis functions,   172 primitive gaussians,   130 cartesian basis functions
    10 alpha electrons       10 beta electrons
       nuclear repulsion energy        34.5633096901 Hartrees.
 IExCor=    0 DFT=F Ex=HF Corr=None ExCW=0 ScaHFX=  1.000000
 ScaDFX=  1.000000  1.000000  1.000000  1.000000 ScalE2=  1.000000  1.000000
 IRadAn=      5 IRanWt=     -1 IRanGd=            0 ICorTp=0 IEmpDi=  4
 NAtoms=    6 NActive=    6 NUniq=    6 SFac= 1.00D+00 NAtFMM=   60 NAOKFM=F Big=F
 Integral buffers will be    131072 words long.
 Raffenetti 1 integral format.
 Two-electron integral symmetry is turned on.
 Leave Link  301 at Sat Aug 27 00:48:20 2022, MaxMem=   536870912 cpu:               0.2 elap:               0.0
 (Enter /usr/site/hpc/x86_64/glibc-2.17/broadwell/gaussian/g16_a.03/pgi-16.5/g16/l302.exe)
 NPDir=0 NMtPBC=     1 NCelOv=     1 NCel=       1 NClECP=     1 NCelD=      1
         NCelK=      1 NCelE2=     1 NClLst=     1 CellRange=     0.0.
 One-electron integrals computed using PRISM.
 One-electron integral symmetry used in STVInt
 NBasis=   116 RedAO= T EigKep=  2.16D-03  NBF=    80    36
 NBsUse=   116 1.00D-06 EigRej= -1.00D+00 NBFU=    80    36
 Leave Link  302 at Sat Aug 27 00:48:20 2022, MaxMem=   536870912 cpu:               0.5 elap:               0.1
 (Enter /usr/site/hpc/x86_64/glibc-2.17/broadwell/gaussian/g16_a.03/pgi-16.5/g16/l303.exe)
 DipDrv:  MaxL=1.
 Leave Link  303 at Sat Aug 27 00:48:21 2022, MaxMem=   536870912 cpu:               0.1 elap:               0.0
 (Enter /usr/site/hpc/x86_64/glibc-2.17/broadwell/gaussian/g16_a.03/pgi-16.5/g16/l401.exe)
 ExpMin= 1.03D-01 ExpMax= 1.53D+04 ExpMxC= 5.22D+02 IAcc=3 IRadAn=         5 AccDes= 0.00D+00
 Harris functional with IExCor=  205 and IRadAn=       5 diagonalized for initial guess.
 HarFok:  IExCor=  205 AccDes= 0.00D+00 IRadAn=         5 IDoV= 1 UseB2=F ITyADJ=14
 ICtDFT=  3500011 ScaDFX=  1.000000  1.000000  1.000000  1.000000
 FoFCou: FMM=F IPFlag=           0 FMFlag=      100000 FMFlg1=           0
         NFxFlg=           0 DoJE=T BraDBF=F KetDBF=T FulRan=T
         wScrn=  0.000000 ICntrl=       500 IOpCl=  0 I1Cent=   200000004 NGrid=           0
         NMat0=    1 NMatS0=      1 NMatT0=    0 NMatD0=    1 NMtDS0=    0 NMtDT0=    0
 Petite list used in FoFCou.
 Harris En= -152.299283401316    
 JPrj=0 DoOrth=F DoCkMO=F.
 Initial guess orbital symmetries:
       Occupied  (A') (A') (A') (A') (A') (A') (A') (A') (A") (A")
       Virtual   (A') (A') (A') (A') (A') (A') (A') (A') (A') (A")
                 (A") (A') (A') (A') (A") (A') (A") (A') (A") (A")
                 (A') (A') (A') (A') (A') (A') (A') (A') (A") (A")
                 (A") (A") (A') (A') (A') (A') (A') (A') (A') (A')
                 (A') (A') (A") (A") (A') (A') (A") (A") (A") (A')
                 (A") (A') (A') (A') (A') (A") (A') (A") (A') (A')
                 (A") (A") (A') (A') (A") (A") (A') (A') (A') (A')
                 (A") (A") (A') (A') (A') (A') (A') (A') (A') (A')
                 (A") (A") (A') (A') (A") (A") (A") (A") (A') (A")
                 (A") (A') (A') (A') (A') (A') (A") (A") (A') (A')
                 (A') (A') (A') (A') (A') (A')
 The electronic state of the initial guess is 1-A'.
 Leave Link  401 at Sat Aug 27 00:48:21 2022, MaxMem=   536870912 cpu:               0.8 elap:               0.2
 (Enter /usr/site/hpc/x86_64/glibc-2.17/broadwell/gaussian/g16_a.03/pgi-16.5/g16/l502.exe)
 Keep R1 ints in memory in symmetry-blocked form, NReq=34823457.
 FoFCou: FMM=F IPFlag=           0 FMFlag=           0 FMFlg1=           0
         NFxFlg=           0 DoJE=F BraDBF=F KetDBF=F FulRan=T
         wScrn=  0.000000 ICntrl=       600 IOpCl=  0 I1Cent=           0 NGrid=           0
         NMat0=    1 NMatS0=   6786 NMatT0=    0 NMatD0=    1 NMtDS0=    0 NMtDT0=    0
 Petite list used in FoFCou.
 Closed shell SCF:
 Using DIIS extrapolation, IDIIS=  1040.
 NGot=   536870912 LenX=   525040673 LenY=   525023332
 Requested convergence on RMS density matrix=1.00D-08 within 128 cycles.
 Requested convergence on MAX density matrix=1.00D-06.
 Requested convergence on             energy=1.00D-06.
 No special actions if energy rises.

 Cycle   1  Pass 1  IDiag  1:
 E= -151.934892558471    
 DIIS: error= 6.27D-02 at cycle   1 NSaved=   1.
 NSaved= 1 IEnMin= 1 EnMin= -151.934892558471     IErMin= 1 ErrMin= 6.27D-02
 ErrMax= 6.27D-02  0.00D+00 EMaxC= 1.00D-01 BMatC= 3.93D-01 BMatP= 3.93D-01
 IDIUse=3 WtCom= 3.73D-01 WtEn= 6.27D-01
 Coeff-Com:  0.100D+01
 Coeff-En:   0.100D+01
 Coeff:      0.100D+01
 Gap=     0.503 Goal=   None    Shift=    0.000
 GapD=    0.503 DampG=2.000 DampE=0.500 DampFc=1.0000 IDamp=-1.
 RMSDP=2.62D-03 MaxDP=6.82D-02              OVMax= 1.24D-01

 Cycle   2  Pass 1  IDiag  1:
 E= -152.043415239392     Delta-E=       -0.108522680921 Rises=F Damp=F
 DIIS: error= 3.90D-02 at cycle   2 NSaved=   2.
 NSaved= 2 IEnMin= 2 EnMin= -152.043415239392     IErMin= 2 ErrMin= 3.90D-02
 ErrMax= 3.90D-02  0.00D+00 EMaxC= 1.00D-01 BMatC= 1.07D-01 BMatP= 3.93D-01
 IDIUse=3 WtCom= 6.10D-01 WtEn= 3.90D-01
 Coeff-Com:  0.315D+00 0.685D+00
 Coeff-En:   0.160D+00 0.840D+00
 Coeff:      0.254D+00 0.746D+00
 Gap=     0.628 Goal=   None    Shift=    0.000
 RMSDP=1.42D-03 MaxDP=4.14D-02 DE=-1.09D-01 OVMax= 5.65D-02

 Cycle   3  Pass 1  IDiag  1:
 E= -152.105057043020     Delta-E=       -0.061641803628 Rises=F Damp=F
 DIIS: error= 8.59D-03 at cycle   3 NSaved=   3.
 NSaved= 3 IEnMin= 3 EnMin= -152.105057043020     IErMin= 3 ErrMin= 8.59D-03
 ErrMax= 8.59D-03  0.00D+00 EMaxC= 1.00D-01 BMatC= 5.82D-03 BMatP= 1.07D-01
 IDIUse=3 WtCom= 9.14D-01 WtEn= 8.59D-02
 Coeff-Com: -0.304D-01 0.157D+00 0.873D+00
 Coeff-En:   0.000D+00 0.000D+00 0.100D+01
 Coeff:     -0.278D-01 0.144D+00 0.884D+00
 Gap=     0.600 Goal=   None    Shift=    0.000
 RMSDP=2.50D-04 MaxDP=5.93D-03 DE=-6.16D-02 OVMax= 1.30D-02

 Cycle   4  Pass 1  IDiag  1:
 E= -152.108675310886     Delta-E=       -0.003618267866 Rises=F Damp=F
 DIIS: error= 7.77D-04 at cycle   4 NSaved=   4.
 NSaved= 4 IEnMin= 4 EnMin= -152.108675310886     IErMin= 4 ErrMin= 7.77D-04
 ErrMax= 7.77D-04  0.00D+00 EMaxC= 1.00D-01 BMatC= 3.46D-05 BMatP= 5.82D-03
 IDIUse=3 WtCom= 9.92D-01 WtEn= 7.77D-03
 Coeff-Com:  0.698D-02-0.620D-01-0.246D+00 0.130D+01
 Coeff-En:   0.000D+00 0.000D+00 0.000D+00 0.100D+01
 Coeff:      0.692D-02-0.615D-01-0.244D+00 0.130D+01
 Gap=     0.603 Goal=   None    Shift=    0.000
 RMSDP=5.30D-05 MaxDP=9.78D-04 DE=-3.62D-03 OVMax= 2.59D-03

 Cycle   5  Pass 1  IDiag  1:
 E= -152.108725730471     Delta-E=       -0.000050419585 Rises=F Damp=F
 DIIS: error= 1.78D-04 at cycle   5 NSaved=   5.
 NSaved= 5 IEnMin= 5 EnMin= -152.108725730471     IErMin= 5 ErrMin= 1.78D-04
 ErrMax= 1.78D-04  0.00D+00 EMaxC= 1.00D-01 BMatC= 1.35D-06 BMatP= 3.46D-05
 IDIUse=3 WtCom= 9.98D-01 WtEn= 1.78D-03
 Coeff-Com:  0.581D-03-0.148D-03-0.410D-02-0.207D+00 0.121D+01
 Coeff-En:   0.000D+00 0.000D+00 0.000D+00 0.000D+00 0.100D+01
 Coeff:      0.580D-03-0.148D-03-0.410D-02-0.207D+00 0.121D+01
 Gap=     0.604 Goal=   None    Shift=    0.000
 RMSDP=1.38D-05 MaxDP=2.98D-04 DE=-5.04D-05 OVMax= 7.49D-04

 Cycle   6  Pass 1  IDiag  1:
 E= -152.108728537673     Delta-E=       -0.000002807203 Rises=F Damp=F
 DIIS: error= 3.08D-05 at cycle   6 NSaved=   6.
 NSaved= 6 IEnMin= 6 EnMin= -152.108728537673     IErMin= 6 ErrMin= 3.08D-05
 ErrMax= 3.08D-05  0.00D+00 EMaxC= 1.00D-01 BMatC= 4.67D-08 BMatP= 1.35D-06
 IDIUse=1 WtCom= 1.00D+00 WtEn= 0.00D+00
 Coeff-Com: -0.192D-03 0.180D-02 0.710D-02-0.429D-01-0.238D-01 0.106D+01
 Coeff:     -0.192D-03 0.180D-02 0.710D-02-0.429D-01-0.238D-01 0.106D+01
 Gap=     0.604 Goal=   None    Shift=    0.000
 RMSDP=2.73D-06 MaxDP=6.58D-05 DE=-2.81D-06 OVMax= 1.47D-04

 Cycle   7  Pass 1  IDiag  1:
 E= -152.108728633256     Delta-E=       -0.000000095583 Rises=F Damp=F
 DIIS: error= 1.04D-05 at cycle   7 NSaved=   7.
 NSaved= 7 IEnMin= 7 EnMin= -152.108728633256     IErMin= 7 ErrMin= 1.04D-05
 ErrMax= 1.04D-05  0.00D+00 EMaxC= 1.00D-01 BMatC= 8.28D-09 BMatP= 4.67D-08
 IDIUse=1 WtCom= 1.00D+00 WtEn= 0.00D+00
 Coeff-Com: -0.984D-04 0.390D-03 0.175D-02 0.121D-01-0.132D+00 0.271D+00
 Coeff-Com:  0.847D+00
 Coeff:     -0.984D-04 0.390D-03 0.175D-02 0.121D-01-0.132D+00 0.271D+00
 Coeff:      0.847D+00
 Gap=     0.604 Goal=   None    Shift=    0.000
 RMSDP=8.01D-07 MaxDP=2.61D-05 DE=-9.56D-08 OVMax= 4.78D-05

 Cycle   8  Pass 1  IDiag  1:
 E= -152.108728643322     Delta-E=       -0.000000010065 Rises=F Damp=F
 DIIS: error= 2.24D-06 at cycle   8 NSaved=   8.
 NSaved= 8 IEnMin= 8 EnMin= -152.108728643322     IErMin= 8 ErrMin= 2.24D-06
 ErrMax= 2.24D-06  0.00D+00 EMaxC= 1.00D-01 BMatC= 4.92D-10 BMatP= 8.28D-09
 IDIUse=1 WtCom= 1.00D+00 WtEn= 0.00D+00
 Coeff-Com:  0.257D-04-0.232D-03-0.942D-03 0.518D-02 0.672D-02-0.116D+00
 Coeff-Com: -0.370D-01 0.114D+01
 Coeff:      0.257D-04-0.232D-03-0.942D-03 0.518D-02 0.672D-02-0.116D+00
 Coeff:     -0.370D-01 0.114D+01
 Gap=     0.604 Goal=   None    Shift=    0.000
 RMSDP=2.31D-07 MaxDP=4.43D-06 DE=-1.01D-08 OVMax= 1.40D-05

 Cycle   9  Pass 1  IDiag  1:
 E= -152.108728644276     Delta-E=       -0.000000000955 Rises=F Damp=F
 DIIS: error= 6.42D-07 at cycle   9 NSaved=   9.
 NSaved= 9 IEnMin= 9 EnMin= -152.108728644276     IErMin= 9 ErrMin= 6.42D-07
 ErrMax= 6.42D-07  0.00D+00 EMaxC= 1.00D-01 BMatC= 2.71D-11 BMatP= 4.92D-10
 IDIUse=1 WtCom= 1.00D+00 WtEn= 0.00D+00
 Coeff-Com:  0.147D-05 0.252D-04 0.113D-03-0.238D-02 0.898D-02 0.727D-02
 Coeff-Com: -0.542D-01-0.248D+00 0.129D+01
 Coeff:      0.147D-05 0.252D-04 0.113D-03-0.238D-02 0.898D-02 0.727D-02
 Coeff:     -0.542D-01-0.248D+00 0.129D+01
 Gap=     0.604 Goal=   None    Shift=    0.000
 RMSDP=6.14D-08 MaxDP=1.06D-06 DE=-9.55D-10 OVMax= 3.51D-06

 Cycle  10  Pass 1  IDiag  1:
 E= -152.108728644335     Delta-E=       -0.000000000059 Rises=F Damp=F
 DIIS: error= 8.70D-08 at cycle  10 NSaved=  10.
 NSaved=10 IEnMin=10 EnMin= -152.108728644335     IErMin=10 ErrMin= 8.70D-08
 ErrMax= 8.70D-08  0.00D+00 EMaxC= 1.00D-01 BMatC= 4.88D-13 BMatP= 2.71D-11
 IDIUse=1 WtCom= 1.00D+00 WtEn= 0.00D+00
 Coeff-Com: -0.713D-06 0.834D-06-0.364D-07 0.257D-03-0.123D-02-0.174D-03
 Coeff-Com:  0.902D-02 0.311D-01-0.264D+00 0.123D+01
 Coeff:     -0.713D-06 0.834D-06-0.364D-07 0.257D-03-0.123D-02-0.174D-03
 Coeff:      0.902D-02 0.311D-01-0.264D+00 0.123D+01
 Gap=     0.604 Goal=   None    Shift=    0.000
 RMSDP=7.43D-09 MaxDP=1.51D-07 DE=-5.90D-11 OVMax= 4.01D-07

 SCF Done:  E(RHF) =  -152.108728644     A.U. after   10 cycles
            NFock= 10  Conv=0.74D-08     -V/T= 2.0020
 KE= 1.518029184030D+02 PE=-4.304159610731D+02 EE= 9.194100433571D+01
 Leave Link  502 at Sat Aug 27 00:48:22 2022, MaxMem=   536870912 cpu:               4.4 elap:               1.2
 (Enter /usr/site/hpc/x86_64/glibc-2.17/broadwell/gaussian/g16_a.03/pgi-16.5/g16/l801.exe)
 Windowed orbitals will be sorted by symmetry type.
 ExpMin= 1.03D-01 ExpMax= 1.53D+04 ExpMxC= 5.22D+02 IAcc=3 IRadAn=         5 AccDes= 0.00D+00
 HarFok:  IExCor=  205 AccDes= 0.00D+00 IRadAn=         5 IDoV=-2 UseB2=F ITyADJ=14
 ICtDFT= 12500011 ScaDFX=  1.000000  1.000000  1.000000  1.000000
 Largest valence mixing into a core orbital is  1.12D-04
 Largest core mixing into a valence orbital is  1.77D-05
 Range of M.O.s used for correlation:     3   116
 NBasis=   116 NAE=    10 NBE=    10 NFC=     2 NFV=     0
 NROrb=    114 NOA=     8 NOB=     8 NVA=   106 NVB=   106
 Leave Link  801 at Sat Aug 27 00:48:22 2022, MaxMem=   536870912 cpu:               0.3 elap:               0.1
 (Enter /usr/site/hpc/x86_64/glibc-2.17/broadwell/gaussian/g16_a.03/pgi-16.5/g16/l804.exe)
 Closed-shell transformation, MDV=   536870912 ITran=4 ISComp=2.
 Unit  1 TFree=        834515 TCopy=        406125.
 Semi-Direct transformation.
 ModeAB=           4 MOrb=             8 LenV=     536363867
 LASXX=      2873146 LTotXX=     2873146 LenRXX=     5831278
 LTotAB=     2958132 MaxLAS=     7537680 LenRXY=           0
 NonZer=     8704424 LenScr=    13107200 LnRSAI=     7537680
 LnScr1=    11534336 LExtra=           0 Total=     38010494
 MaxDsk=          -1 SrtSym=           T ITran=            4
 DoSDTr:  NPSUse=  4
 JobTyp=0 Pass  1:  I=   1 to   8.
 (rs|ai) integrals will be sorted in core.
 Complete sort for first half transformation.
 First half transformation complete.
 Complete sort for second half transformation.
 Second half transformation complete.
 Spin components of T(2) and E(2):
     alpha-alpha T2 =       0.1573771553D-01 E2=     -0.6426682942D-01
     alpha-beta  T2 =       0.9221826390D-01 E2=     -0.3992187564D+00
     beta-beta   T2 =       0.1573771553D-01 E2=     -0.6426682942D-01
 ANorm=    0.1060044195D+01
 E2 =    -0.5277524153D+00 EUMP2 =    -0.15263648105961D+03
 Leave Link  804 at Sat Aug 27 00:48:23 2022, MaxMem=   536870912 cpu:               4.5 elap:               1.1
 (Enter /usr/site/hpc/x86_64/glibc-2.17/broadwell/gaussian/g16_a.03/pgi-16.5/g16/l913.exe)
 CIDS:  MDV=   536870912.
 Frozen-core window:  NFC=   2 NFV=   0.
 IFCWin=0 IBDFC=1 NFBD=     0     0 NFCmp=     0     0 NFFFC=     0     0
 Using DD3R+UMP44R for 1st iteration.
 Using DD4RQ for 2nd and later iterations.
 Keep R2 and R3 ints in memory in symmetry-blocked form, NReq=35357534.
 FoFCou: FMM=F IPFlag=           0 FMFlag=           0 FMFlg1=           0
         NFxFlg=           0 DoJE=F BraDBF=F KetDBF=F FulRan=T
         wScrn=  0.000000 ICntrl=       600 IOpCl=  0 I1Cent=           0 NGrid=           0
         NMat0=    1 NMatS0=   6786 NMatT0=    0 NMatD0=    1 NMtDS0=    0 NMtDT0=    0
 Petite list used in FoFCou.
 CIDS: In Core Option IDoMem=           1.
 CCSD(T)
 =======
 Iterations=  50 Convergence= 0.100D-06
 Produce multiple copies of IABC intergrals
 Iteration Nr.   1
 **********************
 DD1Dir will call FoFMem   1 times, MxPair=        72
 NAB=    36 NAA=     0 NBB=     0.
 MP4(R+Q)=  0.76899003D-02
 Maximum subspace dimension=  5
 A-vector RMS=  1.8452721D-03 Max=  6.1266079D-03 conv= 1.00D-05.
 RLE energy=       -0.5272030208
 E3=       -0.72098650D-02        EUMP3=      -0.15264369092D+03
 E4(DQ)=   -0.14252291D-02        UMP4(DQ)=   -0.15264511615D+03
 E4(SDQ)=  -0.45985838D-02        UMP4(SDQ)=  -0.15264828951D+03
 VARIATIONAL ENERGIES WITH THE FIRST-ORDER WAVEFUNCTION:
 DE(Corr)= -0.52720246     E(Corr)=     -152.63593110    
 NORM(A)=   0.10602885D+01
 Iteration Nr.   2
 **********************
 DD1Dir will call FoFMem   1 times, MxPair=        72
 NAB=    36 NAA=     0 NBB=     0.
 A-vector RMS=  2.1316097D-04 Max=  1.7759496D-03 conv= 1.00D-05.
 RLE energy=       -0.5383312030
 DE(Corr)= -0.53722157     E(CORR)=     -152.64595022     Delta=-1.00D-02
 NORM(A)=   0.10640706D+01
 Iteration Nr.   3
 **********************
 DD1Dir will call FoFMem   1 times, MxPair=        72
 NAB=    36 NAA=     0 NBB=     0.
 A-vector RMS=  1.7306236D-04 Max=  1.3337396D-03 conv= 1.00D-05.
 RLE energy=       -0.5388322544
 DE(Corr)= -0.53823302     E(CORR)=     -152.64696167     Delta=-1.01D-03
 NORM(A)=   0.10647152D+01
 Iteration Nr.   4
 **********************
 DD1Dir will call FoFMem   1 times, MxPair=        72
 NAB=    36 NAA=     0 NBB=     0.
 A-vector RMS=  3.6446205D-05 Max=  2.5540524D-04 conv= 1.00D-05.
 RLE energy=       -0.5389096531
 DE(Corr)= -0.53887600     E(CORR)=     -152.64760465     Delta=-6.43D-04
 NORM(A)=   0.10648305D+01
 Iteration Nr.   5
 **********************
 DD1Dir will call FoFMem   1 times, MxPair=        72
 NAB=    36 NAA=     0 NBB=     0.
 A-vector RMS=  2.2741039D-05 Max=  2.5223187D-04 conv= 1.00D-05.
 RLE energy=       -0.5389248353
 DE(Corr)= -0.53891652     E(CORR)=     -152.64764517     Delta=-4.05D-05
 NORM(A)=   0.10648467D+01
 Iteration Nr.   6
 **********************
 DD1Dir will call FoFMem   1 times, MxPair=        72
 NAB=    36 NAA=     0 NBB=     0.
 A-vector RMS=  6.6690134D-06 Max=  4.5461670D-05 conv= 1.00D-05.
 RLE energy=       -0.5389176225
 DE(Corr)= -0.53892086     E(CORR)=     -152.64764950     Delta=-4.33D-06
 NORM(A)=   0.10648466D+01
 Iteration Nr.   7
 **********************
 DD1Dir will call FoFMem   1 times, MxPair=        72
 NAB=    36 NAA=     0 NBB=     0.
 A-vector RMS=  3.0242314D-06 Max=  3.1991334D-05 conv= 1.00D-05.
 RLE energy=       -0.5389193895
 DE(Corr)= -0.53892108     E(CORR)=     -152.64764972     Delta=-2.20D-07
 NORM(A)=   0.10648479D+01
 Iteration Nr.   8
 **********************
 DD1Dir will call FoFMem   1 times, MxPair=        72
 NAB=    36 NAA=     0 NBB=     0.
 A-vector RMS=  1.2384783D-06 Max=  8.7258663D-06 conv= 1.00D-05.
 RLE energy=       -0.5389203302
 DE(Corr)= -0.53892063     E(CORR)=     -152.64764927     Delta= 4.48D-07
 NORM(A)=   0.10648485D+01
 Iteration Nr.   9
 **********************
 DD1Dir will call FoFMem   1 times, MxPair=        72
 NAB=    36 NAA=     0 NBB=     0.
 A-vector RMS=  2.8425356D-07 Max=  2.3568940D-06 conv= 1.00D-05.
 RLE energy=       -0.5389205941
 DE(Corr)= -0.53892066     E(CORR)=     -152.64764930     Delta=-3.30D-08
 NORM(A)=   0.10648489D+01
 CI/CC converged in    9 iterations to DelEn=-3.30D-08 Conv= 1.00D-07 ErrA1= 2.84D-07 Conv= 1.00D-05
 Wavefunction amplitudes converged. E(Corr)=     -152.64764930    
 Largest amplitude= 3.74D-02
 IPart=  2 IA=    7   11.05% done.
 IPart=  1 IA=   13   21.46% done.
 IPart=  1 IA=   19   31.21% done.
 IPart=  2 IA=   25   40.32% done.
 IPart=  2 IA=   32   50.13% done.
 IPart=  4 IA=   40   60.27% done.
 IPart=  4 IA=   49   70.30% done.
 IPart=  3 IA=   60   80.58% done.
 IPart=  4 IA=   74   90.51% done.
 Time for triples=       52.41 seconds.
 T4(CCSD)= -0.16355989D-01
 T5(CCSD)=  0.42826830D-03
 CCSD(T)= -0.15266357703D+03
 Discarding MO integrals.
 Leave Link  913 at Sat Aug 27 00:48:42 2022, MaxMem=   536870912 cpu:              75.4 elap:              18.9
 (Enter /usr/site/hpc/x86_64/glibc-2.17/broadwell/gaussian/g16_a.03/pgi-16.5/g16/l601.exe)
 Copying SCF densities to generalized density rwf, IOpCl= 0 IROHF=0.

 **********************************************************************

            Population analysis using the SCF density.

 **********************************************************************

 Orbital symmetries:
       Occupied  (A') (A') (A') (A') (A') (A') (A') (A') (A") (A")
       Virtual   (A') (A') (A') (A') (A') (A') (A') (A') (A') (A")
                 (A') (A') (A") (A") (A') (A') (A") (A') (A") (A")
                 (A') (A') (A') (A') (A') (A') (A') (A') (A") (A")
                 (A") (A') (A") (A') (A') (A') (A') (A') (A') (A')
                 (A') (A') (A") (A") (A') (A") (A') (A") (A') (A')
                 (A") (A') (A") (A') (A') (A") (A") (A') (A") (A")
                 (A') (A') (A') (A") (A') (A") (A') (A') (A') (A')
                 (A") (A") (A') (A') (A') (A') (A') (A') (A') (A')
                 (A") (A") (A') (A') (A") (A") (A") (A") (A') (A")
                 (A") (A') (A') (A') (A') (A") (A') (A") (A') (A')
                 (A') (A') (A') (A') (A') (A')
 The electronic state is 1-A'.
 Alpha  occ. eigenvalues --  -20.57890 -20.54444  -1.35266  -1.31800  -0.73071
 Alpha  occ. eigenvalues --   -0.68983  -0.58737  -0.55159  -0.52309  -0.48893
 Alpha virt. eigenvalues --    0.11467   0.16284   0.20544   0.27888   0.49733
 Alpha virt. eigenvalues --    0.54177   0.57615   0.58364   0.67782   0.73569
 Alpha virt. eigenvalues --    0.74144   0.78076   0.80511   0.81677   0.83288
 Alpha virt. eigenvalues --    0.87693   0.88375   0.92818   0.95082   1.01326
 Alpha virt. eigenvalues --    1.11144   1.12009   1.23654   1.29661   1.47814
 Alpha virt. eigenvalues --    1.50888   1.53244   1.82490   1.97529   2.01678
 Alpha virt. eigenvalues --    2.04606   2.06917   2.09539   2.09875   2.17447
 Alpha virt. eigenvalues --    2.23572   2.26324   2.37273   2.60297   2.71236
 Alpha virt. eigenvalues --    2.90785   2.98271   3.36893   3.40168   3.47412
 Alpha virt. eigenvalues --    3.51153   3.51266   3.54314   3.55465   3.61950
 Alpha virt. eigenvalues --    3.76095   3.80131   3.80224   3.84671   3.88994
 Alpha virt. eigenvalues --    3.90906   3.96176   3.97247   4.01258   4.04625
 Alpha virt. eigenvalues --    4.10540   4.12761   4.14859   4.27893   4.30147
 Alpha virt. eigenvalues --    4.31242   4.40479   4.41636   4.48829   4.55553
 Alpha virt. eigenvalues --    4.64986   4.67608   4.82759   4.83726   5.03850
 Alpha virt. eigenvalues --    5.07126   5.22423   5.29101   5.54295   5.58121
 Alpha virt. eigenvalues --    5.95525   5.98949   6.38409   6.43411   6.83746
 Alpha virt. eigenvalues --    6.86863   6.87514   6.90975   6.92923   6.96786
 Alpha virt. eigenvalues --    7.00444   7.05071   7.06872   7.12175   7.13623
 Alpha virt. eigenvalues --    7.15948   7.17559   7.19508   7.50688   7.52192
 Alpha virt. eigenvalues --    7.71500   7.72990   8.13553   8.19913  12.57188
 Alpha virt. eigenvalues --   13.00947
          Condensed to atoms (all electrons):
               1          2          3          4          5          6
     1  O    7.817641   0.360694   0.343146  -0.003828   0.000082   0.002629
     2  H    0.360694   0.395751  -0.041042   0.016725  -0.001174  -0.003475
     3  H    0.343146  -0.041042   0.457776  -0.000348   0.000004   0.001342
     4  O   -0.003828   0.016725  -0.000348   7.831501   0.323540   0.312579
     5  H    0.000082  -0.001174   0.000004   0.323540   0.448335  -0.020122
     6  H    0.002629  -0.003475   0.001342   0.312579  -0.020122   0.467498
 Mulliken charges:
               1
     1  O   -0.520362
     2  H    0.272522
     3  H    0.239122
     4  O   -0.480168
     5  H    0.249336
     6  H    0.239550
 Sum of Mulliken charges =  -0.00000
 Mulliken charges with hydrogens summed into heavy atoms:
               1
     1  O   -0.008718
     4  O    0.008718
 Electronic spatial extent (au):  <R**2>=            223.5596
 Charge=             -0.0000 electrons
 Dipole moment (field-independent basis, Debye):
    X=             -3.1020    Y=              2.5946    Z=              0.0000  Tot=              4.0441
 Quadrupole moment (field-independent basis, Debye-Ang):
   XX=            -10.8977   YY=             -9.1487   ZZ=            -14.7088
   XY=              2.1157   XZ=              0.0000   YZ=              0.0000
 Traceless Quadrupole moment (field-independent basis, Debye-Ang):
   XX=              0.6874   YY=              2.4364   ZZ=             -3.1237
   XY=              2.1157   XZ=              0.0000   YZ=              0.0000
 Octapole moment (field-independent basis, Debye-Ang**2):
  XXX=             -3.4520  YYY=             23.9695  ZZZ=              0.0000  XYY=             -8.5720
  XXY=             -0.6725  XXZ=              0.0000  XZZ=             -0.3935  YZZ=              0.4222
  YYZ=              0.0000  XYZ=              0.0000
 Hexadecapole moment (field-independent basis, Debye-Ang**3):
 XXXX=            -11.8329 YYYY=           -154.0478 ZZZZ=            -11.3408 XXXY=              0.6714
 XXXZ=              0.0000 YYYX=             16.8365 YYYZ=              0.0000 ZZZX=              0.0000
 ZZZY=              0.0000 XXYY=            -32.5007 XXZZ=             -4.3410 YYZZ=            -42.4649
 XXYZ=              0.0000 YYXZ=              0.0000 ZZXY=             -0.1887
 N-N= 3.456330969005D+01 E-N=-4.304159603201D+02  KE= 1.518029184030D+02
 Symmetry A'   KE= 1.427631151727D+02
 Symmetry A"   KE= 9.039803230270D+00
 Leave Link  601 at Sat Aug 27 00:48:42 2022, MaxMem=   536870912 cpu:               0.2 elap:               0.1
 (Enter /usr/site/hpc/x86_64/glibc-2.17/broadwell/gaussian/g16_a.03/pgi-16.5/g16/l9999.exe)
 1\1\GINC-N041\SP\RCCSD(T)-FC\CC-pVTZ\H4O2\C7441284\27-Aug-2022\0\\#p C
 CSD(T)/cc-pVTZ\\H2O_H2O_1475\\0,1\O,0,0.,-0.009833,0.\H,0,-0.799571,-0
 .580965,0.\H,0,0.799571,-0.580965,0.\O,0,-2.61829,-1.880072,0.\H,0,-3.
 417861,-2.451204,0.\H,0,-1.818718,-2.451204,0.\\Version=ES64L-G16RevA.
 03\State=1-A'\HF=-152.1087286\MP2=-152.6364811\MP3=-152.6436909\MP4D=-
 152.6528061\MP4DQ=-152.6451162\MP4SDQ=-152.6482895\CCSD=-152.6476493\C
 CSD(T)=-152.663577\RMSD=7.435e-09\PG=CS [SG(H4O2)]\\@


 A SCIENTIST IS SOMEONE WHOSE CURIOSITY SURVIVES
 EDUCATION'S ASSAULTS ON IT.
                          - SIR HERMANN BONDI
 Job cpu time:       0 days  0 hours  1 minutes 27.6 seconds.
 Elapsed time:       0 days  0 hours  0 minutes 22.0 seconds.
 File lengths (MBytes):  RWF=    360 Int=      0 D2E=      0 Chk=      8 Scr=      8
 Normal termination of Gaussian 16 at Sat Aug 27 00:48:42 2022.
