 Entering Gaussian System, Link 0=g16
 Input=H2O_H2O_823.com
 Output=H2O_H2O_823.log
 Initial command:
 /usr/site/hpc/x86_64/glibc-2.17/broadwell/gaussian/g16_a.03/pgi-16.5/g16/l1.exe "/gpfs/gpfs1/scratch/c7441284/ForceFieldModel/FittingData2/Gau-61894.inp" -scrdir="/gpfs/gpfs1/scratch/c7441284/ForceFieldModel/FittingData2/"
 Entering Link 1 = /usr/site/hpc/x86_64/glibc-2.17/broadwell/gaussian/g16_a.03/pgi-16.5/g16/l1.exe PID=     61895.
  
 Copyright (c) 1988,1990,1992,1993,1995,1998,2003,2009,2016,
            Gaussian, Inc.  All Rights Reserved.
  
 This is part of the Gaussian(R) 16 program.  It is based on
 the Gaussian(R) 09 system (copyright 2009, Gaussian, Inc.),
 the Gaussian(R) 03 system (copyright 2003, Gaussian, Inc.),
 the Gaussian(R) 98 system (copyright 1998, Gaussian, Inc.),
 the Gaussian(R) 94 system (copyright 1995, Gaussian, Inc.),
 the Gaussian 92(TM) system (copyright 1992, Gaussian, Inc.),
 the Gaussian 90(TM) system (copyright 1990, Gaussian, Inc.),
 the Gaussian 88(TM) system (copyright 1988, Gaussian, Inc.),
 the Gaussian 86(TM) system (copyright 1986, Carnegie Mellon
 University), and the Gaussian 82(TM) system (copyright 1983,
 Carnegie Mellon University). Gaussian is a federally registered
 trademark of Gaussian, Inc.
  
 This software contains proprietary and confidential information,
 including trade secrets, belonging to Gaussian, Inc.
  
 This software is provided under written license and may be
 used, copied, transmitted, or stored only in accord with that
 written license.
  
 The following legend is applicable only to US Government
 contracts under FAR:
  
                    RESTRICTED RIGHTS LEGEND
  
 Use, reproduction and disclosure by the US Government is
 subject to restrictions as set forth in subparagraphs (a)
 and (c) of the Commercial Computer Software - Restricted
 Rights clause in FAR 52.227-19.
  
 Gaussian, Inc.
 340 Quinnipiac St., Bldg. 40, Wallingford CT 06492
  
  
 ---------------------------------------------------------------
 Warning -- This program may not be used in any manner that
 competes with the business of Gaussian, Inc. or will provide
 assistance to any competitor of Gaussian, Inc.  The licensee
 of this program is prohibited from giving any competitor of
 Gaussian, Inc. access to this program.  By using this program,
 the user acknowledges that Gaussian, Inc. is engaged in the
 business of creating and licensing software in the field of
 computational chemistry and represents and warrants to the
 licensee that it is not a competitor of Gaussian, Inc. and that
 it will not use this program in any manner prohibited above.
 ---------------------------------------------------------------
  

 Cite this work as:
 Gaussian 16, Revision A.03,
 M. J. Frisch, G. W. Trucks, H. B. Schlegel, G. E. Scuseria, 
 M. A. Robb, J. R. Cheeseman, G. Scalmani, V. Barone, 
 G. A. Petersson, H. Nakatsuji, X. Li, M. Caricato, A. V. Marenich, 
 J. Bloino, B. G. Janesko, R. Gomperts, B. Mennucci, H. P. Hratchian, 
 J. V. Ortiz, A. F. Izmaylov, J. L. Sonnenberg, D. Williams-Young, 
 F. Ding, F. Lipparini, F. Egidi, J. Goings, B. Peng, A. Petrone, 
 T. Henderson, D. Ranasinghe, V. G. Zakrzewski, J. Gao, N. Rega, 
 G. Zheng, W. Liang, M. Hada, M. Ehara, K. Toyota, R. Fukuda, 
 J. Hasegawa, M. Ishida, T. Nakajima, Y. Honda, O. Kitao, H. Nakai, 
 T. Vreven, K. Throssell, J. A. Montgomery, Jr., J. E. Peralta, 
 F. Ogliaro, M. J. Bearpark, J. J. Heyd, E. N. Brothers, K. N. Kudin, 
 V. N. Staroverov, T. A. Keith, R. Kobayashi, J. Normand, 
 K. Raghavachari, A. P. Rendell, J. C. Burant, S. S. Iyengar, 
 J. Tomasi, M. Cossi, J. M. Millam, M. Klene, C. Adamo, R. Cammi, 
 J. W. Ochterski, R. L. Martin, K. Morokuma, O. Farkas, 
 J. B. Foresman, and D. J. Fox, Gaussian, Inc., Wallingford CT, 2016.
 
 ******************************************
 Gaussian 16:  ES64L-G16RevA.03 25-Dec-2016
                26-Aug-2022 
 ******************************************
 %NProcShared=4
 Will use up to    4 processors via shared memory.
 %Mem=4GB
 %Chk=H2O_H2O_823.chk
 ------------------
 #p CCSD(T)/cc-pVTZ
 ------------------
 1/38=1,172=1/1;
 2/12=2,17=6,18=5,40=1/2;
 3/5=16,6=1,11=9,25=1,30=1/1,2,3;
 4//1;
 5/5=2,38=5/2;
 8/6=4,9=120000,10=1/1,4;
 9/5=7,14=2/13;
 6/7=2,8=2,9=2,10=2/1;
 99/5=1,9=1/99;
 Leave Link    1 at Fri Aug 26 20:43:43 2022, MaxMem=   536870912 cpu:               0.3 elap:               0.1
 (Enter /usr/site/hpc/x86_64/glibc-2.17/broadwell/gaussian/g16_a.03/pgi-16.5/g16/l101.exe)
 -----------
 H2O_H2O_823
 -----------
 Symbolic Z-matrix:
 Charge =  0 Multiplicity = 1
 O                     0.       -0.00983   0. 
 H                    -0.79957  -0.58097   0. 
 H                     0.79957  -0.58097   0. 
 O                    -2.18992  -1.55789   0. 
 H                    -2.81213  -0.79739   0. 
 H                    -2.70754  -2.3931    0. 
 
 ITRead=  0  0  0  0  0  0
 MicOpt= -1 -1 -1 -1 -1 -1
 NAtoms=      6 NQM=        6 NQMF=       0 NMMI=      0 NMMIF=      0
                NMic=       0 NMicF=      0.
                    Isotopes and Nuclear Properties:
 (Nuclear quadrupole moments (NQMom) in fm**2, nuclear magnetic moments (NMagM)
  in nuclear magnetons)

  Atom         1           2           3           4           5           6
 IAtWgt=          16           1           1          16           1           1
 AtmWgt=  15.9949146   1.0078250   1.0078250  15.9949146   1.0078250   1.0078250
 NucSpn=           0           1           1           0           1           1
 AtZEff=  -0.0000000  -0.0000000  -0.0000000  -0.0000000  -0.0000000  -0.0000000
 NQMom=    0.0000000   0.0000000   0.0000000   0.0000000   0.0000000   0.0000000
 NMagM=    0.0000000   2.7928460   2.7928460   0.0000000   2.7928460   2.7928460
 AtZNuc=   8.0000000   1.0000000   1.0000000   8.0000000   1.0000000   1.0000000
 Leave Link  101 at Fri Aug 26 20:43:43 2022, MaxMem=   536870912 cpu:               0.6 elap:               0.2
 (Enter /usr/site/hpc/x86_64/glibc-2.17/broadwell/gaussian/g16_a.03/pgi-16.5/g16/l202.exe)
                          Input orientation:                          
 ---------------------------------------------------------------------
 Center     Atomic      Atomic             Coordinates (Angstroms)
 Number     Number       Type             X           Y           Z
 ---------------------------------------------------------------------
      1          8           0        0.000000   -0.009833    0.000000
      2          1           0       -0.799571   -0.580965    0.000000
      3          1           0        0.799571   -0.580965    0.000000
      4          8           0       -2.189922   -1.557890    0.000000
      5          1           0       -2.812125   -0.797385    0.000000
      6          1           0       -2.707536   -2.393104    0.000000
 ---------------------------------------------------------------------
                    Distance matrix (angstroms):
                    1          2          3          4          5
     1  O    0.000000
     2  H    0.982601   0.000000
     3  H    0.982601   1.599142   0.000000
     4  O    2.681835   1.699252   3.145068   0.000000
     5  H    2.920323   2.024157   3.618174   0.982601   0.000000
     6  H    3.607039   2.631383   3.947613   0.982602   1.599143
                    6
     6  H    0.000000
 Stoichiometry    H4O2
 Framework group  CS[SG(H4O2)]
 Deg. of freedom     9
 Full point group                 CS      NOp   2
 Largest Abelian subgroup         CS      NOp   2
 Largest concise Abelian subgroup C1      NOp   1
                         Standard orientation:                         
 ---------------------------------------------------------------------
 Center     Atomic      Atomic             Coordinates (Angstroms)
 Number     Number       Type             X           Y           Z
 ---------------------------------------------------------------------
      1          8           0        0.016790   -1.422579    0.000000
      2          1           0        0.011960   -0.439989    0.000000
      3          1           0       -0.911125   -1.745810    0.000000
      4          8           0        0.016790    1.259256    0.000000
      5          1           0        0.996960    1.328340    0.000000
      6          1           0       -0.366439    2.164044    0.000000
 ---------------------------------------------------------------------
 Rotational constants (GHZ):         264.0920143           7.4850543           7.2787554
 Leave Link  202 at Fri Aug 26 20:43:43 2022, MaxMem=   536870912 cpu:               0.0 elap:               0.0
 (Enter /usr/site/hpc/x86_64/glibc-2.17/broadwell/gaussian/g16_a.03/pgi-16.5/g16/l301.exe)
 Standard basis: CC-pVTZ (5D, 7F)
 Ernie: Thresh=  0.10000D-02 Tol=  0.10000D-05 Strict=F.
 Ernie:  6 primitive shells out of 84 were deleted.
 There are    92 symmetry adapted cartesian basis functions of A'  symmetry.
 There are    38 symmetry adapted cartesian basis functions of A"  symmetry.
 There are    80 symmetry adapted basis functions of A'  symmetry.
 There are    36 symmetry adapted basis functions of A"  symmetry.
   116 basis functions,   172 primitive gaussians,   130 cartesian basis functions
    10 alpha electrons       10 beta electrons
       nuclear repulsion energy        37.7272812046 Hartrees.
 IExCor=    0 DFT=F Ex=HF Corr=None ExCW=0 ScaHFX=  1.000000
 ScaDFX=  1.000000  1.000000  1.000000  1.000000 ScalE2=  1.000000  1.000000
 IRadAn=      5 IRanWt=     -1 IRanGd=            0 ICorTp=0 IEmpDi=  4
 NAtoms=    6 NActive=    6 NUniq=    6 SFac= 1.00D+00 NAtFMM=   60 NAOKFM=F Big=F
 Integral buffers will be    131072 words long.
 Raffenetti 1 integral format.
 Two-electron integral symmetry is turned on.
 Leave Link  301 at Fri Aug 26 20:43:43 2022, MaxMem=   536870912 cpu:               0.2 elap:               0.0
 (Enter /usr/site/hpc/x86_64/glibc-2.17/broadwell/gaussian/g16_a.03/pgi-16.5/g16/l302.exe)
 NPDir=0 NMtPBC=     1 NCelOv=     1 NCel=       1 NClECP=     1 NCelD=      1
         NCelK=      1 NCelE2=     1 NClLst=     1 CellRange=     0.0.
 One-electron integrals computed using PRISM.
 One-electron integral symmetry used in STVInt
 NBasis=   116 RedAO= T EigKep=  2.04D-03  NBF=    80    36
 NBsUse=   116 1.00D-06 EigRej= -1.00D+00 NBFU=    80    36
 Leave Link  302 at Fri Aug 26 20:43:43 2022, MaxMem=   536870912 cpu:               0.5 elap:               0.1
 (Enter /usr/site/hpc/x86_64/glibc-2.17/broadwell/gaussian/g16_a.03/pgi-16.5/g16/l303.exe)
 DipDrv:  MaxL=1.
 Leave Link  303 at Fri Aug 26 20:43:44 2022, MaxMem=   536870912 cpu:               0.1 elap:               0.0
 (Enter /usr/site/hpc/x86_64/glibc-2.17/broadwell/gaussian/g16_a.03/pgi-16.5/g16/l401.exe)
 ExpMin= 1.03D-01 ExpMax= 1.53D+04 ExpMxC= 5.22D+02 IAcc=3 IRadAn=         5 AccDes= 0.00D+00
 Harris functional with IExCor=  205 and IRadAn=       5 diagonalized for initial guess.
 HarFok:  IExCor=  205 AccDes= 0.00D+00 IRadAn=         5 IDoV= 1 UseB2=F ITyADJ=14
 ICtDFT=  3500011 ScaDFX=  1.000000  1.000000  1.000000  1.000000
 FoFCou: FMM=F IPFlag=           0 FMFlag=      100000 FMFlg1=           0
         NFxFlg=           0 DoJE=T BraDBF=F KetDBF=T FulRan=T
         wScrn=  0.000000 ICntrl=       500 IOpCl=  0 I1Cent=   200000004 NGrid=           0
         NMat0=    1 NMatS0=      1 NMatT0=    0 NMatD0=    1 NMtDS0=    0 NMtDT0=    0
 Petite list used in FoFCou.
 Harris En= -152.305558404534    
 JPrj=0 DoOrth=F DoCkMO=F.
 Initial guess orbital symmetries:
       Occupied  (A') (A') (A') (A') (A') (A') (A') (A') (A") (A")
       Virtual   (A') (A') (A') (A') (A') (A') (A') (A') (A') (A")
                 (A') (A") (A') (A') (A") (A") (A') (A") (A') (A')
                 (A") (A') (A') (A') (A') (A') (A') (A') (A") (A")
                 (A") (A') (A') (A") (A') (A') (A') (A') (A') (A')
                 (A') (A') (A") (A") (A") (A') (A') (A") (A') (A")
                 (A") (A') (A') (A') (A') (A") (A") (A') (A') (A')
                 (A") (A") (A') (A") (A') (A') (A") (A') (A") (A')
                 (A") (A') (A') (A') (A') (A') (A') (A') (A') (A')
                 (A") (A") (A') (A') (A") (A") (A") (A") (A') (A")
                 (A') (A") (A') (A') (A') (A") (A") (A') (A') (A')
                 (A') (A') (A') (A') (A') (A')
 The electronic state of the initial guess is 1-A'.
 Leave Link  401 at Fri Aug 26 20:43:44 2022, MaxMem=   536870912 cpu:               0.8 elap:               0.2
 (Enter /usr/site/hpc/x86_64/glibc-2.17/broadwell/gaussian/g16_a.03/pgi-16.5/g16/l502.exe)
 Keep R1 ints in memory in symmetry-blocked form, NReq=34823457.
 FoFCou: FMM=F IPFlag=           0 FMFlag=           0 FMFlg1=           0
         NFxFlg=           0 DoJE=F BraDBF=F KetDBF=F FulRan=T
         wScrn=  0.000000 ICntrl=       600 IOpCl=  0 I1Cent=           0 NGrid=           0
         NMat0=    1 NMatS0=   6786 NMatT0=    0 NMatD0=    1 NMtDS0=    0 NMtDT0=    0
 Petite list used in FoFCou.
 Closed shell SCF:
 Using DIIS extrapolation, IDIIS=  1040.
 NGot=   536870912 LenX=   525040673 LenY=   525023332
 Requested convergence on RMS density matrix=1.00D-08 within 128 cycles.
 Requested convergence on MAX density matrix=1.00D-06.
 Requested convergence on             energy=1.00D-06.
 No special actions if energy rises.

 Cycle   1  Pass 1  IDiag  1:
 E= -151.942496302832    
 DIIS: error= 5.36D-02 at cycle   1 NSaved=   1.
 NSaved= 1 IEnMin= 1 EnMin= -151.942496302832     IErMin= 1 ErrMin= 5.36D-02
 ErrMax= 5.36D-02  0.00D+00 EMaxC= 1.00D-01 BMatC= 3.84D-01 BMatP= 3.84D-01
 IDIUse=3 WtCom= 4.64D-01 WtEn= 5.36D-01
 Coeff-Com:  0.100D+01
 Coeff-En:   0.100D+01
 Coeff:      0.100D+01
 Gap=     0.483 Goal=   None    Shift=    0.000
 GapD=    0.483 DampG=2.000 DampE=0.500 DampFc=1.0000 IDamp=-1.
 RMSDP=2.70D-03 MaxDP=7.60D-02              OVMax= 1.17D-01

 Cycle   2  Pass 1  IDiag  1:
 E= -152.051173805521     Delta-E=       -0.108677502689 Rises=F Damp=F
 DIIS: error= 3.18D-02 at cycle   2 NSaved=   2.
 NSaved= 2 IEnMin= 2 EnMin= -152.051173805521     IErMin= 2 ErrMin= 3.18D-02
 ErrMax= 3.18D-02  0.00D+00 EMaxC= 1.00D-01 BMatC= 9.70D-02 BMatP= 3.84D-01
 IDIUse=3 WtCom= 6.82D-01 WtEn= 3.18D-01
 Coeff-Com:  0.303D+00 0.697D+00
 Coeff-En:   0.123D+00 0.877D+00
 Coeff:      0.246D+00 0.754D+00
 Gap=     0.604 Goal=   None    Shift=    0.000
 RMSDP=1.41D-03 MaxDP=4.22D-02 DE=-1.09D-01 OVMax= 5.67D-02

 Cycle   3  Pass 1  IDiag  1:
 E= -152.106257713716     Delta-E=       -0.055083908195 Rises=F Damp=F
 DIIS: error= 7.11D-03 at cycle   3 NSaved=   3.
 NSaved= 3 IEnMin= 3 EnMin= -152.106257713716     IErMin= 3 ErrMin= 7.11D-03
 ErrMax= 7.11D-03  0.00D+00 EMaxC= 1.00D-01 BMatC= 5.28D-03 BMatP= 9.70D-02
 IDIUse=3 WtCom= 9.29D-01 WtEn= 7.11D-02
 Coeff-Com: -0.300D-01 0.157D+00 0.873D+00
 Coeff-En:   0.000D+00 0.000D+00 0.100D+01
 Coeff:     -0.279D-01 0.146D+00 0.882D+00
 Gap=     0.577 Goal=   None    Shift=    0.000
 RMSDP=2.44D-04 MaxDP=6.49D-03 DE=-5.51D-02 OVMax= 1.20D-02

 Cycle   4  Pass 1  IDiag  1:
 E= -152.109521723332     Delta-E=       -0.003264009616 Rises=F Damp=F
 DIIS: error= 6.34D-04 at cycle   4 NSaved=   4.
 NSaved= 4 IEnMin= 4 EnMin= -152.109521723332     IErMin= 4 ErrMin= 6.34D-04
 ErrMax= 6.34D-04  0.00D+00 EMaxC= 1.00D-01 BMatC= 2.81D-05 BMatP= 5.28D-03
 IDIUse=3 WtCom= 9.94D-01 WtEn= 6.34D-03
 Coeff-Com:  0.754D-02-0.636D-01-0.271D+00 0.133D+01
 Coeff-En:   0.000D+00 0.000D+00 0.000D+00 0.100D+01
 Coeff:      0.749D-02-0.632D-01-0.269D+00 0.132D+01
 Gap=     0.579 Goal=   None    Shift=    0.000
 RMSDP=6.01D-05 MaxDP=9.06D-04 DE=-3.26D-03 OVMax= 2.57D-03

 Cycle   5  Pass 1  IDiag  1:
 E= -152.109569970753     Delta-E=       -0.000048247421 Rises=F Damp=F
 DIIS: error= 1.57D-04 at cycle   5 NSaved=   5.
 NSaved= 5 IEnMin= 5 EnMin= -152.109569970753     IErMin= 5 ErrMin= 1.57D-04
 ErrMax= 1.57D-04  0.00D+00 EMaxC= 1.00D-01 BMatC= 1.19D-06 BMatP= 2.81D-05
 IDIUse=3 WtCom= 9.98D-01 WtEn= 1.57D-03
 Coeff-Com:  0.277D-03 0.146D-02 0.648D-02-0.224D+00 0.122D+01
 Coeff-En:   0.000D+00 0.000D+00 0.000D+00 0.000D+00 0.100D+01
 Coeff:      0.277D-03 0.146D-02 0.647D-02-0.223D+00 0.122D+01
 Gap=     0.580 Goal=   None    Shift=    0.000
 RMSDP=1.44D-05 MaxDP=2.92D-04 DE=-4.82D-05 OVMax= 7.09D-04

 Cycle   6  Pass 1  IDiag  1:
 E= -152.109572431590     Delta-E=       -0.000002460837 Rises=F Damp=F
 DIIS: error= 2.60D-05 at cycle   6 NSaved=   6.
 NSaved= 6 IEnMin= 6 EnMin= -152.109572431590     IErMin= 6 ErrMin= 2.60D-05
 ErrMax= 2.60D-05  0.00D+00 EMaxC= 1.00D-01 BMatC= 3.26D-08 BMatP= 1.19D-06
 IDIUse=1 WtCom= 1.00D+00 WtEn= 0.00D+00
 Coeff-Com: -0.231D-03 0.171D-02 0.718D-02-0.238D-01-0.126D+00 0.114D+01
 Coeff:     -0.231D-03 0.171D-02 0.718D-02-0.238D-01-0.126D+00 0.114D+01
 Gap=     0.580 Goal=   None    Shift=    0.000
 RMSDP=2.86D-06 MaxDP=5.77D-05 DE=-2.46D-06 OVMax= 1.58D-04

 Cycle   7  Pass 1  IDiag  1:
 E= -152.109572513011     Delta-E=       -0.000000081421 Rises=F Damp=F
 DIIS: error= 6.63D-06 at cycle   7 NSaved=   7.
 NSaved= 7 IEnMin= 7 EnMin= -152.109572513011     IErMin= 7 ErrMin= 6.63D-06
 ErrMax= 6.63D-06  0.00D+00 EMaxC= 1.00D-01 BMatC= 3.97D-09 BMatP= 3.26D-08
 IDIUse=1 WtCom= 1.00D+00 WtEn= 0.00D+00
 Coeff-Com: -0.517D-04 0.123D-03 0.392D-03 0.128D-01-0.103D+00 0.190D+00
 Coeff-Com:  0.900D+00
 Coeff:     -0.517D-04 0.123D-03 0.392D-03 0.128D-01-0.103D+00 0.190D+00
 Coeff:      0.900D+00
 Gap=     0.580 Goal=   None    Shift=    0.000
 RMSDP=6.21D-07 MaxDP=1.69D-05 DE=-8.14D-08 OVMax= 2.85D-05

 Cycle   8  Pass 1  IDiag  1:
 E= -152.109572518466     Delta-E=       -0.000000005455 Rises=F Damp=F
 DIIS: error= 2.37D-06 at cycle   8 NSaved=   8.
 NSaved= 8 IEnMin= 8 EnMin= -152.109572518466     IErMin= 8 ErrMin= 2.37D-06
 ErrMax= 2.37D-06  0.00D+00 EMaxC= 1.00D-01 BMatC= 5.02D-10 BMatP= 3.97D-09
 IDIUse=1 WtCom= 1.00D+00 WtEn= 0.00D+00
 Coeff-Com:  0.235D-04-0.226D-03-0.981D-03 0.600D-02-0.141D-02-0.115D+00
 Coeff-Com:  0.136D+00 0.975D+00
 Coeff:      0.235D-04-0.226D-03-0.981D-03 0.600D-02-0.141D-02-0.115D+00
 Coeff:      0.136D+00 0.975D+00
 Gap=     0.580 Goal=   None    Shift=    0.000
 RMSDP=1.87D-07 MaxDP=4.64D-06 DE=-5.45D-09 OVMax= 1.36D-05

 Cycle   9  Pass 1  IDiag  1:
 E= -152.109572519214     Delta-E=       -0.000000000749 Rises=F Damp=F
 DIIS: error= 6.56D-07 at cycle   9 NSaved=   9.
 NSaved= 9 IEnMin= 9 EnMin= -152.109572519214     IErMin= 9 ErrMin= 6.56D-07
 ErrMax= 6.56D-07  0.00D+00 EMaxC= 1.00D-01 BMatC= 2.87D-11 BMatP= 5.02D-10
 IDIUse=1 WtCom= 1.00D+00 WtEn= 0.00D+00
 Coeff-Com:  0.254D-05 0.117D-04 0.856D-04-0.206D-02 0.103D-01-0.171D-02
 Coeff-Com: -0.107D+00-0.102D+00 0.120D+01
 Coeff:      0.254D-05 0.117D-04 0.856D-04-0.206D-02 0.103D-01-0.171D-02
 Coeff:     -0.107D+00-0.102D+00 0.120D+01
 Gap=     0.580 Goal=   None    Shift=    0.000
 RMSDP=5.83D-08 MaxDP=1.07D-06 DE=-7.49D-10 OVMax= 3.46D-06

 Cycle  10  Pass 1  IDiag  1:
 E= -152.109572519271     Delta-E=       -0.000000000056 Rises=F Damp=F
 DIIS: error= 1.10D-07 at cycle  10 NSaved=  10.
 NSaved=10 IEnMin=10 EnMin= -152.109572519271     IErMin=10 ErrMin= 1.10D-07
 ErrMax= 1.10D-07  0.00D+00 EMaxC= 1.00D-01 BMatC= 6.42D-13 BMatP= 2.87D-11
 IDIUse=1 WtCom= 1.00D+00 WtEn= 0.00D+00
 Coeff-Com: -0.932D-06 0.685D-05 0.275D-04-0.791D-04-0.465D-03 0.250D-02
 Coeff-Com:  0.490D-02-0.144D-01-0.121D+00 0.113D+01
 Coeff:     -0.932D-06 0.685D-05 0.275D-04-0.791D-04-0.465D-03 0.250D-02
 Coeff:      0.490D-02-0.144D-01-0.121D+00 0.113D+01
 Gap=     0.580 Goal=   None    Shift=    0.000
 RMSDP=7.89D-09 MaxDP=1.22D-07 DE=-5.65D-11 OVMax= 5.27D-07

 SCF Done:  E(RHF) =  -152.109572519     A.U. after   10 cycles
            NFock= 10  Conv=0.79D-08     -V/T= 2.0017
 KE= 1.518519915396D+02 PE=-4.369037544389D+02 EE= 9.521490917545D+01
 Leave Link  502 at Fri Aug 26 20:43:45 2022, MaxMem=   536870912 cpu:               4.4 elap:               1.2
 (Enter /usr/site/hpc/x86_64/glibc-2.17/broadwell/gaussian/g16_a.03/pgi-16.5/g16/l801.exe)
 Windowed orbitals will be sorted by symmetry type.
 ExpMin= 1.03D-01 ExpMax= 1.53D+04 ExpMxC= 5.22D+02 IAcc=3 IRadAn=         5 AccDes= 0.00D+00
 HarFok:  IExCor=  205 AccDes= 0.00D+00 IRadAn=         5 IDoV=-2 UseB2=F ITyADJ=14
 ICtDFT= 12500011 ScaDFX=  1.000000  1.000000  1.000000  1.000000
 Largest valence mixing into a core orbital is  1.11D-04
 Largest core mixing into a valence orbital is  1.78D-05
 Range of M.O.s used for correlation:     3   116
 NBasis=   116 NAE=    10 NBE=    10 NFC=     2 NFV=     0
 NROrb=    114 NOA=     8 NOB=     8 NVA=   106 NVB=   106
 Leave Link  801 at Fri Aug 26 20:43:45 2022, MaxMem=   536870912 cpu:               0.3 elap:               0.1
 (Enter /usr/site/hpc/x86_64/glibc-2.17/broadwell/gaussian/g16_a.03/pgi-16.5/g16/l804.exe)
 Closed-shell transformation, MDV=   536870912 ITran=4 ISComp=2.
 Unit  1 TFree=        834515 TCopy=        406125.
 Semi-Direct transformation.
 ModeAB=           2 MOrb=             8 LenV=     536361634
 LASXX=      2873146 LTotXX=     2873146 LenRXX=     2873146
 LTotAB=     2958132 MaxLAS=     7765680 LenRXY=     7765680
 NonZer=     7911600 LenScr=    12058624 LnRSAI=           0
 LnScr1=           0 LExtra=           0 Total=     22697450
 MaxDsk=          -1 SrtSym=           F ITran=            4
 DoSDTr:  NPSUse=  4
 JobTyp=0 Pass  1:  I=   1 to   8.
 (rs|ai) integrals will be sorted in core.
 Complete sort for first half transformation.
 First half transformation complete.
 Complete sort for second half transformation.
 Second half transformation complete.
 Spin components of T(2) and E(2):
     alpha-alpha T2 =       0.1583108553D-01 E2=     -0.6490726699D-01
     alpha-beta  T2 =       0.9172191498D-01 E2=     -0.3997935022D+00
     beta-beta   T2 =       0.1583108553D-01 E2=     -0.6490726699D-01
 ANorm=    0.1059898149D+01
 E2 =    -0.5296080361D+00 EUMP2 =    -0.15263918055540D+03
 Leave Link  804 at Fri Aug 26 20:43:46 2022, MaxMem=   536870912 cpu:               4.8 elap:               1.2
 (Enter /usr/site/hpc/x86_64/glibc-2.17/broadwell/gaussian/g16_a.03/pgi-16.5/g16/l913.exe)
 CIDS:  MDV=   536870912.
 Frozen-core window:  NFC=   2 NFV=   0.
 IFCWin=0 IBDFC=1 NFBD=     0     0 NFCmp=     0     0 NFFFC=     0     0
 Using DD3R+UMP44R for 1st iteration.
 Using DD4RQ for 2nd and later iterations.
 Keep R2 and R3 ints in memory in symmetry-blocked form, NReq=35357534.
 FoFCou: FMM=F IPFlag=           0 FMFlag=           0 FMFlg1=           0
         NFxFlg=           0 DoJE=F BraDBF=F KetDBF=F FulRan=T
         wScrn=  0.000000 ICntrl=       600 IOpCl=  0 I1Cent=           0 NGrid=           0
         NMat0=    1 NMatS0=   6786 NMatT0=    0 NMatD0=    1 NMtDS0=    0 NMtDT0=    0
 Petite list used in FoFCou.
 CIDS: In Core Option IDoMem=           1.
 CCSD(T)
 =======
 Iterations=  50 Convergence= 0.100D-06
 Produce multiple copies of IABC intergrals
 Iteration Nr.   1
 **********************
 DD1Dir will call FoFMem   1 times, MxPair=        72
 NAB=    36 NAA=     0 NBB=     0.
 MP4(R+Q)=  0.78604809D-02
 Maximum subspace dimension=  5
 A-vector RMS=  1.8472822D-03 Max=  6.0078650D-03 conv= 1.00D-05.
 RLE energy=       -0.5285774136
 E3=       -0.68908725D-02        EUMP3=      -0.15264607143D+03
 E4(DQ)=   -0.11262287D-02        UMP4(DQ)=   -0.15264719766D+03
 E4(SDQ)=  -0.43042870D-02        UMP4(SDQ)=  -0.15265037571D+03
 VARIATIONAL ENERGIES WITH THE FIRST-ORDER WAVEFUNCTION:
 DE(Corr)= -0.52857541     E(Corr)=     -152.63814793    
 NORM(A)=   0.10599594D+01
 Iteration Nr.   2
 **********************
 DD1Dir will call FoFMem   1 times, MxPair=        72
 NAB=    36 NAA=     0 NBB=     0.
 A-vector RMS=  2.1048149D-04 Max=  1.6974117D-03 conv= 1.00D-05.
 RLE energy=       -0.5395796009
 DE(Corr)= -0.53853018     E(CORR)=     -152.64810269     Delta=-9.95D-03
 NORM(A)=   0.10636516D+01
 Iteration Nr.   3
 **********************
 DD1Dir will call FoFMem   1 times, MxPair=        72
 NAB=    36 NAA=     0 NBB=     0.
 A-vector RMS=  1.6817758D-04 Max=  1.0870269D-03 conv= 1.00D-05.
 RLE energy=       -0.5400575064
 DE(Corr)= -0.53947433     E(CORR)=     -152.64904685     Delta=-9.44D-04
 NORM(A)=   0.10642591D+01
 Iteration Nr.   4
 **********************
 DD1Dir will call FoFMem   1 times, MxPair=        72
 NAB=    36 NAA=     0 NBB=     0.
 A-vector RMS=  3.3612880D-05 Max=  1.6773762D-04 conv= 1.00D-05.
 RLE energy=       -0.5401320627
 DE(Corr)= -0.54009985     E(CORR)=     -152.64967236     Delta=-6.26D-04
 NORM(A)=   0.10643698D+01
 Iteration Nr.   5
 **********************
 DD1Dir will call FoFMem   1 times, MxPair=        72
 NAB=    36 NAA=     0 NBB=     0.
 A-vector RMS=  2.0743122D-05 Max=  2.2791877D-04 conv= 1.00D-05.
 RLE energy=       -0.5401465556
 DE(Corr)= -0.54013913     E(CORR)=     -152.64971165     Delta=-3.93D-05
 NORM(A)=   0.10643835D+01
 Iteration Nr.   6
 **********************
 DD1Dir will call FoFMem   1 times, MxPair=        72
 NAB=    36 NAA=     0 NBB=     0.
 A-vector RMS=  5.7269990D-06 Max=  4.3203804D-05 conv= 1.00D-05.
 RLE energy=       -0.5401410943
 DE(Corr)= -0.54014307     E(CORR)=     -152.64971559     Delta=-3.94D-06
 NORM(A)=   0.10643833D+01
 Iteration Nr.   7
 **********************
 DD1Dir will call FoFMem   1 times, MxPair=        72
 NAB=    36 NAA=     0 NBB=     0.
 A-vector RMS=  3.0629259D-06 Max=  3.3721692D-05 conv= 1.00D-05.
 RLE energy=       -0.5401413317
 DE(Corr)= -0.54014332     E(CORR)=     -152.64971584     Delta=-2.50D-07
 NORM(A)=   0.10643839D+01
 Iteration Nr.   8
 **********************
 DD1Dir will call FoFMem   1 times, MxPair=        72
 NAB=    36 NAA=     0 NBB=     0.
 A-vector RMS=  1.2726144D-06 Max=  1.0747751D-05 conv= 1.00D-05.
 RLE energy=       -0.5401427019
 DE(Corr)= -0.54014298     E(CORR)=     -152.64971550     Delta= 3.37D-07
 NORM(A)=   0.10643845D+01
 Iteration Nr.   9
 **********************
 DD1Dir will call FoFMem   1 times, MxPair=        72
 NAB=    36 NAA=     0 NBB=     0.
 A-vector RMS=  3.2212404D-07 Max=  3.2656668D-06 conv= 1.00D-05.
 RLE energy=       -0.5401428976
 DE(Corr)= -0.54014296     E(CORR)=     -152.64971548     Delta= 2.39D-08
 NORM(A)=   0.10643849D+01
 CI/CC converged in    9 iterations to DelEn= 2.39D-08 Conv= 1.00D-07 ErrA1= 3.22D-07 Conv= 1.00D-05
 Wavefunction amplitudes converged. E(Corr)=     -152.64971548    
 Largest amplitude= 3.57D-02
 IPart=  3 IA=    7   11.05% done.
 IPart=  4 IA=   13   21.46% done.
 IPart=  1 IA=   19   31.21% done.
 IPart=  3 IA=   25   40.32% done.
 IPart=  3 IA=   32   50.13% done.
 IPart=  3 IA=   40   60.27% done.
 IPart=  4 IA=   49   70.30% done.
 IPart=  2 IA=   60   80.58% done.
 IPart=  4 IA=   74   90.51% done.
 Time for triples=       51.86 seconds.
 T4(CCSD)= -0.16625271D-01
 T5(CCSD)=  0.41942807D-03
 CCSD(T)= -0.15266592132D+03
 Discarding MO integrals.
 Leave Link  913 at Fri Aug 26 20:44:05 2022, MaxMem=   536870912 cpu:              74.4 elap:              18.7
 (Enter /usr/site/hpc/x86_64/glibc-2.17/broadwell/gaussian/g16_a.03/pgi-16.5/g16/l601.exe)
 Copying SCF densities to generalized density rwf, IOpCl= 0 IROHF=0.

 **********************************************************************

            Population analysis using the SCF density.

 **********************************************************************

 Orbital symmetries:
       Occupied  (A') (A') (A') (A') (A') (A') (A') (A") (A') (A")
       Virtual   (A') (A') (A') (A') (A') (A') (A') (A') (A') (A")
                 (A') (A') (A") (A") (A') (A") (A') (A") (A') (A')
                 (A") (A') (A') (A') (A') (A') (A') (A') (A") (A")
                 (A") (A') (A') (A') (A") (A') (A') (A') (A') (A')
                 (A') (A') (A") (A") (A") (A') (A') (A') (A") (A')
                 (A") (A') (A") (A') (A') (A") (A") (A") (A') (A")
                 (A') (A') (A') (A") (A') (A') (A") (A') (A') (A")
                 (A') (A") (A') (A') (A') (A') (A') (A') (A') (A')
                 (A") (A") (A') (A') (A") (A") (A") (A") (A') (A")
                 (A') (A") (A') (A") (A') (A') (A") (A') (A') (A')
                 (A') (A') (A') (A') (A') (A')
 The electronic state is 1-A'.
 Alpha  occ. eigenvalues --  -20.59143 -20.51245  -1.36962  -1.29098  -0.74680
 Alpha  occ. eigenvalues --   -0.68042  -0.60025  -0.53866  -0.51850  -0.46187
 Alpha virt. eigenvalues --    0.11859   0.18264   0.19039   0.32997   0.48398
 Alpha virt. eigenvalues --    0.54173   0.56778   0.65316   0.68266   0.72276
 Alpha virt. eigenvalues --    0.74197   0.76474   0.80631   0.83211   0.84119
 Alpha virt. eigenvalues --    0.87327   0.92680   0.96009   1.03046   1.09646
 Alpha virt. eigenvalues --    1.11517   1.18893   1.28252   1.39048   1.50323
 Alpha virt. eigenvalues --    1.52447   1.57183   1.86524   1.91594   2.01504
 Alpha virt. eigenvalues --    2.06535   2.11694   2.16553   2.20306   2.22243
 Alpha virt. eigenvalues --    2.22966   2.30629   2.46308   2.64019   2.69750
 Alpha virt. eigenvalues --    2.96867   3.19084   3.35375   3.43534   3.49196
 Alpha virt. eigenvalues --    3.50130   3.52301   3.54498   3.57888   3.65794
 Alpha virt. eigenvalues --    3.74177   3.82137   3.82970   3.84534   3.89600
 Alpha virt. eigenvalues --    3.92617   3.95218   4.03264   4.04798   4.08410
 Alpha virt. eigenvalues --    4.11998   4.13812   4.18425   4.24102   4.32044
 Alpha virt. eigenvalues --    4.38528   4.39738   4.46850   4.53227   4.65316
 Alpha virt. eigenvalues --    4.69758   4.73846   4.81571   4.93475   4.99718
 Alpha virt. eigenvalues --    5.26240   5.31626   5.35944   5.59496   5.69768
 Alpha virt. eigenvalues --    5.94514   6.01658   6.42496   6.49531   6.78293
 Alpha virt. eigenvalues --    6.84524   6.90898   6.92765   6.94386   7.03318
 Alpha virt. eigenvalues --    7.05780   7.07543   7.10558   7.16326   7.16473
 Alpha virt. eigenvalues --    7.20301   7.23801   7.38223   7.50684   7.58929
 Alpha virt. eigenvalues --    7.78053   7.81017   8.13795   8.42257  12.83194
 Alpha virt. eigenvalues --   13.02700
          Condensed to atoms (all electrons):
               1          2          3          4          5          6
     1  O    7.898850   0.360316   0.348067  -0.025149   0.002167   0.001166
     2  H    0.360316   0.357875  -0.039581   0.036040  -0.006261  -0.002757
     3  H    0.348067  -0.039581   0.442635   0.001105   0.000077   0.000032
     4  O   -0.025149   0.036040   0.001105   7.825250   0.311862   0.304959
     5  H    0.002167  -0.006261   0.000077   0.311862   0.449797  -0.017326
     6  H    0.001166  -0.002757   0.000032   0.304959  -0.017326   0.476157
 Mulliken charges:
               1
     1  O   -0.585417
     2  H    0.294367
     3  H    0.247665
     4  O   -0.454068
     5  H    0.259684
     6  H    0.237769
 Sum of Mulliken charges =  -0.00000
 Mulliken charges with hydrogens summed into heavy atoms:
               1
     1  O   -0.043385
     4  O    0.043385
 Electronic spatial extent (au):  <R**2>=            169.4421
 Charge=             -0.0000 electrons
 Dipole moment (field-independent basis, Debye):
    X=             -0.5634    Y=              3.5958    Z=              0.0000  Tot=              3.6397
 Quadrupole moment (field-independent basis, Debye-Ang):
   XX=             -9.5206   YY=             -9.0194   ZZ=            -14.7028
   XY=              3.7029   XZ=              0.0000   YZ=              0.0000
 Traceless Quadrupole moment (field-independent basis, Debye-Ang):
   XX=              1.5603   YY=              2.0615   ZZ=             -3.6218
   XY=              3.7029   XZ=              0.0000   YZ=              0.0000
 Octapole moment (field-independent basis, Debye-Ang**2):
  XXX=              0.3568  YYY=             19.3853  ZZZ=              0.0000  XYY=             -6.9978
  XXY=              1.3677  XXZ=              0.0000  XZZ=             -0.0738  YZZ=              0.7090
  YYZ=              0.0000  XYZ=              0.0000
 Hexadecapole moment (field-independent basis, Debye-Ang**3):
 XXXX=            -10.5361 YYYY=           -120.8987 ZZZZ=            -11.3649 XXXY=              2.4913
 XXXZ=              0.0000 YYYX=              2.5467 YYYZ=              0.0000 ZZZX=              0.0000
 ZZZY=              0.0000 XXYY=            -19.5783 XXZZ=             -4.4247 YYZZ=            -31.3860
 XXYZ=              0.0000 YYXZ=              0.0000 ZZXY=             -1.0410
 N-N= 3.772728120461D+01 E-N=-4.369037550939D+02  KE= 1.518519915396D+02
 Symmetry A'   KE= 1.428465884384D+02
 Symmetry A"   KE= 9.005403101169D+00
 Leave Link  601 at Fri Aug 26 20:44:05 2022, MaxMem=   536870912 cpu:               0.2 elap:               0.0
 (Enter /usr/site/hpc/x86_64/glibc-2.17/broadwell/gaussian/g16_a.03/pgi-16.5/g16/l9999.exe)
 1\1\GINC-N041\SP\RCCSD(T)-FC\CC-pVTZ\H4O2\C7441284\26-Aug-2022\0\\#p C
 CSD(T)/cc-pVTZ\\H2O_H2O_823\\0,1\O,0,0.,-0.009833,0.\H,0,-0.799571,-0.
 580965,0.\H,0,0.799571,-0.580965,0.\O,0,-2.189922,-1.55789,0.\H,0,-2.8
 12125,-0.797385,0.\H,0,-2.707536,-2.393104,0.\\Version=ES64L-G16RevA.0
 3\State=1-A'\HF=-152.1095725\MP2=-152.6391806\MP3=-152.6460714\MP4D=-1
 52.6550581\MP4DQ=-152.6471977\MP4SDQ=-152.6503757\CCSD=-152.6497155\CC
 SD(T)=-152.6659213\RMSD=7.891e-09\PG=CS [SG(H4O2)]\\@


 CHILDREN YOU ARE VERY LITTLE,
 AND YOUR BONES ARE VERY BRITTLE;
 IF YOU WOULD GROW GREAT AND STATELY
 YOU MUST TRY TO WALK SEDATELY.
 YOU MUST STILL BE BRIGHT AND QUIET,
 AND CONTENT WITH SIMPLE DIET;
 AND REMAIN, THROUGH ALL BEWILD'RING
 INNOCENT AND HONEST CHILDREN.
     -- A CHILD'S GARDEN OF VERSE,
        ROBERT LOUIS STEVENSON
 Job cpu time:       0 days  0 hours  1 minutes 27.0 seconds.
 Elapsed time:       0 days  0 hours  0 minutes 21.9 seconds.
 File lengths (MBytes):  RWF=    572 Int=      0 D2E=      0 Chk=      8 Scr=      8
 Normal termination of Gaussian 16 at Fri Aug 26 20:44:05 2022.
