 Entering Gaussian System, Link 0=g16
 Input=H2O_H2O_10.com
 Output=H2O_H2O_10.log
 Initial command:
 /usr/site/hpc/x86_64/glibc-2.17/broadwell/gaussian/g16_a.03/pgi-16.5/g16/l1.exe "/gpfs/gpfs1/scratch/c7441284/ForceFieldModel/FittingData2/Gau-4070615.inp" -scrdir="/gpfs/gpfs1/scratch/c7441284/ForceFieldModel/FittingData2/"
 Entering Link 1 = /usr/site/hpc/x86_64/glibc-2.17/broadwell/gaussian/g16_a.03/pgi-16.5/g16/l1.exe PID=   4070618.
  
 Copyright (c) 1988,1990,1992,1993,1995,1998,2003,2009,2016,
            Gaussian, Inc.  All Rights Reserved.
  
 This is part of the Gaussian(R) 16 program.  It is based on
 the Gaussian(R) 09 system (copyright 2009, Gaussian, Inc.),
 the Gaussian(R) 03 system (copyright 2003, Gaussian, Inc.),
 the Gaussian(R) 98 system (copyright 1998, Gaussian, Inc.),
 the Gaussian(R) 94 system (copyright 1995, Gaussian, Inc.),
 the Gaussian 92(TM) system (copyright 1992, Gaussian, Inc.),
 the Gaussian 90(TM) system (copyright 1990, Gaussian, Inc.),
 the Gaussian 88(TM) system (copyright 1988, Gaussian, Inc.),
 the Gaussian 86(TM) system (copyright 1986, Carnegie Mellon
 University), and the Gaussian 82(TM) system (copyright 1983,
 Carnegie Mellon University). Gaussian is a federally registered
 trademark of Gaussian, Inc.
  
 This software contains proprietary and confidential information,
 including trade secrets, belonging to Gaussian, Inc.
  
 This software is provided under written license and may be
 used, copied, transmitted, or stored only in accord with that
 written license.
  
 The following legend is applicable only to US Government
 contracts under FAR:
  
                    RESTRICTED RIGHTS LEGEND
  
 Use, reproduction and disclosure by the US Government is
 subject to restrictions as set forth in subparagraphs (a)
 and (c) of the Commercial Computer Software - Restricted
 Rights clause in FAR 52.227-19.
  
 Gaussian, Inc.
 340 Quinnipiac St., Bldg. 40, Wallingford CT 06492
  
  
 ---------------------------------------------------------------
 Warning -- This program may not be used in any manner that
 competes with the business of Gaussian, Inc. or will provide
 assistance to any competitor of Gaussian, Inc.  The licensee
 of this program is prohibited from giving any competitor of
 Gaussian, Inc. access to this program.  By using this program,
 the user acknowledges that Gaussian, Inc. is engaged in the
 business of creating and licensing software in the field of
 computational chemistry and represents and warrants to the
 licensee that it is not a competitor of Gaussian, Inc. and that
 it will not use this program in any manner prohibited above.
 ---------------------------------------------------------------
  

 Cite this work as:
 Gaussian 16, Revision A.03,
 M. J. Frisch, G. W. Trucks, H. B. Schlegel, G. E. Scuseria, 
 M. A. Robb, J. R. Cheeseman, G. Scalmani, V. Barone, 
 G. A. Petersson, H. Nakatsuji, X. Li, M. Caricato, A. V. Marenich, 
 J. Bloino, B. G. Janesko, R. Gomperts, B. Mennucci, H. P. Hratchian, 
 J. V. Ortiz, A. F. Izmaylov, J. L. Sonnenberg, D. Williams-Young, 
 F. Ding, F. Lipparini, F. Egidi, J. Goings, B. Peng, A. Petrone, 
 T. Henderson, D. Ranasinghe, V. G. Zakrzewski, J. Gao, N. Rega, 
 G. Zheng, W. Liang, M. Hada, M. Ehara, K. Toyota, R. Fukuda, 
 J. Hasegawa, M. Ishida, T. Nakajima, Y. Honda, O. Kitao, H. Nakai, 
 T. Vreven, K. Throssell, J. A. Montgomery, Jr., J. E. Peralta, 
 F. Ogliaro, M. J. Bearpark, J. J. Heyd, E. N. Brothers, K. N. Kudin, 
 V. N. Staroverov, T. A. Keith, R. Kobayashi, J. Normand, 
 K. Raghavachari, A. P. Rendell, J. C. Burant, S. S. Iyengar, 
 J. Tomasi, M. Cossi, J. M. Millam, M. Klene, C. Adamo, R. Cammi, 
 J. W. Ochterski, R. L. Martin, K. Morokuma, O. Farkas, 
 J. B. Foresman, and D. J. Fox, Gaussian, Inc., Wallingford CT, 2016.
 
 ******************************************
 Gaussian 16:  ES64L-G16RevA.03 25-Dec-2016
                26-Aug-2022 
 ******************************************
 %NProcShared=4
 Will use up to    4 processors via shared memory.
 %Mem=4GB
 %Chk=H2O_H2O_10.chk
 ------------------
 #p CCSD(T)/cc-pVTZ
 ------------------
 1/38=1,172=1/1;
 2/12=2,17=6,18=5,40=1/2;
 3/5=16,6=1,11=9,25=1,30=1/1,2,3;
 4//1;
 5/5=2,38=5/2;
 8/6=4,9=120000,10=1/1,4;
 9/5=7,14=2/13;
 6/7=2,8=2,9=2,10=2/1;
 99/5=1,9=1/99;
 Leave Link    1 at Fri Aug 26 15:14:52 2022, MaxMem=   536870912 cpu:               2.4 elap:               0.8
 (Enter /usr/site/hpc/x86_64/glibc-2.17/broadwell/gaussian/g16_a.03/pgi-16.5/g16/l101.exe)
 ----------
 H2O_H2O_10
 ----------
 Symbolic Z-matrix:
 Charge =  0 Multiplicity = 1
 O                     0.       -0.00983   0. 
 H                    -0.79957  -0.58097   0. 
 H                     0.79957  -0.58097   0. 
 O                    -1.66677  -1.1941    0. 
 H                    -2.6488   -1.16046   0. 
 H                    -1.38011  -2.13395   0. 
 
 ITRead=  0  0  0  0  0  0
 MicOpt= -1 -1 -1 -1 -1 -1
 NAtoms=      6 NQM=        6 NQMF=       0 NMMI=      0 NMMIF=      0
                NMic=       0 NMicF=      0.
                    Isotopes and Nuclear Properties:
 (Nuclear quadrupole moments (NQMom) in fm**2, nuclear magnetic moments (NMagM)
  in nuclear magnetons)

  Atom         1           2           3           4           5           6
 IAtWgt=          16           1           1          16           1           1
 AtmWgt=  15.9949146   1.0078250   1.0078250  15.9949146   1.0078250   1.0078250
 NucSpn=           0           1           1           0           1           1
 AtZEff=  -0.0000000  -0.0000000  -0.0000000  -0.0000000  -0.0000000  -0.0000000
 NQMom=    0.0000000   0.0000000   0.0000000   0.0000000   0.0000000   0.0000000
 NMagM=    0.0000000   2.7928460   2.7928460   0.0000000   2.7928460   2.7928460
 AtZNuc=   8.0000000   1.0000000   1.0000000   8.0000000   1.0000000   1.0000000
 Leave Link  101 at Fri Aug 26 15:14:52 2022, MaxMem=   536870912 cpu:               0.7 elap:               0.2
 (Enter /usr/site/hpc/x86_64/glibc-2.17/broadwell/gaussian/g16_a.03/pgi-16.5/g16/l202.exe)
                          Input orientation:                          
 ---------------------------------------------------------------------
 Center     Atomic      Atomic             Coordinates (Angstroms)
 Number     Number       Type             X           Y           Z
 ---------------------------------------------------------------------
      1          8           0        0.000000   -0.009833    0.000000
      2          1           0       -0.799571   -0.580965    0.000000
      3          1           0        0.799571   -0.580965    0.000000
      4          8           0       -1.666771   -1.194096    0.000000
      5          1           0       -2.648797   -1.160457    0.000000
      6          1           0       -1.380111   -2.133954    0.000000
 ---------------------------------------------------------------------
                    Distance matrix (angstroms):
                    1          2          3          4          5
     1  O    0.000000
     2  H    0.982601   0.000000
     3  H    0.982601   1.599142   0.000000
     4  O    2.044653   1.062057   2.541412   0.000000
     5  H    2.887916   1.937898   3.496720   0.982602   0.000000
     6  H    2.533100   1.657951   2.676339   0.982602   1.599144
                    6
     6  H    0.000000
 Stoichiometry    H4O2
 Framework group  CS[SG(H4O2)]
 Deg. of freedom     9
 Full point group                 CS      NOp   2
 Largest Abelian subgroup         CS      NOp   2
 Largest concise Abelian subgroup C1      NOp   1
                         Standard orientation:                         
 ---------------------------------------------------------------------
 Center     Atomic      Atomic             Coordinates (Angstroms)
 Number     Number       Type             X           Y           Z
 ---------------------------------------------------------------------
      1          8           0        0.063357    1.109993    0.000000
      2          1           0        0.060890    0.127395    0.000000
      3          1           0       -0.865333    1.430992    0.000000
      4          8           0        0.063357   -0.934660   -0.000000
      5          1           0        0.659568   -1.715709   -0.000000
      6          1           0       -0.868835   -1.245344   -0.000000
 ---------------------------------------------------------------------
 Rotational constants (GHZ):         249.7808740          12.5494908          11.9491420
 Leave Link  202 at Fri Aug 26 15:14:52 2022, MaxMem=   536870912 cpu:               0.0 elap:               0.0
 (Enter /usr/site/hpc/x86_64/glibc-2.17/broadwell/gaussian/g16_a.03/pgi-16.5/g16/l301.exe)
 Standard basis: CC-pVTZ (5D, 7F)
 Ernie: Thresh=  0.10000D-02 Tol=  0.10000D-05 Strict=F.
 Ernie:  6 primitive shells out of 84 were deleted.
 There are    92 symmetry adapted cartesian basis functions of A'  symmetry.
 There are    38 symmetry adapted cartesian basis functions of A"  symmetry.
 There are    80 symmetry adapted basis functions of A'  symmetry.
 There are    36 symmetry adapted basis functions of A"  symmetry.
   116 basis functions,   172 primitive gaussians,   130 cartesian basis functions
    10 alpha electrons       10 beta electrons
       nuclear repulsion energy        44.1894686977 Hartrees.
 IExCor=    0 DFT=F Ex=HF Corr=None ExCW=0 ScaHFX=  1.000000
 ScaDFX=  1.000000  1.000000  1.000000  1.000000 ScalE2=  1.000000  1.000000
 IRadAn=      5 IRanWt=     -1 IRanGd=            0 ICorTp=0 IEmpDi=  4
 NAtoms=    6 NActive=    6 NUniq=    6 SFac= 1.00D+00 NAtFMM=   60 NAOKFM=F Big=F
 Integral buffers will be    131072 words long.
 Raffenetti 1 integral format.
 Two-electron integral symmetry is turned on.
 Leave Link  301 at Fri Aug 26 15:14:52 2022, MaxMem=   536870912 cpu:               0.2 elap:               0.0
 (Enter /usr/site/hpc/x86_64/glibc-2.17/broadwell/gaussian/g16_a.03/pgi-16.5/g16/l302.exe)
 NPDir=0 NMtPBC=     1 NCelOv=     1 NCel=       1 NClECP=     1 NCelD=      1
         NCelK=      1 NCelE2=     1 NClLst=     1 CellRange=     0.0.
 One-electron integrals computed using PRISM.
 One-electron integral symmetry used in STVInt
 NBasis=   116 RedAO= T EigKep=  1.62D-03  NBF=    80    36
 NBsUse=   116 1.00D-06 EigRej= -1.00D+00 NBFU=    80    36
 Leave Link  302 at Fri Aug 26 15:14:52 2022, MaxMem=   536870912 cpu:               0.5 elap:               0.1
 (Enter /usr/site/hpc/x86_64/glibc-2.17/broadwell/gaussian/g16_a.03/pgi-16.5/g16/l303.exe)
 DipDrv:  MaxL=1.
 Leave Link  303 at Fri Aug 26 15:14:53 2022, MaxMem=   536870912 cpu:               0.1 elap:               0.0
 (Enter /usr/site/hpc/x86_64/glibc-2.17/broadwell/gaussian/g16_a.03/pgi-16.5/g16/l401.exe)
 ExpMin= 1.03D-01 ExpMax= 1.53D+04 ExpMxC= 5.22D+02 IAcc=3 IRadAn=         5 AccDes= 0.00D+00
 Harris functional with IExCor=  205 and IRadAn=       5 diagonalized for initial guess.
 HarFok:  IExCor=  205 AccDes= 0.00D+00 IRadAn=         5 IDoV= 1 UseB2=F ITyADJ=14
 ICtDFT=  3500011 ScaDFX=  1.000000  1.000000  1.000000  1.000000
 FoFCou: FMM=F IPFlag=           0 FMFlag=      100000 FMFlg1=           0
         NFxFlg=           0 DoJE=T BraDBF=F KetDBF=T FulRan=T
         wScrn=  0.000000 ICntrl=       500 IOpCl=  0 I1Cent=   200000004 NGrid=           0
         NMat0=    1 NMatS0=      1 NMatT0=    0 NMatD0=    1 NMtDS0=    0 NMtDT0=    0
 Petite list used in FoFCou.
 Harris En= -152.275113243096    
 JPrj=0 DoOrth=F DoCkMO=F.
 Initial guess orbital symmetries:
       Occupied  (A') (A') (A') (A') (A') (A') (A') (A") (A') (A")
       Virtual   (A') (A') (A') (A') (A') (A') (A') (A') (A") (A')
                 (A") (A') (A') (A') (A") (A") (A') (A") (A') (A')
                 (A') (A") (A') (A') (A') (A') (A') (A") (A") (A")
                 (A') (A') (A') (A') (A') (A') (A") (A') (A') (A')
                 (A') (A') (A") (A") (A') (A") (A") (A') (A") (A')
                 (A") (A') (A') (A") (A') (A') (A') (A") (A") (A")
                 (A') (A') (A') (A") (A') (A') (A") (A") (A') (A')
                 (A') (A") (A') (A') (A') (A') (A') (A') (A') (A")
                 (A') (A") (A') (A") (A") (A') (A") (A") (A') (A")
                 (A") (A') (A') (A') (A") (A') (A') (A') (A') (A')
                 (A") (A') (A') (A') (A') (A')
 The electronic state of the initial guess is 1-A'.
 Leave Link  401 at Fri Aug 26 15:14:53 2022, MaxMem=   536870912 cpu:               0.8 elap:               0.2
 (Enter /usr/site/hpc/x86_64/glibc-2.17/broadwell/gaussian/g16_a.03/pgi-16.5/g16/l502.exe)
 Keep R1 ints in memory in symmetry-blocked form, NReq=34823469.
 FoFCou: FMM=F IPFlag=           0 FMFlag=           0 FMFlg1=           0
         NFxFlg=           0 DoJE=F BraDBF=F KetDBF=F FulRan=T
         wScrn=  0.000000 ICntrl=       600 IOpCl=  0 I1Cent=           0 NGrid=           0
         NMat0=    1 NMatS0=   6786 NMatT0=    0 NMatD0=    1 NMtDS0=    0 NMtDT0=    0
 Petite list used in FoFCou.
 Closed shell SCF:
 Using DIIS extrapolation, IDIIS=  1040.
 NGot=   536870912 LenX=   525040661 LenY=   525023320
 Requested convergence on RMS density matrix=1.00D-08 within 128 cycles.
 Requested convergence on MAX density matrix=1.00D-06.
 Requested convergence on             energy=1.00D-06.
 No special actions if energy rises.

 Cycle   1  Pass 1  IDiag  1:
 E= -151.817922714216    
 DIIS: error= 7.15D-02 at cycle   1 NSaved=   1.
 NSaved= 1 IEnMin= 1 EnMin= -151.817922714216     IErMin= 1 ErrMin= 7.15D-02
 ErrMax= 7.15D-02  0.00D+00 EMaxC= 1.00D-01 BMatC= 4.39D-01 BMatP= 4.39D-01
 IDIUse=3 WtCom= 2.85D-01 WtEn= 7.15D-01
 Coeff-Com:  0.100D+01
 Coeff-En:   0.100D+01
 Coeff:      0.100D+01
 Gap=     0.356 Goal=   None    Shift=    0.000
 GapD=    0.356 DampG=1.000 DampE=0.500 DampFc=0.5000 IDamp=-1.
 Damping current iteration by 5.00D-01
 RMSDP=4.50D-03 MaxDP=1.45D-01              OVMax= 1.65D-01

 Cycle   2  Pass 1  IDiag  1:
 E= -151.929128195411     Delta-E=       -0.111205481195 Rises=F Damp=T
 DIIS: error= 2.69D-02 at cycle   2 NSaved=   2.
 NSaved= 2 IEnMin= 2 EnMin= -151.929128195411     IErMin= 2 ErrMin= 2.69D-02
 ErrMax= 2.69D-02  0.00D+00 EMaxC= 1.00D-01 BMatC= 5.99D-02 BMatP= 4.39D-01
 IDIUse=3 WtCom= 7.31D-01 WtEn= 2.69D-01
 Coeff-Com: -0.350D+00 0.135D+01
 Coeff-En:   0.000D+00 0.100D+01
 Coeff:     -0.256D+00 0.126D+01
 Gap=     0.505 Goal=   None    Shift=    0.000
 RMSDP=7.19D-04 MaxDP=1.25D-02 DE=-1.11D-01 OVMax= 7.05D-02

 Cycle   3  Pass 1  IDiag  1:
 E= -152.024625052982     Delta-E=       -0.095496857570 Rises=F Damp=F
 DIIS: error= 2.56D-03 at cycle   3 NSaved=   3.
 NSaved= 3 IEnMin= 3 EnMin= -152.024625052982     IErMin= 3 ErrMin= 2.56D-03
 ErrMax= 2.56D-03  0.00D+00 EMaxC= 1.00D-01 BMatC= 6.00D-04 BMatP= 5.99D-02
 IDIUse=3 WtCom= 9.74D-01 WtEn= 2.56D-02
 Coeff-Com: -0.281D-01-0.109D-02 0.103D+01
 Coeff-En:   0.000D+00 0.000D+00 0.100D+01
 Coeff:     -0.274D-01-0.107D-02 0.103D+01
 Gap=     0.505 Goal=   None    Shift=    0.000
 RMSDP=1.66D-04 MaxDP=2.72D-03 DE=-9.55D-02 OVMax= 7.41D-03

 Cycle   4  Pass 1  IDiag  1:
 E= -152.025182328251     Delta-E=       -0.000557275269 Rises=F Damp=F
 DIIS: error= 6.41D-04 at cycle   4 NSaved=   4.
 NSaved= 4 IEnMin= 4 EnMin= -152.025182328251     IErMin= 4 ErrMin= 6.41D-04
 ErrMax= 6.41D-04  0.00D+00 EMaxC= 1.00D-01 BMatC= 4.58D-05 BMatP= 6.00D-04
 IDIUse=3 WtCom= 9.94D-01 WtEn= 6.41D-03
 Coeff-Com:  0.101D-02-0.106D-01 0.696D-01 0.940D+00
 Coeff-En:   0.000D+00 0.000D+00 0.000D+00 0.100D+01
 Coeff:      0.101D-02-0.106D-01 0.692D-01 0.940D+00
 Gap=     0.509 Goal=   None    Shift=    0.000
 RMSDP=5.87D-05 MaxDP=1.25D-03 DE=-5.57D-04 OVMax= 2.21D-03

 Cycle   5  Pass 1  IDiag  1:
 E= -152.025233778834     Delta-E=       -0.000051450583 Rises=F Damp=F
 DIIS: error= 3.67D-04 at cycle   5 NSaved=   5.
 NSaved= 5 IEnMin= 5 EnMin= -152.025233778834     IErMin= 5 ErrMin= 3.67D-04
 ErrMax= 3.67D-04  0.00D+00 EMaxC= 1.00D-01 BMatC= 1.10D-05 BMatP= 4.58D-05
 IDIUse=3 WtCom= 9.96D-01 WtEn= 3.67D-03
 Coeff-Com:  0.598D-02-0.267D-02-0.187D+00 0.215D+00 0.968D+00
 Coeff-En:   0.000D+00 0.000D+00 0.000D+00 0.000D+00 0.100D+01
 Coeff:      0.595D-02-0.266D-02-0.186D+00 0.215D+00 0.968D+00
 Gap=     0.509 Goal=   None    Shift=    0.000
 RMSDP=3.57D-05 MaxDP=7.07D-04 DE=-5.15D-05 OVMax= 1.41D-03

 Cycle   6  Pass 1  IDiag  1:
 E= -152.025246711989     Delta-E=       -0.000012933155 Rises=F Damp=F
 DIIS: error= 4.92D-05 at cycle   6 NSaved=   6.
 NSaved= 6 IEnMin= 6 EnMin= -152.025246711989     IErMin= 6 ErrMin= 4.92D-05
 ErrMax= 4.92D-05  0.00D+00 EMaxC= 1.00D-01 BMatC= 1.76D-07 BMatP= 1.10D-05
 IDIUse=1 WtCom= 1.00D+00 WtEn= 0.00D+00
 Coeff-Com: -0.103D-02 0.431D-03 0.376D-01-0.793D-01-0.199D+00 0.124D+01
 Coeff:     -0.103D-02 0.431D-03 0.376D-01-0.793D-01-0.199D+00 0.124D+01
 Gap=     0.509 Goal=   None    Shift=    0.000
 RMSDP=7.22D-06 MaxDP=1.43D-04 DE=-1.29D-05 OVMax= 3.88D-04

 Cycle   7  Pass 1  IDiag  1:
 E= -152.025247185060     Delta-E=       -0.000000473071 Rises=F Damp=F
 DIIS: error= 1.23D-05 at cycle   7 NSaved=   7.
 NSaved= 7 IEnMin= 7 EnMin= -152.025247185060     IErMin= 7 ErrMin= 1.23D-05
 ErrMax= 1.23D-05  0.00D+00 EMaxC= 1.00D-01 BMatC= 1.08D-08 BMatP= 1.76D-07
 IDIUse=1 WtCom= 1.00D+00 WtEn= 0.00D+00
 Coeff-Com: -0.705D-04-0.133D-04 0.255D-02 0.861D-03-0.142D-01-0.210D+00
 Coeff-Com:  0.122D+01
 Coeff:     -0.705D-04-0.133D-04 0.255D-02 0.861D-03-0.142D-01-0.210D+00
 Coeff:      0.122D+01
 Gap=     0.509 Goal=   None    Shift=    0.000
 RMSDP=1.98D-06 MaxDP=4.25D-05 DE=-4.73D-07 OVMax= 1.22D-04

 Cycle   8  Pass 1  IDiag  1:
 E= -152.025247215668     Delta-E=       -0.000000030608 Rises=F Damp=F
 DIIS: error= 3.40D-06 at cycle   8 NSaved=   8.
 NSaved= 8 IEnMin= 8 EnMin= -152.025247215668     IErMin= 8 ErrMin= 3.40D-06
 ErrMax= 3.40D-06  0.00D+00 EMaxC= 1.00D-01 BMatC= 6.37D-10 BMatP= 1.08D-08
 IDIUse=1 WtCom= 1.00D+00 WtEn= 0.00D+00
 Coeff-Com:  0.670D-04-0.257D-04-0.249D-02 0.379D-02 0.145D-01-0.272D-01
 Coeff-Com: -0.222D+00 0.123D+01
 Coeff:      0.670D-04-0.257D-04-0.249D-02 0.379D-02 0.145D-01-0.272D-01
 Coeff:     -0.222D+00 0.123D+01
 Gap=     0.509 Goal=   None    Shift=    0.000
 RMSDP=4.66D-07 MaxDP=9.89D-06 DE=-3.06D-08 OVMax= 3.29D-05

 Cycle   9  Pass 1  IDiag  1:
 E= -152.025247217620     Delta-E=       -0.000000001952 Rises=F Damp=F
 DIIS: error= 9.70D-07 at cycle   9 NSaved=   9.
 NSaved= 9 IEnMin= 9 EnMin= -152.025247217620     IErMin= 9 ErrMin= 9.70D-07
 ErrMax= 9.70D-07  0.00D+00 EMaxC= 1.00D-01 BMatC= 5.13D-11 BMatP= 6.37D-10
 IDIUse=1 WtCom= 1.00D+00 WtEn= 0.00D+00
 Coeff-Com: -0.584D-05 0.195D-05 0.304D-03-0.721D-03-0.155D-02 0.190D-01
 Coeff-Com: -0.430D-01-0.266D+00 0.129D+01
 Coeff:     -0.584D-05 0.195D-05 0.304D-03-0.721D-03-0.155D-02 0.190D-01
 Coeff:     -0.430D-01-0.266D+00 0.129D+01
 Gap=     0.509 Goal=   None    Shift=    0.000
 RMSDP=1.42D-07 MaxDP=3.12D-06 DE=-1.95D-09 OVMax= 9.81D-06

 Cycle  10  Pass 1  IDiag  1:
 E= -152.025247217774     Delta-E=       -0.000000000154 Rises=F Damp=F
 DIIS: error= 1.63D-07 at cycle  10 NSaved=  10.
 NSaved=10 IEnMin=10 EnMin= -152.025247217774     IErMin=10 ErrMin= 1.63D-07
 ErrMax= 1.63D-07  0.00D+00 EMaxC= 1.00D-01 BMatC= 2.34D-12 BMatP= 5.13D-11
 IDIUse=1 WtCom= 1.00D+00 WtEn= 0.00D+00
 Coeff-Com: -0.522D-05 0.192D-05 0.181D-03-0.254D-03-0.109D-02-0.840D-03
 Coeff-Com:  0.261D-01-0.341D-01-0.232D+00 0.124D+01
 Coeff:     -0.522D-05 0.192D-05 0.181D-03-0.254D-03-0.109D-02-0.840D-03
 Coeff:      0.261D-01-0.341D-01-0.232D+00 0.124D+01
 Gap=     0.509 Goal=   None    Shift=    0.000
 RMSDP=2.59D-08 MaxDP=6.19D-07 DE=-1.54D-10 OVMax= 1.60D-06

 Cycle  11  Pass 1  IDiag  1:
 E= -152.025247217779     Delta-E=       -0.000000000005 Rises=F Damp=F
 DIIS: error= 3.49D-08 at cycle  11 NSaved=  11.
 NSaved=11 IEnMin=11 EnMin= -152.025247217779     IErMin=11 ErrMin= 3.49D-08
 ErrMax= 3.49D-08  0.00D+00 EMaxC= 1.00D-01 BMatC= 6.09D-14 BMatP= 2.34D-12
 IDIUse=1 WtCom= 1.00D+00 WtEn= 0.00D+00
 Coeff-Com:  0.703D-06 0.436D-07-0.354D-04 0.592D-04 0.205D-03-0.476D-03
 Coeff-Com: -0.259D-02 0.175D-01-0.274D-01-0.143D+00 0.116D+01
 Coeff:      0.703D-06 0.436D-07-0.354D-04 0.592D-04 0.205D-03-0.476D-03
 Coeff:     -0.259D-02 0.175D-01-0.274D-01-0.143D+00 0.116D+01
 Gap=     0.509 Goal=   None    Shift=    0.000
 RMSDP=3.60D-09 MaxDP=8.07D-08 DE=-5.20D-12 OVMax= 2.19D-07

 SCF Done:  E(RHF) =  -152.025247218     A.U. after   11 cycles
            NFock= 11  Conv=0.36D-08     -V/T= 1.9976
 KE= 1.523893220015D+02 PE=-4.501799208152D+02 EE= 1.015758828982D+02
 Leave Link  502 at Fri Aug 26 15:14:54 2022, MaxMem=   536870912 cpu:               4.5 elap:               1.2
 (Enter /usr/site/hpc/x86_64/glibc-2.17/broadwell/gaussian/g16_a.03/pgi-16.5/g16/l801.exe)
 Windowed orbitals will be sorted by symmetry type.
 ExpMin= 1.03D-01 ExpMax= 1.53D+04 ExpMxC= 5.22D+02 IAcc=3 IRadAn=         5 AccDes= 0.00D+00
 HarFok:  IExCor=  205 AccDes= 0.00D+00 IRadAn=         5 IDoV=-2 UseB2=F ITyADJ=14
 ICtDFT= 12500011 ScaDFX=  1.000000  1.000000  1.000000  1.000000
 Largest valence mixing into a core orbital is  1.08D-04
 Largest core mixing into a valence orbital is  1.75D-05
 Range of M.O.s used for correlation:     3   116
 NBasis=   116 NAE=    10 NBE=    10 NFC=     2 NFV=     0
 NROrb=    114 NOA=     8 NOB=     8 NVA=   106 NVB=   106
 Leave Link  801 at Fri Aug 26 15:14:54 2022, MaxMem=   536870912 cpu:               0.3 elap:               0.1
 (Enter /usr/site/hpc/x86_64/glibc-2.17/broadwell/gaussian/g16_a.03/pgi-16.5/g16/l804.exe)
 Closed-shell transformation, MDV=   536870912 ITran=4 ISComp=2.
 Unit  1 TFree=        834515 TCopy=        406137.
 Semi-Direct transformation.
 ModeAB=           2 MOrb=             8 LenV=     536358775
 LASXX=      2873146 LTotXX=     2873146 LenRXX=     2873146
 LTotAB=     2958132 MaxLAS=     7765680 LenRXY=     7765680
 NonZer=     7991856 LenScr=    12058624 LnRSAI=           0
 LnScr1=           0 LExtra=           0 Total=     22697450
 MaxDsk=          -1 SrtSym=           F ITran=            4
 DoSDTr:  NPSUse=  4
 JobTyp=0 Pass  1:  I=   1 to   8.
 (rs|ai) integrals will be sorted in core.
 Complete sort for first half transformation.
 First half transformation complete.
 Complete sort for second half transformation.
 Second half transformation complete.
 Spin components of T(2) and E(2):
     alpha-alpha T2 =       0.1615071479D-01 E2=     -0.6717517609D-01
     alpha-beta  T2 =       0.9046225456D-01 E2=     -0.4026409293D+00
     beta-beta   T2 =       0.1615071479D-01 E2=     -0.6717517609D-01
 ANorm=    0.1059605438D+01
 E2 =    -0.5369912814D+00 EUMP2 =    -0.15256223849921D+03
 Leave Link  804 at Fri Aug 26 15:14:55 2022, MaxMem=   536870912 cpu:               4.9 elap:               1.2
 (Enter /usr/site/hpc/x86_64/glibc-2.17/broadwell/gaussian/g16_a.03/pgi-16.5/g16/l913.exe)
 CIDS:  MDV=   536870912.
 Frozen-core window:  NFC=   2 NFV=   0.
 IFCWin=0 IBDFC=1 NFBD=     0     0 NFCmp=     0     0 NFFFC=     0     0
 Using DD3R+UMP44R for 1st iteration.
 Using DD4RQ for 2nd and later iterations.
 Keep R2 and R3 ints in memory in symmetry-blocked form, NReq=35357546.
 FoFCou: FMM=F IPFlag=           0 FMFlag=           0 FMFlg1=           0
         NFxFlg=           0 DoJE=F BraDBF=F KetDBF=F FulRan=T
         wScrn=  0.000000 ICntrl=       600 IOpCl=  0 I1Cent=           0 NGrid=           0
         NMat0=    1 NMatS0=   6786 NMatT0=    0 NMatD0=    1 NMtDS0=    0 NMtDT0=    0
 Petite list used in FoFCou.
 CIDS: In Core Option IDoMem=           1.
 CCSD(T)
 =======
 Iterations=  50 Convergence= 0.100D-06
 Produce multiple copies of IABC intergrals
 Iteration Nr.   1
 **********************
 DD1Dir will call FoFMem   1 times, MxPair=        72
 NAB=    36 NAA=     0 NBB=     0.
 MP4(R+Q)=  0.83511500D-02
 Maximum subspace dimension=  5
 A-vector RMS=  2.1165431D-03 Max=  1.3208052D-02 conv= 1.00D-05.
 RLE energy=       -0.5339421647
 E3=       -0.53399274D-02        EUMP3=      -0.15256757843D+03
 E4(DQ)=   -0.42433299D-03        UMP4(DQ)=   -0.15256800276D+03
 E4(SDQ)=  -0.38370008D-02        UMP4(SDQ)=  -0.15257141543D+03
 VARIATIONAL ENERGIES WITH THE FIRST-ORDER WAVEFUNCTION:
 DE(Corr)= -0.53392476     E(Corr)=     -152.55917198    
 NORM(A)=   0.10591296D+01
 Iteration Nr.   2
 **********************
 DD1Dir will call FoFMem   1 times, MxPair=        72
 NAB=    36 NAA=     0 NBB=     0.
 A-vector RMS=  2.3110446D-04 Max=  2.5445713D-03 conv= 1.00D-05.
 RLE energy=       -0.5448304819
 DE(Corr)= -0.54402241     E(CORR)=     -152.56926962     Delta=-1.01D-02
 NORM(A)=   0.10627321D+01
 Iteration Nr.   3
 **********************
 DD1Dir will call FoFMem   1 times, MxPair=        72
 NAB=    36 NAA=     0 NBB=     0.
 A-vector RMS=  3.5095840D-04 Max=  4.1187220D-03 conv= 1.00D-05.
 RLE energy=       -0.5453254742
 DE(Corr)= -0.54470442     E(CORR)=     -152.56995164     Delta=-6.82D-04
 NORM(A)=   0.10633975D+01
 Iteration Nr.   4
 **********************
 DD1Dir will call FoFMem   1 times, MxPair=        72
 NAB=    36 NAA=     0 NBB=     0.
 A-vector RMS=  6.1983396D-05 Max=  1.1689059D-03 conv= 1.00D-05.
 RLE energy=       -0.5453899902
 DE(Corr)= -0.54534378     E(CORR)=     -152.57059100     Delta=-6.39D-04
 NORM(A)=   0.10635577D+01
 Iteration Nr.   5
 **********************
 DD1Dir will call FoFMem   1 times, MxPair=        72
 NAB=    36 NAA=     0 NBB=     0.
 A-vector RMS=  6.0433135D-05 Max=  8.0082837D-04 conv= 1.00D-05.
 RLE energy=       -0.5454192093
 DE(Corr)= -0.54540582     E(CORR)=     -152.57065304     Delta=-6.20D-05
 NORM(A)=   0.10636208D+01
 Iteration Nr.   6
 **********************
 DD1Dir will call FoFMem   1 times, MxPair=        72
 NAB=    36 NAA=     0 NBB=     0.
 A-vector RMS=  1.9181711D-05 Max=  2.3264733D-04 conv= 1.00D-05.
 RLE energy=       -0.5454172395
 DE(Corr)= -0.54541463     E(CORR)=     -152.57066185     Delta=-8.81D-06
 NORM(A)=   0.10636376D+01
 Iteration Nr.   7
 **********************
 DD1Dir will call FoFMem   1 times, MxPair=        72
 NAB=    36 NAA=     0 NBB=     0.
 A-vector RMS=  6.4492674D-06 Max=  7.3410598D-05 conv= 1.00D-05.
 RLE energy=       -0.5454084795
 DE(Corr)= -0.54541543     E(CORR)=     -152.57066264     Delta=-7.92D-07
 NORM(A)=   0.10636410D+01
 Iteration Nr.   8
 **********************
 DD1Dir will call FoFMem   1 times, MxPair=        72
 NAB=    36 NAA=     0 NBB=     0.
 A-vector RMS=  3.1115823D-06 Max=  4.0589136D-05 conv= 1.00D-05.
 RLE energy=       -0.5454143557
 DE(Corr)= -0.54541493     E(CORR)=     -152.57066215     Delta= 4.94D-07
 NORM(A)=   0.10636446D+01
 Iteration Nr.   9
 **********************
 DD1Dir will call FoFMem   1 times, MxPair=        72
 NAB=    36 NAA=     0 NBB=     0.
 A-vector RMS=  6.9114666D-07 Max=  8.2257386D-06 conv= 1.00D-05.
 RLE energy=       -0.5454144421
 DE(Corr)= -0.54541455     E(CORR)=     -152.57066177     Delta= 3.78D-07
 NORM(A)=   0.10636451D+01
 Iteration Nr.  10
 **********************
 DD1Dir will call FoFMem   1 times, MxPair=        72
 NAB=    36 NAA=     0 NBB=     0.
 A-vector RMS=  3.2121051D-07 Max=  2.8062515D-06 conv= 1.00D-05.
 RLE energy=       -0.5454149153
 DE(Corr)= -0.54541493     E(CORR)=     -152.57066215     Delta=-3.78D-07
 NORM(A)=   0.10636454D+01
 Iteration Nr.  11
 **********************
 DD1Dir will call FoFMem   1 times, MxPair=        72
 NAB=    36 NAA=     0 NBB=     0.
 A-vector RMS=  1.7883971D-07 Max=  1.8421930D-06 conv= 1.00D-05.
 RLE energy=       -0.5454150423
 DE(Corr)= -0.54541499     E(CORR)=     -152.57066221     Delta=-6.02D-08
 NORM(A)=   0.10636456D+01
 CI/CC converged in   11 iterations to DelEn=-6.02D-08 Conv= 1.00D-07 ErrA1= 1.79D-07 Conv= 1.00D-05
 Wavefunction amplitudes converged. E(Corr)=     -152.57066221    
 Largest amplitude= 3.82D-02
 IPart=  3 IA=    7   11.05% done.
 IPart=  4 IA=   13   21.46% done.
 IPart=  2 IA=   19   31.21% done.
 IPart=  3 IA=   25   40.32% done.
 IPart=  3 IA=   32   50.13% done.
 IPart=  3 IA=   40   60.27% done.
 IPart=  3 IA=   49   70.30% done.
 IPart=  4 IA=   60   80.58% done.
 IPart=  1 IA=   74   90.51% done.
 Time for triples=       53.39 seconds.
 T4(CCSD)= -0.17493829D-01
 T5(CCSD)=  0.48270800D-03
 CCSD(T)= -0.15258767333D+03
 Discarding MO integrals.
 Leave Link  913 at Fri Aug 26 15:15:15 2022, MaxMem=   536870912 cpu:              79.2 elap:              20.0
 (Enter /usr/site/hpc/x86_64/glibc-2.17/broadwell/gaussian/g16_a.03/pgi-16.5/g16/l601.exe)
 Copying SCF densities to generalized density rwf, IOpCl= 0 IROHF=0.

 **********************************************************************

            Population analysis using the SCF density.

 **********************************************************************

 Orbital symmetries:
       Occupied  (A') (A') (A') (A') (A') (A') (A") (A') (A') (A")
       Virtual   (A') (A') (A') (A') (A') (A') (A') (A') (A") (A')
                 (A") (A') (A') (A") (A") (A') (A') (A") (A') (A')
                 (A') (A") (A') (A') (A') (A') (A') (A") (A") (A')
                 (A") (A') (A') (A') (A') (A') (A") (A') (A') (A')
                 (A') (A') (A") (A') (A") (A") (A') (A") (A') (A')
                 (A') (A") (A") (A") (A') (A") (A') (A") (A') (A')
                 (A") (A') (A') (A") (A') (A') (A") (A') (A") (A')
                 (A') (A") (A') (A') (A') (A') (A') (A') (A') (A')
                 (A") (A") (A') (A") (A") (A') (A") (A") (A') (A")
                 (A") (A') (A') (A') (A") (A') (A') (A') (A') (A')
                 (A") (A') (A') (A') (A') (A')
 The electronic state is 1-A'.
 Alpha  occ. eigenvalues --  -20.62299 -20.43809  -1.44863  -1.24335  -0.81708
 Alpha  occ. eigenvalues --   -0.76989  -0.59164  -0.54042  -0.43983  -0.40750
 Alpha virt. eigenvalues --    0.10190   0.15930   0.21577   0.32157   0.48320
 Alpha virt. eigenvalues --    0.51502   0.61308   0.64062   0.70135   0.71273
 Alpha virt. eigenvalues --    0.78190   0.79369   0.81975   0.83478   0.89009
 Alpha virt. eigenvalues --    0.89979   0.96682   1.01315   1.09595   1.16046
 Alpha virt. eigenvalues --    1.22641   1.25048   1.35327   1.39106   1.50241
 Alpha virt. eigenvalues --    1.61447   1.61665   1.92885   1.98962   2.08116
 Alpha virt. eigenvalues --    2.10912   2.10934   2.19540   2.29013   2.34801
 Alpha virt. eigenvalues --    2.44028   2.48574   2.50293   2.66301   2.89006
 Alpha virt. eigenvalues --    3.09912   3.21121   3.26864   3.41035   3.42382
 Alpha virt. eigenvalues --    3.53348   3.55863   3.58252   3.66963   3.71274
 Alpha virt. eigenvalues --    3.74462   3.74858   3.87903   3.90304   3.98987
 Alpha virt. eigenvalues --    4.00988   4.02935   4.12303   4.16066   4.18929
 Alpha virt. eigenvalues --    4.21838   4.24629   4.29562   4.32272   4.42953
 Alpha virt. eigenvalues --    4.58284   4.60056   4.64264   4.72750   4.79796
 Alpha virt. eigenvalues --    4.92647   4.99235   5.02862   5.08801   5.38956
 Alpha virt. eigenvalues --    5.45543   5.59052   5.61319   5.76775   6.01636
 Alpha virt. eigenvalues --    6.04046   6.47446   6.69963   6.79476   6.82501
 Alpha virt. eigenvalues --    6.84235   6.90988   6.99875   7.06875   7.09152
 Alpha virt. eigenvalues --    7.15664   7.16399   7.25088   7.38236   7.43905
 Alpha virt. eigenvalues --    7.45528   7.60744   7.65903   7.80841   8.15925
 Alpha virt. eigenvalues --    8.17438   8.34855   8.68135   9.05257  12.91896
 Alpha virt. eigenvalues --   14.10728
          Condensed to atoms (all electrons):
               1          2          3          4          5          6
     1  O    8.126473   0.397289   0.339276  -0.221236   0.012194   0.014943
     2  H    0.397289   0.331730  -0.062742   0.075610  -0.010112  -0.004917
     3  H    0.339276  -0.062742   0.511813   0.020414  -0.000263   0.000103
     4  O   -0.221236   0.075610   0.020414   7.799942   0.301076   0.300534
     5  H    0.012194  -0.010112  -0.000263   0.301076   0.472107  -0.012078
     6  H    0.014943  -0.004917   0.000103   0.300534  -0.012078   0.457752
 Mulliken charges:
               1
     1  O   -0.668938
     2  H    0.273142
     3  H    0.191398
     4  O   -0.276340
     5  H    0.237075
     6  H    0.243663
 Sum of Mulliken charges =  -0.00000
 Mulliken charges with hydrogens summed into heavy atoms:
               1
     1  O   -0.204398
     4  O    0.204398
 Electronic spatial extent (au):  <R**2>=            116.1859
 Charge=             -0.0000 electrons
 Dipole moment (field-independent basis, Debye):
    X=             -1.8986    Y=             -5.0701    Z=             -0.0000  Tot=              5.4140
 Quadrupole moment (field-independent basis, Debye-Ang):
   XX=             -9.4083   YY=            -10.2879   ZZ=            -14.5259
   XY=             -2.5914   XZ=             -0.0000   YZ=             -0.0000
 Traceless Quadrupole moment (field-independent basis, Debye-Ang):
   XX=              1.9990   YY=              1.1195   ZZ=             -3.1185
   XY=             -2.5914   XZ=             -0.0000   YZ=             -0.0000
 Octapole moment (field-independent basis, Debye-Ang**2):
  XXX=             -2.4469  YYY=            -15.9004  ZZZ=             -0.0000  XYY=             -2.3578
  XXY=             -3.3647  XXZ=             -0.0000  XZZ=             -0.2046  YZZ=             -1.3342
  YYZ=             -0.0000  XYZ=             -0.0000
 Hexadecapole moment (field-independent basis, Debye-Ang**3):
 XXXX=            -11.7189 YYYY=            -85.7820 ZZZZ=            -11.2111 XXXY=              0.3836
 XXXZ=             -0.0000 YYYX=             -8.1785 YYYZ=             -0.0000 ZZZX=             -0.0000
 ZZZY=             -0.0000 XXYY=            -11.5150 XXZZ=             -4.4484 YYZZ=            -20.6285
 XXYZ=             -0.0000 YYXZ=             -0.0000 ZZXY=              0.4938
 N-N= 4.418946869771D+01 E-N=-4.501799206333D+02  KE= 1.523893220015D+02
 Symmetry A'   KE= 1.434278836821D+02
 Symmetry A"   KE= 8.961438319430D+00
 Leave Link  601 at Fri Aug 26 15:15:15 2022, MaxMem=   536870912 cpu:               0.2 elap:               0.1
 (Enter /usr/site/hpc/x86_64/glibc-2.17/broadwell/gaussian/g16_a.03/pgi-16.5/g16/l9999.exe)
 1\1\GINC-N041\SP\RCCSD(T)-FC\CC-pVTZ\H4O2\C7441284\26-Aug-2022\0\\#p C
 CSD(T)/cc-pVTZ\\H2O_H2O_10\\0,1\O,0,0.,-0.009833,0.\H,0,-0.799571,-0.5
 80965,0.\H,0,0.799571,-0.580965,0.\O,0,-1.666771,-1.194096,0.\H,0,-2.6
 48797,-1.160457,0.\H,0,-1.380111,-2.133954,0.\\Version=ES64L-G16RevA.0
 3\State=1-A'\HF=-152.0252472\MP2=-152.5622385\MP3=-152.5675784\MP4D=-1
 52.5763539\MP4DQ=-152.5680028\MP4SDQ=-152.5714154\CCSD=-152.5706622\CC
 SD(T)=-152.5876733\RMSD=3.604e-09\PG=CS [SG(H4O2)]\\@


 Everywhere is walking distance if you have the time.
                                    -- Steven Wright
 Job cpu time:       0 days  0 hours  1 minutes 34.0 seconds.
 Elapsed time:       0 days  0 hours  0 minutes 24.0 seconds.
 File lengths (MBytes):  RWF=    572 Int=      0 D2E=      0 Chk=      8 Scr=      8
 Normal termination of Gaussian 16 at Fri Aug 26 15:15:15 2022.
