 Entering Gaussian System, Link 0=g16
 Input=H2O_H2O_1348.com
 Output=H2O_H2O_1348.log
 Initial command:
 /usr/site/hpc/x86_64/glibc-2.17/broadwell/gaussian/g16_a.03/pgi-16.5/g16/l1.exe "/gpfs/gpfs1/scratch/c7441284/ForceFieldModel/FittingData2/Gau-147248.inp" -scrdir="/gpfs/gpfs1/scratch/c7441284/ForceFieldModel/FittingData2/"
 Entering Link 1 = /usr/site/hpc/x86_64/glibc-2.17/broadwell/gaussian/g16_a.03/pgi-16.5/g16/l1.exe PID=    147249.
  
 Copyright (c) 1988,1990,1992,1993,1995,1998,2003,2009,2016,
            Gaussian, Inc.  All Rights Reserved.
  
 This is part of the Gaussian(R) 16 program.  It is based on
 the Gaussian(R) 09 system (copyright 2009, Gaussian, Inc.),
 the Gaussian(R) 03 system (copyright 2003, Gaussian, Inc.),
 the Gaussian(R) 98 system (copyright 1998, Gaussian, Inc.),
 the Gaussian(R) 94 system (copyright 1995, Gaussian, Inc.),
 the Gaussian 92(TM) system (copyright 1992, Gaussian, Inc.),
 the Gaussian 90(TM) system (copyright 1990, Gaussian, Inc.),
 the Gaussian 88(TM) system (copyright 1988, Gaussian, Inc.),
 the Gaussian 86(TM) system (copyright 1986, Carnegie Mellon
 University), and the Gaussian 82(TM) system (copyright 1983,
 Carnegie Mellon University). Gaussian is a federally registered
 trademark of Gaussian, Inc.
  
 This software contains proprietary and confidential information,
 including trade secrets, belonging to Gaussian, Inc.
  
 This software is provided under written license and may be
 used, copied, transmitted, or stored only in accord with that
 written license.
  
 The following legend is applicable only to US Government
 contracts under FAR:
  
                    RESTRICTED RIGHTS LEGEND
  
 Use, reproduction and disclosure by the US Government is
 subject to restrictions as set forth in subparagraphs (a)
 and (c) of the Commercial Computer Software - Restricted
 Rights clause in FAR 52.227-19.
  
 Gaussian, Inc.
 340 Quinnipiac St., Bldg. 40, Wallingford CT 06492
  
  
 ---------------------------------------------------------------
 Warning -- This program may not be used in any manner that
 competes with the business of Gaussian, Inc. or will provide
 assistance to any competitor of Gaussian, Inc.  The licensee
 of this program is prohibited from giving any competitor of
 Gaussian, Inc. access to this program.  By using this program,
 the user acknowledges that Gaussian, Inc. is engaged in the
 business of creating and licensing software in the field of
 computational chemistry and represents and warrants to the
 licensee that it is not a competitor of Gaussian, Inc. and that
 it will not use this program in any manner prohibited above.
 ---------------------------------------------------------------
  

 Cite this work as:
 Gaussian 16, Revision A.03,
 M. J. Frisch, G. W. Trucks, H. B. Schlegel, G. E. Scuseria, 
 M. A. Robb, J. R. Cheeseman, G. Scalmani, V. Barone, 
 G. A. Petersson, H. Nakatsuji, X. Li, M. Caricato, A. V. Marenich, 
 J. Bloino, B. G. Janesko, R. Gomperts, B. Mennucci, H. P. Hratchian, 
 J. V. Ortiz, A. F. Izmaylov, J. L. Sonnenberg, D. Williams-Young, 
 F. Ding, F. Lipparini, F. Egidi, J. Goings, B. Peng, A. Petrone, 
 T. Henderson, D. Ranasinghe, V. G. Zakrzewski, J. Gao, N. Rega, 
 G. Zheng, W. Liang, M. Hada, M. Ehara, K. Toyota, R. Fukuda, 
 J. Hasegawa, M. Ishida, T. Nakajima, Y. Honda, O. Kitao, H. Nakai, 
 T. Vreven, K. Throssell, J. A. Montgomery, Jr., J. E. Peralta, 
 F. Ogliaro, M. J. Bearpark, J. J. Heyd, E. N. Brothers, K. N. Kudin, 
 V. N. Staroverov, T. A. Keith, R. Kobayashi, J. Normand, 
 K. Raghavachari, A. P. Rendell, J. C. Burant, S. S. Iyengar, 
 J. Tomasi, M. Cossi, J. M. Millam, M. Klene, C. Adamo, R. Cammi, 
 J. W. Ochterski, R. L. Martin, K. Morokuma, O. Farkas, 
 J. B. Foresman, and D. J. Fox, Gaussian, Inc., Wallingford CT, 2016.
 
 ******************************************
 Gaussian 16:  ES64L-G16RevA.03 25-Dec-2016
                27-Aug-2022 
 ******************************************
 %NProcShared=4
 Will use up to    4 processors via shared memory.
 %Mem=4GB
 %Chk=H2O_H2O_1348.chk
 ------------------
 #p CCSD(T)/cc-pVTZ
 ------------------
 1/38=1,172=1/1;
 2/12=2,17=6,18=5,40=1/2;
 3/5=16,6=1,11=9,25=1,30=1/1,2,3;
 4//1;
 5/5=2,38=5/2;
 8/6=4,9=120000,10=1/1,4;
 9/5=7,14=2/13;
 6/7=2,8=2,9=2,10=2/1;
 99/5=1,9=1/99;
 Leave Link    1 at Sat Aug 27 00:00:45 2022, MaxMem=   536870912 cpu:               0.9 elap:               0.3
 (Enter /usr/site/hpc/x86_64/glibc-2.17/broadwell/gaussian/g16_a.03/pgi-16.5/g16/l101.exe)
 ------------
 H2O_H2O_1348
 ------------
 Symbolic Z-matrix:
 Charge =  0 Multiplicity = 1
 O                     0.       -0.00983   0. 
 H                    -0.79957  -0.58097   0. 
 H                     0.79957  -0.58097   0. 
 O                    -2.53073  -1.80133   0. 
 H                    -3.15293  -1.04082   0. 
 H                    -3.04834  -2.63654   0. 
 
 ITRead=  0  0  0  0  0  0
 MicOpt= -1 -1 -1 -1 -1 -1
 NAtoms=      6 NQM=        6 NQMF=       0 NMMI=      0 NMMIF=      0
                NMic=       0 NMicF=      0.
                    Isotopes and Nuclear Properties:
 (Nuclear quadrupole moments (NQMom) in fm**2, nuclear magnetic moments (NMagM)
  in nuclear magnetons)

  Atom         1           2           3           4           5           6
 IAtWgt=          16           1           1          16           1           1
 AtmWgt=  15.9949146   1.0078250   1.0078250  15.9949146   1.0078250   1.0078250
 NucSpn=           0           1           1           0           1           1
 AtZEff=  -0.0000000  -0.0000000  -0.0000000  -0.0000000  -0.0000000  -0.0000000
 NQMom=    0.0000000   0.0000000   0.0000000   0.0000000   0.0000000   0.0000000
 NMagM=    0.0000000   2.7928460   2.7928460   0.0000000   2.7928460   2.7928460
 AtZNuc=   8.0000000   1.0000000   1.0000000   8.0000000   1.0000000   1.0000000
 Leave Link  101 at Sat Aug 27 00:00:45 2022, MaxMem=   536870912 cpu:               0.7 elap:               0.2
 (Enter /usr/site/hpc/x86_64/glibc-2.17/broadwell/gaussian/g16_a.03/pgi-16.5/g16/l202.exe)
                          Input orientation:                          
 ---------------------------------------------------------------------
 Center     Atomic      Atomic             Coordinates (Angstroms)
 Number     Number       Type             X           Y           Z
 ---------------------------------------------------------------------
      1          8           0        0.000000   -0.009833    0.000000
      2          1           0       -0.799571   -0.580965    0.000000
      3          1           0        0.799571   -0.580965    0.000000
      4          8           0       -2.530729   -1.801328    0.000000
      5          1           0       -3.152932   -1.040822    0.000000
      6          1           0       -3.048343   -2.636541    0.000000
 ---------------------------------------------------------------------
                    Distance matrix (angstroms):
                    1          2          3          4          5
     1  O    0.000000
     2  H    0.982601   0.000000
     3  H    0.982601   1.599142   0.000000
     4  O    3.100652   2.118064   3.546856   0.000000
     5  H    3.317215   2.397869   3.979164   0.982602   0.000000
     6  H    4.023927   3.046698   4.362549   0.982601   1.599143
                    6
     6  H    0.000000
 Stoichiometry    H4O2
 Framework group  CS[SG(H4O2)]
 Deg. of freedom     9
 Full point group                 CS      NOp   2
 Largest Abelian subgroup         CS      NOp   2
 Largest concise Abelian subgroup C1      NOp   1
                         Standard orientation:                         
 ---------------------------------------------------------------------
 Center     Atomic      Atomic             Coordinates (Angstroms)
 Number     Number       Type             X           Y           Z
 ---------------------------------------------------------------------
      1          8           0       -0.016736    1.631999    0.000000
      2          1           0       -0.012558    0.649406    0.000000
      3          1           0        0.911394    1.954614    0.000000
      4          8           0       -0.016736   -1.468653    0.000000
      5          1           0       -0.996952   -1.537086    0.000000
      6          1           0        0.365892   -2.373696    0.000000
 ---------------------------------------------------------------------
 Rotational constants (GHZ):         264.0636625           5.6494183           5.5310854
 Leave Link  202 at Sat Aug 27 00:00:45 2022, MaxMem=   536870912 cpu:               0.0 elap:               0.0
 (Enter /usr/site/hpc/x86_64/glibc-2.17/broadwell/gaussian/g16_a.03/pgi-16.5/g16/l301.exe)
 Standard basis: CC-pVTZ (5D, 7F)
 Ernie: Thresh=  0.10000D-02 Tol=  0.10000D-05 Strict=F.
 Ernie:  6 primitive shells out of 84 were deleted.
 There are    92 symmetry adapted cartesian basis functions of A'  symmetry.
 There are    38 symmetry adapted cartesian basis functions of A"  symmetry.
 There are    80 symmetry adapted basis functions of A'  symmetry.
 There are    36 symmetry adapted basis functions of A"  symmetry.
   116 basis functions,   172 primitive gaussians,   130 cartesian basis functions
    10 alpha electrons       10 beta electrons
       nuclear repulsion energy        34.9871965904 Hartrees.
 IExCor=    0 DFT=F Ex=HF Corr=None ExCW=0 ScaHFX=  1.000000
 ScaDFX=  1.000000  1.000000  1.000000  1.000000 ScalE2=  1.000000  1.000000
 IRadAn=      5 IRanWt=     -1 IRanGd=            0 ICorTp=0 IEmpDi=  4
 NAtoms=    6 NActive=    6 NUniq=    6 SFac= 1.00D+00 NAtFMM=   60 NAOKFM=F Big=F
 Integral buffers will be    131072 words long.
 Raffenetti 1 integral format.
 Two-electron integral symmetry is turned on.
 Leave Link  301 at Sat Aug 27 00:00:45 2022, MaxMem=   536870912 cpu:               0.2 elap:               0.0
 (Enter /usr/site/hpc/x86_64/glibc-2.17/broadwell/gaussian/g16_a.03/pgi-16.5/g16/l302.exe)
 NPDir=0 NMtPBC=     1 NCelOv=     1 NCel=       1 NClECP=     1 NCelD=      1
         NCelK=      1 NCelE2=     1 NClLst=     1 CellRange=     0.0.
 One-electron integrals computed using PRISM.
 One-electron integral symmetry used in STVInt
 NBasis=   116 RedAO= T EigKep=  2.13D-03  NBF=    80    36
 NBsUse=   116 1.00D-06 EigRej= -1.00D+00 NBFU=    80    36
 Leave Link  302 at Sat Aug 27 00:00:45 2022, MaxMem=   536870912 cpu:               0.5 elap:               0.1
 (Enter /usr/site/hpc/x86_64/glibc-2.17/broadwell/gaussian/g16_a.03/pgi-16.5/g16/l303.exe)
 DipDrv:  MaxL=1.
 Leave Link  303 at Sat Aug 27 00:00:45 2022, MaxMem=   536870912 cpu:               0.1 elap:               0.0
 (Enter /usr/site/hpc/x86_64/glibc-2.17/broadwell/gaussian/g16_a.03/pgi-16.5/g16/l401.exe)
 ExpMin= 1.03D-01 ExpMax= 1.53D+04 ExpMxC= 5.22D+02 IAcc=3 IRadAn=         5 AccDes= 0.00D+00
 Harris functional with IExCor=  205 and IRadAn=       5 diagonalized for initial guess.
 HarFok:  IExCor=  205 AccDes= 0.00D+00 IRadAn=         5 IDoV= 1 UseB2=F ITyADJ=14
 ICtDFT=  3500011 ScaDFX=  1.000000  1.000000  1.000000  1.000000
 FoFCou: FMM=F IPFlag=           0 FMFlag=      100000 FMFlg1=           0
         NFxFlg=           0 DoJE=T BraDBF=F KetDBF=T FulRan=T
         wScrn=  0.000000 ICntrl=       500 IOpCl=  0 I1Cent=   200000004 NGrid=           0
         NMat0=    1 NMatS0=      1 NMatT0=    0 NMatD0=    1 NMtDS0=    0 NMtDT0=    0
 Petite list used in FoFCou.
 Harris En= -152.302440548139    
 JPrj=0 DoOrth=F DoCkMO=F.
 Initial guess orbital symmetries:
       Occupied  (A') (A') (A') (A') (A') (A') (A') (A') (A") (A")
       Virtual   (A') (A') (A') (A') (A') (A') (A') (A') (A') (A")
                 (A') (A") (A') (A') (A") (A") (A') (A') (A") (A")
                 (A') (A') (A') (A') (A') (A') (A') (A') (A") (A")
                 (A") (A") (A') (A') (A') (A') (A') (A') (A') (A')
                 (A') (A') (A") (A") (A') (A") (A') (A") (A") (A")
                 (A') (A') (A') (A') (A') (A") (A") (A') (A') (A')
                 (A") (A') (A") (A') (A") (A") (A') (A') (A') (A")
                 (A') (A") (A') (A') (A') (A') (A') (A') (A') (A')
                 (A") (A") (A') (A') (A") (A") (A") (A") (A') (A")
                 (A") (A') (A') (A') (A') (A') (A") (A") (A') (A')
                 (A') (A') (A') (A') (A') (A')
 The electronic state of the initial guess is 1-A'.
 Leave Link  401 at Sat Aug 27 00:00:45 2022, MaxMem=   536870912 cpu:               0.8 elap:               0.2
 (Enter /usr/site/hpc/x86_64/glibc-2.17/broadwell/gaussian/g16_a.03/pgi-16.5/g16/l502.exe)
 Keep R1 ints in memory in symmetry-blocked form, NReq=34823457.
 FoFCou: FMM=F IPFlag=           0 FMFlag=           0 FMFlg1=           0
         NFxFlg=           0 DoJE=F BraDBF=F KetDBF=F FulRan=T
         wScrn=  0.000000 ICntrl=       600 IOpCl=  0 I1Cent=           0 NGrid=           0
         NMat0=    1 NMatS0=   6786 NMatT0=    0 NMatD0=    1 NMtDS0=    0 NMtDT0=    0
 Petite list used in FoFCou.
 Closed shell SCF:
 Using DIIS extrapolation, IDIIS=  1040.
 NGot=   536870912 LenX=   525040673 LenY=   525023332
 Requested convergence on RMS density matrix=1.00D-08 within 128 cycles.
 Requested convergence on MAX density matrix=1.00D-06.
 Requested convergence on             energy=1.00D-06.
 No special actions if energy rises.

 Cycle   1  Pass 1  IDiag  1:
 E= -151.943637111943    
 DIIS: error= 6.06D-02 at cycle   1 NSaved=   1.
 NSaved= 1 IEnMin= 1 EnMin= -151.943637111943     IErMin= 1 ErrMin= 6.06D-02
 ErrMax= 6.06D-02  0.00D+00 EMaxC= 1.00D-01 BMatC= 3.88D-01 BMatP= 3.88D-01
 IDIUse=3 WtCom= 3.94D-01 WtEn= 6.06D-01
 Coeff-Com:  0.100D+01
 Coeff-En:   0.100D+01
 Coeff:      0.100D+01
 Gap=     0.504 Goal=   None    Shift=    0.000
 GapD=    0.504 DampG=2.000 DampE=0.500 DampFc=1.0000 IDamp=-1.
 RMSDP=2.57D-03 MaxDP=7.06D-02              OVMax= 1.20D-01

 Cycle   2  Pass 1  IDiag  1:
 E= -152.051263971848     Delta-E=       -0.107626859904 Rises=F Damp=F
 DIIS: error= 3.69D-02 at cycle   2 NSaved=   2.
 NSaved= 2 IEnMin= 2 EnMin= -152.051263971848     IErMin= 2 ErrMin= 3.69D-02
 ErrMax= 3.69D-02  0.00D+00 EMaxC= 1.00D-01 BMatC= 1.03D-01 BMatP= 3.88D-01
 IDIUse=3 WtCom= 6.31D-01 WtEn= 3.69D-01
 Coeff-Com:  0.310D+00 0.690D+00
 Coeff-En:   0.147D+00 0.853D+00
 Coeff:      0.250D+00 0.750D+00
 Gap=     0.621 Goal=   None    Shift=    0.000
 RMSDP=1.37D-03 MaxDP=4.02D-02 DE=-1.08D-01 OVMax= 5.58D-02

 Cycle   3  Pass 1  IDiag  1:
 E= -152.109780799038     Delta-E=       -0.058516827190 Rises=F Damp=F
 DIIS: error= 8.28D-03 at cycle   3 NSaved=   3.
 NSaved= 3 IEnMin= 3 EnMin= -152.109780799038     IErMin= 3 ErrMin= 8.28D-03
 ErrMax= 8.28D-03  0.00D+00 EMaxC= 1.00D-01 BMatC= 5.62D-03 BMatP= 1.03D-01
 IDIUse=3 WtCom= 9.17D-01 WtEn= 8.28D-02
 Coeff-Com: -0.300D-01 0.158D+00 0.872D+00
 Coeff-En:   0.000D+00 0.000D+00 0.100D+01
 Coeff:     -0.275D-01 0.145D+00 0.883D+00
 Gap=     0.594 Goal=   None    Shift=    0.000
 RMSDP=2.46D-04 MaxDP=6.12D-03 DE=-5.85D-02 OVMax= 1.27D-02

 Cycle   4  Pass 1  IDiag  1:
 E= -152.113252140285     Delta-E=       -0.003471341247 Rises=F Damp=F
 DIIS: error= 7.22D-04 at cycle   4 NSaved=   4.
 NSaved= 4 IEnMin= 4 EnMin= -152.113252140285     IErMin= 4 ErrMin= 7.22D-04
 ErrMax= 7.22D-04  0.00D+00 EMaxC= 1.00D-01 BMatC= 3.17D-05 BMatP= 5.62D-03
 IDIUse=3 WtCom= 9.93D-01 WtEn= 7.22D-03
 Coeff-Com:  0.687D-02-0.613D-01-0.244D+00 0.130D+01
 Coeff-En:   0.000D+00 0.000D+00 0.000D+00 0.100D+01
 Coeff:      0.682D-02-0.608D-01-0.243D+00 0.130D+01
 Gap=     0.596 Goal=   None    Shift=    0.000
 RMSDP=5.32D-05 MaxDP=9.87D-04 DE=-3.47D-03 OVMax= 2.59D-03

 Cycle   5  Pass 1  IDiag  1:
 E= -152.113299588528     Delta-E=       -0.000047448243 Rises=F Damp=F
 DIIS: error= 1.82D-04 at cycle   5 NSaved=   5.
 NSaved= 5 IEnMin= 5 EnMin= -152.113299588528     IErMin= 5 ErrMin= 1.82D-04
 ErrMax= 1.82D-04  0.00D+00 EMaxC= 1.00D-01 BMatC= 1.52D-06 BMatP= 3.17D-05
 IDIUse=3 WtCom= 9.98D-01 WtEn= 1.82D-03
 Coeff-Com:  0.133D-02-0.694D-02-0.319D-01-0.642D-01 0.110D+01
 Coeff-En:   0.000D+00 0.000D+00 0.000D+00 0.000D+00 0.100D+01
 Coeff:      0.133D-02-0.693D-02-0.319D-01-0.640D-01 0.110D+01
 Gap=     0.597 Goal=   None    Shift=    0.000
 RMSDP=1.39D-05 MaxDP=3.36D-04 DE=-4.74D-05 OVMax= 6.88D-04

 Cycle   6  Pass 1  IDiag  1:
 E= -152.113302291950     Delta-E=       -0.000002703422 Rises=F Damp=F
 DIIS: error= 5.58D-05 at cycle   6 NSaved=   6.
 NSaved= 6 IEnMin= 6 EnMin= -152.113302291950     IErMin= 6 ErrMin= 5.58D-05
 ErrMax= 5.58D-05  0.00D+00 EMaxC= 1.00D-01 BMatC= 2.00D-07 BMatP= 1.52D-06
 IDIUse=1 WtCom= 1.00D+00 WtEn= 0.00D+00
 Coeff-Com: -0.101D-03 0.243D-02 0.907D-02-0.121D+00 0.323D+00 0.787D+00
 Coeff:     -0.101D-03 0.243D-02 0.907D-02-0.121D+00 0.323D+00 0.787D+00
 Gap=     0.597 Goal=   None    Shift=    0.000
 RMSDP=3.24D-06 MaxDP=8.91D-05 DE=-2.70D-06 OVMax= 1.83D-04

 Cycle   7  Pass 1  IDiag  1:
 E= -152.113302513336     Delta-E=       -0.000000221386 Rises=F Damp=F
 DIIS: error= 1.06D-05 at cycle   7 NSaved=   7.
 NSaved= 7 IEnMin= 7 EnMin= -152.113302513336     IErMin= 7 ErrMin= 1.06D-05
 ErrMax= 1.06D-05  0.00D+00 EMaxC= 1.00D-01 BMatC= 7.91D-09 BMatP= 2.00D-07
 IDIUse=1 WtCom= 1.00D+00 WtEn= 0.00D+00
 Coeff-Com: -0.940D-04 0.347D-03 0.151D-02 0.144D-01-0.125D+00-0.664D-01
 Coeff-Com:  0.118D+01
 Coeff:     -0.940D-04 0.347D-03 0.151D-02 0.144D-01-0.125D+00-0.664D-01
 Coeff:      0.118D+01
 Gap=     0.597 Goal=   None    Shift=    0.000
 RMSDP=1.42D-06 MaxDP=3.84D-05 DE=-2.21D-07 OVMax= 6.88D-05

 Cycle   8  Pass 1  IDiag  1:
 E= -152.113302532443     Delta-E=       -0.000000019107 Rises=F Damp=F
 DIIS: error= 1.88D-06 at cycle   8 NSaved=   8.
 NSaved= 8 IEnMin= 8 EnMin= -152.113302532443     IErMin= 8 ErrMin= 1.88D-06
 ErrMax= 1.88D-06  0.00D+00 EMaxC= 1.00D-01 BMatC= 3.80D-10 BMatP= 7.91D-09
 IDIUse=1 WtCom= 1.00D+00 WtEn= 0.00D+00
 Coeff-Com:  0.249D-04-0.216D-03-0.883D-03 0.430D-02 0.850D-02-0.270D-01
 Coeff-Com: -0.217D+00 0.123D+01
 Coeff:      0.249D-04-0.216D-03-0.883D-03 0.430D-02 0.850D-02-0.270D-01
 Coeff:     -0.217D+00 0.123D+01
 Gap=     0.597 Goal=   None    Shift=    0.000
 RMSDP=2.18D-07 MaxDP=3.99D-06 DE=-1.91D-08 OVMax= 1.40D-05

 Cycle   9  Pass 1  IDiag  1:
 E= -152.113302533315     Delta-E=       -0.000000000872 Rises=F Damp=F
 DIIS: error= 6.32D-07 at cycle   9 NSaved=   9.
 NSaved= 9 IEnMin= 9 EnMin= -152.113302533315     IErMin= 9 ErrMin= 6.32D-07
 ErrMax= 6.32D-07  0.00D+00 EMaxC= 1.00D-01 BMatC= 2.25D-11 BMatP= 3.80D-10
 IDIUse=1 WtCom= 1.00D+00 WtEn= 0.00D+00
 Coeff-Com:  0.129D-05 0.231D-04 0.109D-03-0.222D-02 0.747D-02 0.119D-01
 Coeff-Com: -0.364D-01-0.253D+00 0.127D+01
 Coeff:      0.129D-05 0.231D-04 0.109D-03-0.222D-02 0.747D-02 0.119D-01
 Coeff:     -0.364D-01-0.253D+00 0.127D+01
 Gap=     0.597 Goal=   None    Shift=    0.000
 RMSDP=5.37D-08 MaxDP=7.78D-07 DE=-8.72D-10 OVMax= 3.12D-06

 Cycle  10  Pass 1  IDiag  1:
 E= -152.113302533364     Delta-E=       -0.000000000049 Rises=F Damp=F
 DIIS: error= 6.28D-08 at cycle  10 NSaved=  10.
 NSaved=10 IEnMin=10 EnMin= -152.113302533364     IErMin=10 ErrMin= 6.28D-08
 ErrMax= 6.28D-08  0.00D+00 EMaxC= 1.00D-01 BMatC= 4.07D-13 BMatP= 2.25D-11
 IDIUse=1 WtCom= 1.00D+00 WtEn= 0.00D+00
 Coeff-Com: -0.658D-06 0.252D-05 0.787D-05 0.116D-03-0.747D-03-0.594D-03
 Coeff-Com:  0.616D-02 0.132D-01-0.180D+00 0.116D+01
 Coeff:     -0.658D-06 0.252D-05 0.787D-05 0.116D-03-0.747D-03-0.594D-03
 Coeff:      0.616D-02 0.132D-01-0.180D+00 0.116D+01
 Gap=     0.597 Goal=   None    Shift=    0.000
 RMSDP=6.28D-09 MaxDP=1.16D-07 DE=-4.88D-11 OVMax= 3.57D-07

 SCF Done:  E(RHF) =  -152.113302533     A.U. after   10 cycles
            NFock= 10  Conv=0.63D-08     -V/T= 2.0021
 KE= 1.518017545074D+02 PE=-4.313769433019D+02 EE= 9.247468967077D+01
 Leave Link  502 at Sat Aug 27 00:00:47 2022, MaxMem=   536870912 cpu:               4.5 elap:               1.2
 (Enter /usr/site/hpc/x86_64/glibc-2.17/broadwell/gaussian/g16_a.03/pgi-16.5/g16/l801.exe)
 Windowed orbitals will be sorted by symmetry type.
 ExpMin= 1.03D-01 ExpMax= 1.53D+04 ExpMxC= 5.22D+02 IAcc=3 IRadAn=         5 AccDes= 0.00D+00
 HarFok:  IExCor=  205 AccDes= 0.00D+00 IRadAn=         5 IDoV=-2 UseB2=F ITyADJ=14
 ICtDFT= 12500011 ScaDFX=  1.000000  1.000000  1.000000  1.000000
 Largest valence mixing into a core orbital is  1.11D-04
 Largest core mixing into a valence orbital is  1.77D-05
 Range of M.O.s used for correlation:     3   116
 NBasis=   116 NAE=    10 NBE=    10 NFC=     2 NFV=     0
 NROrb=    114 NOA=     8 NOB=     8 NVA=   106 NVB=   106
 Leave Link  801 at Sat Aug 27 00:00:47 2022, MaxMem=   536870912 cpu:               0.5 elap:               0.1
 (Enter /usr/site/hpc/x86_64/glibc-2.17/broadwell/gaussian/g16_a.03/pgi-16.5/g16/l804.exe)
 Closed-shell transformation, MDV=   536870912 ITran=4 ISComp=2.
 Unit  1 TFree=        834515 TCopy=        406125.
 Semi-Direct transformation.
 ModeAB=           4 MOrb=             8 LenV=     536363646
 LASXX=      2873146 LTotXX=     2873146 LenRXX=     5831278
 LTotAB=     2958132 MaxLAS=     7594224 LenRXY=           0
 NonZer=     8704424 LenScr=    13107200 LnRSAI=     7594224
 LnScr1=    11534336 LExtra=           0 Total=     38067038
 MaxDsk=          -1 SrtSym=           T ITran=            4
 DoSDTr:  NPSUse=  4
 JobTyp=0 Pass  1:  I=   1 to   8.
 (rs|ai) integrals will be sorted in core.
 Complete sort for first half transformation.
 First half transformation complete.
 Complete sort for second half transformation.
 Second half transformation complete.
 Spin components of T(2) and E(2):
     alpha-alpha T2 =       0.1569572333D-01 E2=     -0.6428141964D-01
     alpha-beta  T2 =       0.9186665473D-01 E2=     -0.3988886495D+00
     beta-beta   T2 =       0.1569572333D-01 E2=     -0.6428141964D-01
 ANorm=    0.1059838715D+01
 E2 =    -0.5274514888D+00 EUMP2 =    -0.15264075402216D+03
 Leave Link  804 at Sat Aug 27 00:00:48 2022, MaxMem=   536870912 cpu:               5.7 elap:               1.5
 (Enter /usr/site/hpc/x86_64/glibc-2.17/broadwell/gaussian/g16_a.03/pgi-16.5/g16/l913.exe)
 CIDS:  MDV=   536870912.
 Frozen-core window:  NFC=   2 NFV=   0.
 IFCWin=0 IBDFC=1 NFBD=     0     0 NFCmp=     0     0 NFFFC=     0     0
 Using DD3R+UMP44R for 1st iteration.
 Using DD4RQ for 2nd and later iterations.
 Keep R2 and R3 ints in memory in symmetry-blocked form, NReq=35357534.
 FoFCou: FMM=F IPFlag=           0 FMFlag=           0 FMFlg1=           0
         NFxFlg=           0 DoJE=F BraDBF=F KetDBF=F FulRan=T
         wScrn=  0.000000 ICntrl=       600 IOpCl=  0 I1Cent=           0 NGrid=           0
         NMat0=    1 NMatS0=   6786 NMatT0=    0 NMatD0=    1 NMtDS0=    0 NMtDT0=    0
 Petite list used in FoFCou.
 CIDS: In Core Option IDoMem=           1.
 CCSD(T)
 =======
 Iterations=  50 Convergence= 0.100D-06
 Produce multiple copies of IABC intergrals
 Iteration Nr.   1
 **********************
 DD1Dir will call FoFMem   1 times, MxPair=        72
 NAB=    36 NAA=     0 NBB=     0.
 MP4(R+Q)=  0.76668220D-02
 Maximum subspace dimension=  5
 A-vector RMS=  1.8036934D-03 Max=  5.6610506D-03 conv= 1.00D-05.
 RLE energy=       -0.5269427709
 E3=       -0.72247670D-02        EUMP3=      -0.15264797879D+03
 E4(DQ)=   -0.13858985D-02        UMP4(DQ)=   -0.15264936469D+03
 E4(SDQ)=  -0.45051396D-02        UMP4(SDQ)=  -0.15265248393D+03
 VARIATIONAL ENERGIES WITH THE FIRST-ORDER WAVEFUNCTION:
 DE(Corr)= -0.52694229     E(Corr)=     -152.64024482    
 NORM(A)=   0.10600657D+01
 Iteration Nr.   2
 **********************
 DD1Dir will call FoFMem   1 times, MxPair=        72
 NAB=    36 NAA=     0 NBB=     0.
 A-vector RMS=  2.1243439D-04 Max=  1.8109384D-03 conv= 1.00D-05.
 RLE energy=       -0.5379785856
 DE(Corr)= -0.53687068     E(CORR)=     -152.65017321     Delta=-9.93D-03
 NORM(A)=   0.10637942D+01
 Iteration Nr.   3
 **********************
 DD1Dir will call FoFMem   1 times, MxPair=        72
 NAB=    36 NAA=     0 NBB=     0.
 A-vector RMS=  1.5564307D-04 Max=  8.3388940D-04 conv= 1.00D-05.
 RLE energy=       -0.5384685507
 DE(Corr)= -0.53788232     E(CORR)=     -152.65118485     Delta=-1.01D-03
 NORM(A)=   0.10644186D+01
 Iteration Nr.   4
 **********************
 DD1Dir will call FoFMem   1 times, MxPair=        72
 NAB=    36 NAA=     0 NBB=     0.
 A-vector RMS=  3.1185245D-05 Max=  1.3236864D-04 conv= 1.00D-05.
 RLE energy=       -0.5385466126
 DE(Corr)= -0.53851340     E(CORR)=     -152.65181593     Delta=-6.31D-04
 NORM(A)=   0.10645287D+01
 Iteration Nr.   5
 **********************
 DD1Dir will call FoFMem   1 times, MxPair=        72
 NAB=    36 NAA=     0 NBB=     0.
 A-vector RMS=  1.8720156D-05 Max=  1.7291179D-04 conv= 1.00D-05.
 RLE energy=       -0.5385591997
 DE(Corr)= -0.53855182     E(CORR)=     -152.65185435     Delta=-3.84D-05
 NORM(A)=   0.10645406D+01
 Iteration Nr.   6
 **********************
 DD1Dir will call FoFMem   1 times, MxPair=        72
 NAB=    36 NAA=     0 NBB=     0.
 A-vector RMS=  5.7118974D-06 Max=  4.5147875D-05 conv= 1.00D-05.
 RLE energy=       -0.5385517670
 DE(Corr)= -0.53855557     E(CORR)=     -152.65185810     Delta=-3.75D-06
 NORM(A)=   0.10645400D+01
 Iteration Nr.   7
 **********************
 DD1Dir will call FoFMem   1 times, MxPair=        72
 NAB=    36 NAA=     0 NBB=     0.
 A-vector RMS=  2.7172361D-06 Max=  2.8044534D-05 conv= 1.00D-05.
 RLE energy=       -0.5385548018
 DE(Corr)= -0.53855578     E(CORR)=     -152.65185831     Delta=-2.05D-07
 NORM(A)=   0.10645413D+01
 Iteration Nr.   8
 **********************
 DD1Dir will call FoFMem   1 times, MxPair=        72
 NAB=    36 NAA=     0 NBB=     0.
 A-vector RMS=  1.0739898D-06 Max=  9.0181745D-06 conv= 1.00D-05.
 RLE energy=       -0.5385551420
 DE(Corr)= -0.53855537     E(CORR)=     -152.65185791     Delta= 4.03D-07
 NORM(A)=   0.10645416D+01
 Iteration Nr.   9
 **********************
 DD1Dir will call FoFMem   1 times, MxPair=        72
 NAB=    36 NAA=     0 NBB=     0.
 A-vector RMS=  2.6630693D-07 Max=  2.9898856D-06 conv= 1.00D-05.
 RLE energy=       -0.5385553563
 DE(Corr)= -0.53855543     E(CORR)=     -152.65185796     Delta=-5.49D-08
 NORM(A)=   0.10645420D+01
 CI/CC converged in    9 iterations to DelEn=-5.49D-08 Conv= 1.00D-07 ErrA1= 2.66D-07 Conv= 1.00D-05
 Wavefunction amplitudes converged. E(Corr)=     -152.65185796    
 Largest amplitude= 3.85D-02
 IPart=  2 IA=    7   11.05% done.
 IPart=  2 IA=   13   21.46% done.
 IPart=  4 IA=   19   31.21% done.
 IPart=  4 IA=   25   40.32% done.
 IPart=  4 IA=   32   50.13% done.
 IPart=  4 IA=   40   60.27% done.
 IPart=  4 IA=   49   70.30% done.
 IPart=  2 IA=   60   80.58% done.
 IPart=  3 IA=   74   90.51% done.
 Time for triples=       54.00 seconds.
 T4(CCSD)= -0.16291999D-01
 T5(CCSD)=  0.41331834D-03
 CCSD(T)= -0.15266773664D+03
 Discarding MO integrals.
 Leave Link  913 at Sat Aug 27 00:01:09 2022, MaxMem=   536870912 cpu:              80.0 elap:              20.2
 (Enter /usr/site/hpc/x86_64/glibc-2.17/broadwell/gaussian/g16_a.03/pgi-16.5/g16/l601.exe)
 Copying SCF densities to generalized density rwf, IOpCl= 0 IROHF=0.

 **********************************************************************

            Population analysis using the SCF density.

 **********************************************************************

 Orbital symmetries:
       Occupied  (A') (A') (A') (A') (A') (A') (A') (A') (A") (A")
       Virtual   (A') (A') (A') (A') (A') (A') (A') (A') (A') (A")
                 (A') (A') (A") (A") (A') (A") (A') (A") (A') (A")
                 (A') (A') (A') (A') (A') (A') (A') (A') (A") (A")
                 (A") (A') (A") (A') (A') (A') (A') (A') (A') (A')
                 (A') (A') (A") (A") (A') (A") (A') (A") (A') (A')
                 (A") (A") (A') (A') (A') (A") (A") (A') (A") (A")
                 (A') (A') (A') (A") (A") (A') (A') (A') (A') (A')
                 (A") (A") (A') (A') (A') (A') (A') (A') (A') (A')
                 (A") (A") (A') (A') (A") (A") (A") (A") (A') (A")
                 (A") (A') (A') (A') (A') (A") (A') (A") (A') (A')
                 (A') (A') (A') (A') (A') (A')
 The electronic state is 1-A'.
 Alpha  occ. eigenvalues --  -20.58097 -20.52986  -1.35465  -1.30467  -0.72971
 Alpha  occ. eigenvalues --   -0.68105  -0.59286  -0.53737  -0.52560  -0.47616
 Alpha virt. eigenvalues --    0.12122   0.17735   0.19075   0.29870   0.50224
 Alpha virt. eigenvalues --    0.54520   0.55649   0.61338   0.68740   0.73576
 Alpha virt. eigenvalues --    0.74079   0.76914   0.81598   0.82493   0.84309
 Alpha virt. eigenvalues --    0.87166   0.88666   0.94910   0.97211   1.05582
 Alpha virt. eigenvalues --    1.10795   1.20984   1.23072   1.25703   1.49034
 Alpha virt. eigenvalues --    1.51234   1.54657   1.89807   1.97072   2.02098
 Alpha virt. eigenvalues --    2.05112   2.08460   2.11906   2.14652   2.16260
 Alpha virt. eigenvalues --    2.22388   2.26284   2.37904   2.60974   2.65186
 Alpha virt. eigenvalues --    2.92959   3.01861   3.37036   3.41925   3.48630
 Alpha virt. eigenvalues --    3.50822   3.52469   3.55828   3.57623   3.62301
 Alpha virt. eigenvalues --    3.76158   3.80974   3.82102   3.83542   3.89709
 Alpha virt. eigenvalues --    3.91370   3.95741   3.96970   4.03083   4.06272
 Alpha virt. eigenvalues --    4.07370   4.12551   4.14673   4.28166   4.32810
 Alpha virt. eigenvalues --    4.36353   4.41968   4.43655   4.46944   4.56002
 Alpha virt. eigenvalues --    4.65076   4.68976   4.83079   4.84714   5.03405
 Alpha virt. eigenvalues --    5.06877   5.25298   5.33876   5.53440   5.59421
 Alpha virt. eigenvalues --    5.95272   6.00260   6.38316   6.45105   6.83475
 Alpha virt. eigenvalues --    6.86811   6.88639   6.92230   6.93015   6.97007
 Alpha virt. eigenvalues --    7.01778   7.06498   7.08655   7.11353   7.15314
 Alpha virt. eigenvalues --    7.15913   7.20761   7.20810   7.47135   7.52489
 Alpha virt. eigenvalues --    7.72083   7.74670   8.18102   8.19784  12.56364
 Alpha virt. eigenvalues --   12.93596
          Condensed to atoms (all electrons):
               1          2          3          4          5          6
     1  O    7.856166   0.352281   0.347267  -0.006295   0.000825   0.000256
     2  H    0.352281   0.390039  -0.038773   0.022979  -0.003815  -0.001367
     3  H    0.347267  -0.038773   0.439224  -0.000274   0.000074   0.000046
     4  O   -0.006295   0.022979  -0.000274   7.839943   0.316114   0.320490
     5  H    0.000825  -0.003815   0.000074   0.316114   0.444316  -0.020753
     6  H    0.000256  -0.001367   0.000046   0.320490  -0.020753   0.452208
 Mulliken charges:
               1
     1  O   -0.550499
     2  H    0.278657
     3  H    0.252436
     4  O   -0.492956
     5  H    0.263241
     6  H    0.249121
 Sum of Mulliken charges =  -0.00000
 Mulliken charges with hydrogens summed into heavy atoms:
               1
     1  O   -0.019406
     4  O    0.019406
 Electronic spatial extent (au):  <R**2>=            212.8621
 Charge=             -0.0000 electrons
 Dipole moment (field-independent basis, Debye):
    X=              0.5707    Y=             -3.2627    Z=              0.0000  Tot=              3.3123
 Quadrupole moment (field-independent basis, Debye-Ang):
   XX=             -9.5411   YY=             -8.5949   ZZ=            -14.7285
   XY=              4.2700   XZ=              0.0000   YZ=              0.0000
 Traceless Quadrupole moment (field-independent basis, Debye-Ang):
   XX=              1.4137   YY=              2.3599   ZZ=             -3.7737
   XY=              4.2700   XZ=              0.0000   YZ=              0.0000
 Octapole moment (field-independent basis, Debye-Ang**2):
  XXX=             -0.2954  YYY=            -23.0331  ZZZ=              0.0000  XYY=              8.1977
  XXY=             -1.3221  XXZ=              0.0000  XZZ=              0.0765  YZZ=             -0.5561
  YYZ=              0.0000  XYZ=              0.0000
 Hexadecapole moment (field-independent basis, Debye-Ang**3):
 XXXX=            -10.5306 YYYY=           -154.7330 ZZZZ=            -11.3853 XXXY=              2.8127
 XXXZ=              0.0000 YYYX=              5.7605 YYYZ=              0.0000 ZZZX=              0.0000
 ZZZY=              0.0000 XXYY=            -24.9252 XXZZ=             -4.4277 YYZZ=            -40.2891
 XXYZ=              0.0000 YYXZ=              0.0000 ZZXY=             -1.2032
 N-N= 3.498719659044D+01 E-N=-4.313769430359D+02  KE= 1.518017545074D+02
 Symmetry A'   KE= 1.427767720774D+02
 Symmetry A"   KE= 9.024982429973D+00
 Leave Link  601 at Sat Aug 27 00:01:09 2022, MaxMem=   536870912 cpu:               0.3 elap:               0.1
 (Enter /usr/site/hpc/x86_64/glibc-2.17/broadwell/gaussian/g16_a.03/pgi-16.5/g16/l9999.exe)
 1\1\GINC-N041\SP\RCCSD(T)-FC\CC-pVTZ\H4O2\C7441284\27-Aug-2022\0\\#p C
 CSD(T)/cc-pVTZ\\H2O_H2O_1348\\0,1\O,0,0.,-0.009833,0.\H,0,-0.799571,-0
 .580965,0.\H,0,0.799571,-0.580965,0.\O,0,-2.530729,-1.801328,0.\H,0,-3
 .152932,-1.040822,0.\H,0,-3.048343,-2.636541,0.\\Version=ES64L-G16RevA
 .03\State=1-A'\HF=-152.1133025\MP2=-152.640754\MP3=-152.6479788\MP4D=-
 152.6570315\MP4DQ=-152.6493647\MP4SDQ=-152.6524839\CCSD=-152.651858\CC
 SD(T)=-152.6677366\RMSD=6.283e-09\PG=CS [SG(H4O2)]\\@


 SCIENCE IS A VERY HUMAN FORM OF KNOWLEDGE.
 WE ARE ALWAYS AT THE BRINK OF THE KNOWN,
 WE ALWAYS FEEL FORWARD FOR WHAT IS HOPED.
 EVERY JUDGEMENT IN SCIENCE STANDS ON THE EDGE OF ERROR, AND IS PERSONAL.
 SCIENCE IS A TRIBUTE TO WHAT WE CAN KNOW ALTHOUGH WE ARE FALLIBLE.

                     -- J. BRONOWSKI
 Job cpu time:       0 days  0 hours  1 minutes 34.5 seconds.
 Elapsed time:       0 days  0 hours  0 minutes 24.2 seconds.
 File lengths (MBytes):  RWF=    360 Int=      0 D2E=      0 Chk=      8 Scr=      8
 Normal termination of Gaussian 16 at Sat Aug 27 00:01:09 2022.
