 Entering Gaussian System, Link 0=g16
 Input=H2O_H2O_4961.com
 Output=H2O_H2O_4961.log
 Initial command:
 /usr/site/hpc/x86_64/glibc-2.17/broadwell/gaussian/g16_a.03/pgi-16.5/g16/l1.exe "/gpfs/gpfs1/scratch/c7441284/ForceFieldModel/FittingData2/Gau-1083106.inp" -scrdir="/gpfs/gpfs1/scratch/c7441284/ForceFieldModel/FittingData2/"
 Entering Link 1 = /usr/site/hpc/x86_64/glibc-2.17/broadwell/gaussian/g16_a.03/pgi-16.5/g16/l1.exe PID=   1083107.
  
 Copyright (c) 1988,1990,1992,1993,1995,1998,2003,2009,2016,
            Gaussian, Inc.  All Rights Reserved.
  
 This is part of the Gaussian(R) 16 program.  It is based on
 the Gaussian(R) 09 system (copyright 2009, Gaussian, Inc.),
 the Gaussian(R) 03 system (copyright 2003, Gaussian, Inc.),
 the Gaussian(R) 98 system (copyright 1998, Gaussian, Inc.),
 the Gaussian(R) 94 system (copyright 1995, Gaussian, Inc.),
 the Gaussian 92(TM) system (copyright 1992, Gaussian, Inc.),
 the Gaussian 90(TM) system (copyright 1990, Gaussian, Inc.),
 the Gaussian 88(TM) system (copyright 1988, Gaussian, Inc.),
 the Gaussian 86(TM) system (copyright 1986, Carnegie Mellon
 University), and the Gaussian 82(TM) system (copyright 1983,
 Carnegie Mellon University). Gaussian is a federally registered
 trademark of Gaussian, Inc.
  
 This software contains proprietary and confidential information,
 including trade secrets, belonging to Gaussian, Inc.
  
 This software is provided under written license and may be
 used, copied, transmitted, or stored only in accord with that
 written license.
  
 The following legend is applicable only to US Government
 contracts under FAR:
  
                    RESTRICTED RIGHTS LEGEND
  
 Use, reproduction and disclosure by the US Government is
 subject to restrictions as set forth in subparagraphs (a)
 and (c) of the Commercial Computer Software - Restricted
 Rights clause in FAR 52.227-19.
  
 Gaussian, Inc.
 340 Quinnipiac St., Bldg. 40, Wallingford CT 06492
  
  
 ---------------------------------------------------------------
 Warning -- This program may not be used in any manner that
 competes with the business of Gaussian, Inc. or will provide
 assistance to any competitor of Gaussian, Inc.  The licensee
 of this program is prohibited from giving any competitor of
 Gaussian, Inc. access to this program.  By using this program,
 the user acknowledges that Gaussian, Inc. is engaged in the
 business of creating and licensing software in the field of
 computational chemistry and represents and warrants to the
 licensee that it is not a competitor of Gaussian, Inc. and that
 it will not use this program in any manner prohibited above.
 ---------------------------------------------------------------
  

 Cite this work as:
 Gaussian 16, Revision A.03,
 M. J. Frisch, G. W. Trucks, H. B. Schlegel, G. E. Scuseria, 
 M. A. Robb, J. R. Cheeseman, G. Scalmani, V. Barone, 
 G. A. Petersson, H. Nakatsuji, X. Li, M. Caricato, A. V. Marenich, 
 J. Bloino, B. G. Janesko, R. Gomperts, B. Mennucci, H. P. Hratchian, 
 J. V. Ortiz, A. F. Izmaylov, J. L. Sonnenberg, D. Williams-Young, 
 F. Ding, F. Lipparini, F. Egidi, J. Goings, B. Peng, A. Petrone, 
 T. Henderson, D. Ranasinghe, V. G. Zakrzewski, J. Gao, N. Rega, 
 G. Zheng, W. Liang, M. Hada, M. Ehara, K. Toyota, R. Fukuda, 
 J. Hasegawa, M. Ishida, T. Nakajima, Y. Honda, O. Kitao, H. Nakai, 
 T. Vreven, K. Throssell, J. A. Montgomery, Jr., J. E. Peralta, 
 F. Ogliaro, M. J. Bearpark, J. J. Heyd, E. N. Brothers, K. N. Kudin, 
 V. N. Staroverov, T. A. Keith, R. Kobayashi, J. Normand, 
 K. Raghavachari, A. P. Rendell, J. C. Burant, S. S. Iyengar, 
 J. Tomasi, M. Cossi, J. M. Millam, M. Klene, C. Adamo, R. Cammi, 
 J. W. Ochterski, R. L. Martin, K. Morokuma, O. Farkas, 
 J. B. Foresman, and D. J. Fox, Gaussian, Inc., Wallingford CT, 2016.
 
 ******************************************
 Gaussian 16:  ES64L-G16RevA.03 25-Dec-2016
                28-Aug-2022 
 ******************************************
 %NProcShared=4
 Will use up to    4 processors via shared memory.
 %Mem=4GB
 %Chk=H2O_H2O_4961.chk
 ------------------
 #p CCSD(T)/cc-pVTZ
 ------------------
 1/38=1,172=1/1;
 2/12=2,17=6,18=5,40=1/2;
 3/5=16,6=1,11=9,25=1,30=1/1,2,3;
 4//1;
 5/5=2,38=5/2;
 8/6=4,9=120000,10=1/1,4;
 9/5=7,14=2/13;
 6/7=2,8=2,9=2,10=2/1;
 99/5=1,9=1/99;
 Leave Link    1 at Sun Aug 28 07:15:00 2022, MaxMem=   536870912 cpu:               0.3 elap:               0.1
 (Enter /usr/site/hpc/x86_64/glibc-2.17/broadwell/gaussian/g16_a.03/pgi-16.5/g16/l101.exe)
 ------------
 H2O_H2O_4961
 ------------
 Symbolic Z-matrix:
 Charge =  0 Multiplicity = 1
 O                     0.       -0.00983   0. 
 H                    -0.79957  -0.58097   0. 
 H                     0.79957  -0.58097   0. 
 O                    -4.88059  -3.48896   0. 
 H                    -5.85831  -3.39116   0. 
 H                    -4.65601  -4.44555   0. 
 
 ITRead=  0  0  0  0  0  0
 MicOpt= -1 -1 -1 -1 -1 -1
 NAtoms=      6 NQM=        6 NQMF=       0 NMMI=      0 NMMIF=      0
                NMic=       0 NMicF=      0.
                    Isotopes and Nuclear Properties:
 (Nuclear quadrupole moments (NQMom) in fm**2, nuclear magnetic moments (NMagM)
  in nuclear magnetons)

  Atom         1           2           3           4           5           6
 IAtWgt=          16           1           1          16           1           1
 AtmWgt=  15.9949146   1.0078250   1.0078250  15.9949146   1.0078250   1.0078250
 NucSpn=           0           1           1           0           1           1
 AtZEff=  -0.0000000  -0.0000000  -0.0000000  -0.0000000  -0.0000000  -0.0000000
 NQMom=    0.0000000   0.0000000   0.0000000   0.0000000   0.0000000   0.0000000
 NMagM=    0.0000000   2.7928460   2.7928460   0.0000000   2.7928460   2.7928460
 AtZNuc=   8.0000000   1.0000000   1.0000000   8.0000000   1.0000000   1.0000000
 Leave Link  101 at Sun Aug 28 07:15:00 2022, MaxMem=   536870912 cpu:               0.6 elap:               0.2
 (Enter /usr/site/hpc/x86_64/glibc-2.17/broadwell/gaussian/g16_a.03/pgi-16.5/g16/l202.exe)
                          Input orientation:                          
 ---------------------------------------------------------------------
 Center     Atomic      Atomic             Coordinates (Angstroms)
 Number     Number       Type             X           Y           Z
 ---------------------------------------------------------------------
      1          8           0        0.000000   -0.009833    0.000000
      2          1           0       -0.799571   -0.580965    0.000000
      3          1           0        0.799571   -0.580965    0.000000
      4          8           0       -4.880590   -3.488956    0.000000
      5          1           0       -5.858313   -3.391162    0.000000
      6          1           0       -4.656014   -4.445550    0.000000
 ---------------------------------------------------------------------
                    Distance matrix (angstroms):
                    1          2          3          4          5
     1  O    0.000000
     2  H    0.982601   0.000000
     3  H    0.982601   1.599142   0.000000
     4  O    5.993701   5.011100   6.381273   0.000000
     5  H    6.764112   5.786888   7.226661   0.982602   0.000000
     6  H    6.430712   5.459594   6.685688   0.982602   1.599143
                    6
     6  H    0.000000
 Stoichiometry    H4O2
 Framework group  CS[SG(H4O2)]
 Deg. of freedom     9
 Full point group                 CS      NOp   2
 Largest Abelian subgroup         CS      NOp   2
 Largest concise Abelian subgroup C1      NOp   1
                         Standard orientation:                         
 ---------------------------------------------------------------------
 Center     Atomic      Atomic             Coordinates (Angstroms)
 Number     Number       Type             X           Y           Z
 ---------------------------------------------------------------------
      1          8           0        0.059613    3.085592    0.000000
      2          1           0        0.058670    2.102991    0.000000
      3          1           0       -0.869573    3.405150   -0.000000
      4          8           0        0.059613   -2.908110    0.000000
      5          1           0        0.706778   -3.647490    0.000000
      6          1           0       -0.849686   -3.280508   -0.000000
 ---------------------------------------------------------------------
 Rotational constants (GHZ):         244.6146383           1.5411758           1.5315265
 Leave Link  202 at Sun Aug 28 07:15:00 2022, MaxMem=   536870912 cpu:               0.0 elap:               0.0
 (Enter /usr/site/hpc/x86_64/glibc-2.17/broadwell/gaussian/g16_a.03/pgi-16.5/g16/l301.exe)
 Standard basis: CC-pVTZ (5D, 7F)
 Ernie: Thresh=  0.10000D-02 Tol=  0.10000D-05 Strict=F.
 Ernie:  6 primitive shells out of 84 were deleted.
 There are    92 symmetry adapted cartesian basis functions of A'  symmetry.
 There are    38 symmetry adapted cartesian basis functions of A"  symmetry.
 There are    80 symmetry adapted basis functions of A'  symmetry.
 There are    36 symmetry adapted basis functions of A"  symmetry.
   116 basis functions,   172 primitive gaussians,   130 cartesian basis functions
    10 alpha electrons       10 beta electrons
       nuclear repulsion energy        26.6789658760 Hartrees.
 IExCor=    0 DFT=F Ex=HF Corr=None ExCW=0 ScaHFX=  1.000000
 ScaDFX=  1.000000  1.000000  1.000000  1.000000 ScalE2=  1.000000  1.000000
 IRadAn=      5 IRanWt=     -1 IRanGd=            0 ICorTp=0 IEmpDi=  4
 NAtoms=    6 NActive=    6 NUniq=    6 SFac= 1.00D+00 NAtFMM=   60 NAOKFM=F Big=F
 Integral buffers will be    131072 words long.
 Raffenetti 1 integral format.
 Two-electron integral symmetry is turned on.
 Leave Link  301 at Sun Aug 28 07:15:00 2022, MaxMem=   536870912 cpu:               0.1 elap:               0.0
 (Enter /usr/site/hpc/x86_64/glibc-2.17/broadwell/gaussian/g16_a.03/pgi-16.5/g16/l302.exe)
 NPDir=0 NMtPBC=     1 NCelOv=     1 NCel=       1 NClECP=     1 NCelD=      1
         NCelK=      1 NCelE2=     1 NClLst=     1 CellRange=     0.0.
 One-electron integrals computed using PRISM.
 One-electron integral symmetry used in STVInt
 NBasis=   116 RedAO= T EigKep=  2.67D-03  NBF=    80    36
 NBsUse=   116 1.00D-06 EigRej= -1.00D+00 NBFU=    80    36
 Leave Link  302 at Sun Aug 28 07:15:00 2022, MaxMem=   536870912 cpu:               0.5 elap:               0.1
 (Enter /usr/site/hpc/x86_64/glibc-2.17/broadwell/gaussian/g16_a.03/pgi-16.5/g16/l303.exe)
 DipDrv:  MaxL=1.
 Leave Link  303 at Sun Aug 28 07:15:00 2022, MaxMem=   536870912 cpu:               0.1 elap:               0.0
 (Enter /usr/site/hpc/x86_64/glibc-2.17/broadwell/gaussian/g16_a.03/pgi-16.5/g16/l401.exe)
 ExpMin= 1.03D-01 ExpMax= 1.53D+04 ExpMxC= 5.22D+02 IAcc=3 IRadAn=         5 AccDes= 0.00D+00
 Harris functional with IExCor=  205 and IRadAn=       5 diagonalized for initial guess.
 HarFok:  IExCor=  205 AccDes= 0.00D+00 IRadAn=         5 IDoV= 1 UseB2=F ITyADJ=14
 ICtDFT=  3500011 ScaDFX=  1.000000  1.000000  1.000000  1.000000
 FoFCou: FMM=F IPFlag=           0 FMFlag=      100000 FMFlg1=           0
         NFxFlg=           0 DoJE=T BraDBF=F KetDBF=T FulRan=T
         wScrn=  0.000000 ICntrl=       500 IOpCl=  0 I1Cent=   200000004 NGrid=           0
         NMat0=    1 NMatS0=      1 NMatT0=    0 NMatD0=    1 NMtDS0=    0 NMtDT0=    0
 Petite list used in FoFCou.
 Harris En= -152.298682456244    
 JPrj=0 DoOrth=F DoCkMO=F.
 Initial guess orbital symmetries:
       Occupied  (A') (A') (A') (A') (A') (A') (A') (A') (A") (A")
       Virtual   (A') (A') (A') (A') (A') (A') (A') (A') (A') (A')
                 (A") (A") (A') (A') (A') (A') (A") (A") (A") (A")
                 (A') (A') (A') (A') (A') (A') (A') (A') (A") (A")
                 (A") (A") (A') (A') (A') (A') (A') (A') (A') (A')
                 (A') (A') (A") (A") (A') (A') (A") (A") (A") (A")
                 (A') (A') (A') (A') (A') (A') (A") (A") (A') (A')
                 (A') (A') (A") (A") (A") (A") (A') (A') (A') (A')
                 (A") (A") (A') (A') (A') (A') (A') (A') (A') (A')
                 (A") (A") (A') (A') (A") (A") (A") (A") (A') (A')
                 (A") (A") (A') (A') (A') (A') (A") (A") (A') (A')
                 (A') (A') (A') (A') (A') (A')
 The electronic state of the initial guess is 1-A'.
 Leave Link  401 at Sun Aug 28 07:15:00 2022, MaxMem=   536870912 cpu:               0.7 elap:               0.2
 (Enter /usr/site/hpc/x86_64/glibc-2.17/broadwell/gaussian/g16_a.03/pgi-16.5/g16/l502.exe)
 Keep R1 ints in memory in symmetry-blocked form, NReq=34823457.
 FoFCou: FMM=F IPFlag=           0 FMFlag=           0 FMFlg1=           0
         NFxFlg=           0 DoJE=F BraDBF=F KetDBF=F FulRan=T
         wScrn=  0.000000 ICntrl=       600 IOpCl=  0 I1Cent=           0 NGrid=           0
         NMat0=    1 NMatS0=   6786 NMatT0=    0 NMatD0=    1 NMtDS0=    0 NMtDT0=    0
 Petite list used in FoFCou.
 Closed shell SCF:
 Using DIIS extrapolation, IDIIS=  1040.
 NGot=   536870912 LenX=   525040673 LenY=   525023332
 Requested convergence on RMS density matrix=1.00D-08 within 128 cycles.
 Requested convergence on MAX density matrix=1.00D-06.
 Requested convergence on             energy=1.00D-06.
 No special actions if energy rises.

 Cycle   1  Pass 1  IDiag  1:
 E= -151.928336302731    
 DIIS: error= 6.32D-02 at cycle   1 NSaved=   1.
 NSaved= 1 IEnMin= 1 EnMin= -151.928336302731     IErMin= 1 ErrMin= 6.32D-02
 ErrMax= 6.32D-02  0.00D+00 EMaxC= 1.00D-01 BMatC= 4.00D-01 BMatP= 4.00D-01
 IDIUse=3 WtCom= 3.68D-01 WtEn= 6.32D-01
 Coeff-Com:  0.100D+01
 Coeff-En:   0.100D+01
 Coeff:      0.100D+01
 Gap=     0.517 Goal=   None    Shift=    0.000
 GapD=    0.517 DampG=2.000 DampE=0.500 DampFc=1.0000 IDamp=-1.
 RMSDP=2.50D-03 MaxDP=6.68D-02              OVMax= 1.26D-01

 Cycle   2  Pass 1  IDiag  1:
 E= -152.039932275112     Delta-E=       -0.111595972381 Rises=F Damp=F
 DIIS: error= 3.97D-02 at cycle   2 NSaved=   2.
 NSaved= 2 IEnMin= 2 EnMin= -152.039932275112     IErMin= 2 ErrMin= 3.97D-02
 ErrMax= 3.97D-02  0.00D+00 EMaxC= 1.00D-01 BMatC= 1.12D-01 BMatP= 4.00D-01
 IDIUse=3 WtCom= 6.03D-01 WtEn= 3.97D-01
 Coeff-Com:  0.319D+00 0.681D+00
 Coeff-En:   0.166D+00 0.834D+00
 Coeff:      0.258D+00 0.742D+00
 Gap=     0.654 Goal=   None    Shift=    0.000
 RMSDP=1.32D-03 MaxDP=3.95D-02 DE=-1.12D-01 OVMax= 5.69D-02

 Cycle   3  Pass 1  IDiag  1:
 E= -152.104504327837     Delta-E=       -0.064572052725 Rises=F Damp=F
 DIIS: error= 8.43D-03 at cycle   3 NSaved=   3.
 NSaved= 3 IEnMin= 3 EnMin= -152.104504327837     IErMin= 3 ErrMin= 8.43D-03
 ErrMax= 8.43D-03  0.00D+00 EMaxC= 1.00D-01 BMatC= 5.74D-03 BMatP= 1.12D-01
 IDIUse=3 WtCom= 9.16D-01 WtEn= 8.43D-02
 Coeff-Com: -0.303D-01 0.153D+00 0.878D+00
 Coeff-En:   0.000D+00 0.000D+00 0.100D+01
 Coeff:     -0.277D-01 0.140D+00 0.888D+00
 Gap=     0.627 Goal=   None    Shift=    0.000
 RMSDP=2.37D-04 MaxDP=5.57D-03 DE=-6.46D-02 OVMax= 1.31D-02

 Cycle   4  Pass 1  IDiag  1:
 E= -152.108089182873     Delta-E=       -0.003584855036 Rises=F Damp=F
 DIIS: error= 7.80D-04 at cycle   4 NSaved=   4.
 NSaved= 4 IEnMin= 4 EnMin= -152.108089182873     IErMin= 4 ErrMin= 7.80D-04
 ErrMax= 7.80D-04  0.00D+00 EMaxC= 1.00D-01 BMatC= 3.45D-05 BMatP= 5.74D-03
 IDIUse=3 WtCom= 9.92D-01 WtEn= 7.80D-03
 Coeff-Com:  0.687D-02-0.601D-01-0.244D+00 0.130D+01
 Coeff-En:   0.000D+00 0.000D+00 0.000D+00 0.100D+01
 Coeff:      0.682D-02-0.597D-01-0.243D+00 0.130D+01
 Gap=     0.629 Goal=   None    Shift=    0.000
 RMSDP=5.14D-05 MaxDP=1.01D-03 DE=-3.58D-03 OVMax= 2.22D-03

 Cycle   5  Pass 1  IDiag  1:
 E= -152.108137583882     Delta-E=       -0.000048401009 Rises=F Damp=F
 DIIS: error= 1.84D-04 at cycle   5 NSaved=   5.
 NSaved= 5 IEnMin= 5 EnMin= -152.108137583882     IErMin= 5 ErrMin= 1.84D-04
 ErrMax= 1.84D-04  0.00D+00 EMaxC= 1.00D-01 BMatC= 1.32D-06 BMatP= 3.45D-05
 IDIUse=3 WtCom= 9.98D-01 WtEn= 1.84D-03
 Coeff-Com:  0.513D-03 0.492D-03-0.180D-02-0.222D+00 0.122D+01
 Coeff-En:   0.000D+00 0.000D+00 0.000D+00 0.000D+00 0.100D+01
 Coeff:      0.512D-03 0.491D-03-0.180D-02-0.221D+00 0.122D+01
 Gap=     0.630 Goal=   None    Shift=    0.000
 RMSDP=1.41D-05 MaxDP=2.87D-04 DE=-4.84D-05 OVMax= 6.80D-04

 Cycle   6  Pass 1  IDiag  1:
 E= -152.108140351162     Delta-E=       -0.000002767280 Rises=F Damp=F
 DIIS: error= 2.77D-05 at cycle   6 NSaved=   6.
 NSaved= 6 IEnMin= 6 EnMin= -152.108140351162     IErMin= 6 ErrMin= 2.77D-05
 ErrMax= 2.77D-05  0.00D+00 EMaxC= 1.00D-01 BMatC= 3.26D-08 BMatP= 1.32D-06
 IDIUse=1 WtCom= 1.00D+00 WtEn= 0.00D+00
 Coeff-Com: -0.269D-03 0.153D-02 0.668D-02 0.188D-02-0.262D+00 0.125D+01
 Coeff:     -0.269D-03 0.153D-02 0.668D-02 0.188D-02-0.262D+00 0.125D+01
 Gap=     0.630 Goal=   None    Shift=    0.000
 RMSDP=2.99D-06 MaxDP=6.49D-05 DE=-2.77D-06 OVMax= 1.51D-04

 Cycle   7  Pass 1  IDiag  1:
 E= -152.108140444403     Delta-E=       -0.000000093242 Rises=F Damp=F
 DIIS: error= 5.31D-06 at cycle   7 NSaved=   7.
 NSaved= 7 IEnMin= 7 EnMin= -152.108140444403     IErMin= 7 ErrMin= 5.31D-06
 ErrMax= 5.31D-06  0.00D+00 EMaxC= 1.00D-01 BMatC= 1.67D-09 BMatP= 3.26D-08
 IDIUse=1 WtCom= 1.00D+00 WtEn= 0.00D+00
 Coeff-Com:  0.330D-04-0.388D-03-0.164D-02 0.134D-01-0.106D-01-0.231D+00
 Coeff-Com:  0.123D+01
 Coeff:      0.330D-04-0.388D-03-0.164D-02 0.134D-01-0.106D-01-0.231D+00
 Coeff:      0.123D+01
 Gap=     0.630 Goal=   None    Shift=    0.000
 RMSDP=4.30D-07 MaxDP=8.66D-06 DE=-9.32D-08 OVMax= 2.85D-05

 Cycle   8  Pass 1  IDiag  1:
 E= -152.108140448002     Delta-E=       -0.000000003599 Rises=F Damp=F
 DIIS: error= 1.58D-06 at cycle   8 NSaved=   8.
 NSaved= 8 IEnMin= 8 EnMin= -152.108140448002     IErMin= 8 ErrMin= 1.58D-06
 ErrMax= 1.58D-06  0.00D+00 EMaxC= 1.00D-01 BMatC= 8.99D-11 BMatP= 1.67D-09
 IDIUse=1 WtCom= 1.00D+00 WtEn= 0.00D+00
 Coeff-Com:  0.308D-05 0.548D-04 0.261D-03-0.536D-02 0.196D-01 0.136D-01
 Coeff-Com: -0.426D+00 0.140D+01
 Coeff:      0.308D-05 0.548D-04 0.261D-03-0.536D-02 0.196D-01 0.136D-01
 Coeff:     -0.426D+00 0.140D+01
 Gap=     0.630 Goal=   None    Shift=    0.000
 RMSDP=1.13D-07 MaxDP=2.10D-06 DE=-3.60D-09 OVMax= 6.33D-06

 Cycle   9  Pass 1  IDiag  1:
 E= -152.108140448213     Delta-E=       -0.000000000211 Rises=F Damp=F
 DIIS: error= 1.90D-07 at cycle   9 NSaved=   9.
 NSaved= 9 IEnMin= 9 EnMin= -152.108140448213     IErMin= 9 ErrMin= 1.90D-07
 ErrMax= 1.90D-07  0.00D+00 EMaxC= 1.00D-01 BMatC= 1.53D-12 BMatP= 8.99D-11
 IDIUse=1 WtCom= 1.00D+00 WtEn= 0.00D+00
 Coeff-Com: -0.105D-05-0.186D-05-0.165D-04 0.624D-03-0.241D-02-0.132D-02
 Coeff-Com:  0.639D-01-0.284D+00 0.122D+01
 Coeff:     -0.105D-05-0.186D-05-0.165D-04 0.624D-03-0.241D-02-0.132D-02
 Coeff:      0.639D-01-0.284D+00 0.122D+01
 Gap=     0.630 Goal=   None    Shift=    0.000
 RMSDP=1.28D-08 MaxDP=3.34D-07 DE=-2.11D-10 OVMax= 7.24D-07

 Cycle  10  Pass 1  IDiag  1:
 E= -152.108140448216     Delta-E=       -0.000000000003 Rises=F Damp=F
 DIIS: error= 5.10D-08 at cycle  10 NSaved=  10.
 NSaved=10 IEnMin=10 EnMin= -152.108140448216     IErMin=10 ErrMin= 5.10D-08
 ErrMax= 5.10D-08  0.00D+00 EMaxC= 1.00D-01 BMatC= 1.96D-13 BMatP= 1.53D-12
 IDIUse=1 WtCom= 1.00D+00 WtEn= 0.00D+00
 Coeff-Com: -0.358D-06-0.361D-05-0.189D-04 0.422D-03-0.152D-02-0.141D-02
 Coeff-Com:  0.387D-01-0.143D+00 0.275D+00 0.832D+00
 Coeff:     -0.358D-06-0.361D-05-0.189D-04 0.422D-03-0.152D-02-0.141D-02
 Coeff:      0.387D-01-0.143D+00 0.275D+00 0.832D+00
 Gap=     0.630 Goal=   None    Shift=    0.000
 RMSDP=3.52D-09 MaxDP=1.08D-07 DE=-3.10D-12 OVMax= 1.94D-07

 SCF Done:  E(RHF) =  -152.108140448     A.U. after   10 cycles
            NFock= 10  Conv=0.35D-08     -V/T= 2.0020
 KE= 1.518037120951D+02 PE=-4.147719082095D+02 EE= 8.418108979011D+01
 Leave Link  502 at Sun Aug 28 07:15:02 2022, MaxMem=   536870912 cpu:               4.0 elap:               1.1
 (Enter /usr/site/hpc/x86_64/glibc-2.17/broadwell/gaussian/g16_a.03/pgi-16.5/g16/l801.exe)
 Windowed orbitals will be sorted by symmetry type.
 ExpMin= 1.03D-01 ExpMax= 1.53D+04 ExpMxC= 5.22D+02 IAcc=3 IRadAn=         5 AccDes= 0.00D+00
 HarFok:  IExCor=  205 AccDes= 0.00D+00 IRadAn=         5 IDoV=-2 UseB2=F ITyADJ=14
 ICtDFT= 12500011 ScaDFX=  1.000000  1.000000  1.000000  1.000000
 Largest valence mixing into a core orbital is  1.12D-04
 Largest core mixing into a valence orbital is  1.76D-05
 Range of M.O.s used for correlation:     3   116
 NBasis=   116 NAE=    10 NBE=    10 NFC=     2 NFV=     0
 NROrb=    114 NOA=     8 NOB=     8 NVA=   106 NVB=   106
 Leave Link  801 at Sun Aug 28 07:15:02 2022, MaxMem=   536870912 cpu:               0.3 elap:               0.1
 (Enter /usr/site/hpc/x86_64/glibc-2.17/broadwell/gaussian/g16_a.03/pgi-16.5/g16/l804.exe)
 Closed-shell transformation, MDV=   536870912 ITran=4 ISComp=2.
 Unit  1 TFree=        834515 TCopy=        406125.
 Semi-Direct transformation.
 ModeAB=           4 MOrb=             8 LenV=     536379317
 LASXX=      2873146 LTotXX=     2873146 LenRXX=     5831278
 LTotAB=     2958132 MaxLAS=     5123616 LenRXY=           0
 NonZer=     8704424 LenScr=    13107200 LnRSAI=     5123616
 LnScr1=     7864320 LExtra=           0 Total=     31926414
 MaxDsk=          -1 SrtSym=           T ITran=            4
 DoSDTr:  NPSUse=  4
 JobTyp=0 Pass  1:  I=   1 to   8.
 (rs|ai) integrals will be sorted in core.
 Complete sort for first half transformation.
 First half transformation complete.
 Complete sort for second half transformation.
 Second half transformation complete.
 Spin components of T(2) and E(2):
     alpha-alpha T2 =       0.1555236860D-01 E2=     -0.6379415452D-01
     alpha-beta  T2 =       0.9185679213D-01 E2=     -0.3982286631D+00
     beta-beta   T2 =       0.1555236860D-01 E2=     -0.6379415452D-01
 ANorm=    0.1059698792D+01
 E2 =    -0.5258169722D+00 EUMP2 =    -0.15263395742039D+03
 Leave Link  804 at Sun Aug 28 07:15:02 2022, MaxMem=   536870912 cpu:               3.0 elap:               0.8
 (Enter /usr/site/hpc/x86_64/glibc-2.17/broadwell/gaussian/g16_a.03/pgi-16.5/g16/l913.exe)
 CIDS:  MDV=   536870912.
 Frozen-core window:  NFC=   2 NFV=   0.
 IFCWin=0 IBDFC=1 NFBD=     0     0 NFCmp=     0     0 NFFFC=     0     0
 Using DD3R+UMP44R for 1st iteration.
 Using DD4RQ for 2nd and later iterations.
 Keep R2 and R3 ints in memory in symmetry-blocked form, NReq=35357534.
 FoFCou: FMM=F IPFlag=           0 FMFlag=           0 FMFlg1=           0
         NFxFlg=           0 DoJE=F BraDBF=F KetDBF=F FulRan=T
         wScrn=  0.000000 ICntrl=       600 IOpCl=  0 I1Cent=           0 NGrid=           0
         NMat0=    1 NMatS0=   6786 NMatT0=    0 NMatD0=    1 NMtDS0=    0 NMtDT0=    0
 Petite list used in FoFCou.
 CIDS: In Core Option IDoMem=           1.
 CCSD(T)
 =======
 Iterations=  50 Convergence= 0.100D-06
 Produce multiple copies of IABC intergrals
 Iteration Nr.   1
 **********************
 DD1Dir will call FoFMem   1 times, MxPair=        72
 NAB=    36 NAA=     0 NBB=     0.
 MP4(R+Q)=  0.75461833D-02
 Maximum subspace dimension=  5
 A-vector RMS=  1.7381197D-03 Max=  6.1814782D-03 conv= 1.00D-05.
 RLE energy=       -0.5257746681
 E3=       -0.75747863D-02        EUMP3=      -0.15264153221D+03
 E4(DQ)=   -0.15498755D-02        UMP4(DQ)=   -0.15264308208D+03
 E4(SDQ)=  -0.45985360D-02        UMP4(SDQ)=  -0.15264613074D+03
 VARIATIONAL ENERGIES WITH THE FIRST-ORDER WAVEFUNCTION:
 DE(Corr)= -0.52577467     E(Corr)=     -152.63391512    
 NORM(A)=   0.10600684D+01
 Iteration Nr.   2
 **********************
 DD1Dir will call FoFMem   1 times, MxPair=        72
 NAB=    36 NAA=     0 NBB=     0.
 A-vector RMS=  2.1243908D-04 Max=  2.3200013D-03 conv= 1.00D-05.
 RLE energy=       -0.5368228153
 DE(Corr)= -0.53566263     E(CORR)=     -152.64380308     Delta=-9.89D-03
 NORM(A)=   0.10638099D+01
 Iteration Nr.   3
 **********************
 DD1Dir will call FoFMem   1 times, MxPair=        72
 NAB=    36 NAA=     0 NBB=     0.
 A-vector RMS=  1.4030724D-04 Max=  8.8789035D-04 conv= 1.00D-05.
 RLE energy=       -0.5373176785
 DE(Corr)= -0.53673318     E(CORR)=     -152.64487362     Delta=-1.07D-03
 NORM(A)=   0.10644465D+01
 Iteration Nr.   4
 **********************
 DD1Dir will call FoFMem   1 times, MxPair=        72
 NAB=    36 NAA=     0 NBB=     0.
 A-vector RMS=  2.5711298D-05 Max=  1.4122355D-04 conv= 1.00D-05.
 RLE energy=       -0.5374008453
 DE(Corr)= -0.53736557     E(CORR)=     -152.64550602     Delta=-6.32D-04
 NORM(A)=   0.10645567D+01
 Iteration Nr.   5
 **********************
 DD1Dir will call FoFMem   1 times, MxPair=        72
 NAB=    36 NAA=     0 NBB=     0.
 A-vector RMS=  1.8583325D-05 Max=  1.6537959D-04 conv= 1.00D-05.
 RLE energy=       -0.5374090452
 DE(Corr)= -0.53740234     E(CORR)=     -152.64554279     Delta=-3.68D-05
 NORM(A)=   0.10645660D+01
 Iteration Nr.   6
 **********************
 DD1Dir will call FoFMem   1 times, MxPair=        72
 NAB=    36 NAA=     0 NBB=     0.
 A-vector RMS=  5.4930486D-06 Max=  4.3669646D-05 conv= 1.00D-05.
 RLE energy=       -0.5373999572
 DE(Corr)= -0.53740550     E(CORR)=     -152.64554595     Delta=-3.15D-06
 NORM(A)=   0.10645661D+01
 Iteration Nr.   7
 **********************
 DD1Dir will call FoFMem   1 times, MxPair=        72
 NAB=    36 NAA=     0 NBB=     0.
 A-vector RMS=  2.6410584D-06 Max=  2.3880534D-05 conv= 1.00D-05.
 RLE energy=       -0.5374066620
 DE(Corr)= -0.53740564     E(CORR)=     -152.64554609     Delta=-1.46D-07
 NORM(A)=   0.10645685D+01
 Iteration Nr.   8
 **********************
 DD1Dir will call FoFMem   1 times, MxPair=        72
 NAB=    36 NAA=     0 NBB=     0.
 A-vector RMS=  5.2223893D-07 Max=  4.4936223D-06 conv= 1.00D-05.
 RLE energy=       -0.5374050530
 DE(Corr)= -0.53740522     E(CORR)=     -152.64554567     Delta= 4.25D-07
 NORM(A)=   0.10645686D+01
 Iteration Nr.   9
 **********************
 DD1Dir will call FoFMem   1 times, MxPair=        72
 NAB=    36 NAA=     0 NBB=     0.
 A-vector RMS=  1.2284748D-07 Max=  7.8031093D-07 conv= 1.00D-05.
 RLE energy=       -0.5374055250
 DE(Corr)= -0.53740550     E(CORR)=     -152.64554595     Delta=-2.84D-07
 NORM(A)=   0.10645688D+01
 Iteration Nr.  10
 **********************
 DD1Dir will call FoFMem   1 times, MxPair=        72
 NAB=    36 NAA=     0 NBB=     0.
 A-vector RMS=  4.4286217D-08 Max=  3.4037734D-07 conv= 1.00D-05.
 RLE energy=       -0.5374055042
 DE(Corr)= -0.53740548     E(CORR)=     -152.64554593     Delta= 1.98D-08
 NORM(A)=   0.10645689D+01
 CI/CC converged in   10 iterations to DelEn= 1.98D-08 Conv= 1.00D-07 ErrA1= 4.43D-08 Conv= 1.00D-05
 Wavefunction amplitudes converged. E(Corr)=     -152.64554593    
 Largest amplitude= 4.80D-02
 IPart=  2 IA=    7   11.05% done.
 IPart=  2 IA=   13   21.46% done.
 IPart=  4 IA=   19   31.21% done.
 IPart=  4 IA=   25   40.32% done.
 IPart=  4 IA=   32   50.13% done.
 IPart=  4 IA=   40   60.27% done.
 IPart=  3 IA=   49   70.30% done.
 IPart=  1 IA=   60   80.58% done.
 IPart=  2 IA=   74   90.51% done.
 Time for triples=       47.49 seconds.
 T4(CCSD)= -0.16017688D-01
 T5(CCSD)=  0.40148661D-03
 CCSD(T)= -0.15266116213D+03
 Discarding MO integrals.
 Leave Link  913 at Sun Aug 28 07:15:19 2022, MaxMem=   536870912 cpu:              67.8 elap:              17.0
 (Enter /usr/site/hpc/x86_64/glibc-2.17/broadwell/gaussian/g16_a.03/pgi-16.5/g16/l601.exe)
 Copying SCF densities to generalized density rwf, IOpCl= 0 IROHF=0.

 **********************************************************************

            Population analysis using the SCF density.

 **********************************************************************

 Orbital symmetries:
       Occupied  (A') (A') (A') (A') (A') (A') (A') (A') (A") (A")
       Virtual   (A') (A') (A') (A') (A') (A') (A') (A') (A') (A')
                 (A") (A") (A') (A') (A') (A') (A") (A") (A") (A")
                 (A') (A') (A') (A') (A') (A') (A') (A') (A") (A")
                 (A") (A") (A') (A') (A') (A') (A') (A') (A') (A')
                 (A') (A') (A") (A") (A') (A') (A") (A") (A') (A')
                 (A") (A") (A') (A') (A') (A') (A") (A") (A") (A")
                 (A') (A') (A') (A') (A") (A") (A') (A') (A') (A')
                 (A") (A") (A') (A') (A') (A') (A') (A') (A') (A')
                 (A") (A") (A') (A') (A") (A") (A") (A") (A') (A')
                 (A") (A") (A') (A') (A') (A') (A") (A") (A') (A')
                 (A') (A') (A') (A') (A') (A')
 The electronic state is 1-A'.
 Alpha  occ. eigenvalues --  -20.56117 -20.55060  -1.33419  -1.32365  -0.70825
 Alpha  occ. eigenvalues --   -0.69766  -0.56900  -0.55830  -0.50535  -0.49485
 Alpha virt. eigenvalues --    0.13520   0.14734   0.19714   0.20876   0.53709
 Alpha virt. eigenvalues --    0.54789   0.56709   0.57739   0.67082   0.68483
 Alpha virt. eigenvalues --    0.78348   0.79377   0.79738   0.80565   0.82152
 Alpha virt. eigenvalues --    0.82801   0.84277   0.85317   0.96680   0.97725
 Alpha virt. eigenvalues --    1.14094   1.15312   1.16577   1.17628   1.51133
 Alpha virt. eigenvalues --    1.51421   1.52178   1.52574   2.00075   2.01130
 Alpha virt. eigenvalues --    2.06145   2.07200   2.08778   2.09861   2.14265
 Alpha virt. eigenvalues --    2.15325   2.24406   2.25488   2.60917   2.61993
 Alpha virt. eigenvalues --    2.92276   2.93389   3.38791   3.39844   3.49349
 Alpha virt. eigenvalues --    3.50404   3.52552   3.53601   3.58927   3.59989
 Alpha virt. eigenvalues --    3.78074   3.79127   3.84839   3.85898   3.87057
 Alpha virt. eigenvalues --    3.88106   3.93000   3.94054   4.02454   4.03510
 Alpha virt. eigenvalues --    4.07606   4.08686   4.14673   4.15759   4.29530
 Alpha virt. eigenvalues --    4.30590   4.39302   4.40371   4.44994   4.46057
 Alpha virt. eigenvalues --    4.65930   4.66980   4.80293   4.81373   5.03635
 Alpha virt. eigenvalues --    5.04697   5.23476   5.24536   5.53437   5.54490
 Alpha virt. eigenvalues --    5.97314   5.98373   6.39788   6.40847   6.85571
 Alpha virt. eigenvalues --    6.86629   6.89057   6.90113   6.93990   6.95050
 Alpha virt. eigenvalues --    6.98508   6.99566   7.07276   7.08339   7.11899
 Alpha virt. eigenvalues --    7.12940   7.17676   7.18736   7.46574   7.47642
 Alpha virt. eigenvalues --    7.69697   7.70764   8.14464   8.15527  12.48674
 Alpha virt. eigenvalues --   12.49778
          Condensed to atoms (all electrons):
               1          2          3          4          5          6
     1  O    7.820306   0.346555   0.345672  -0.000000   0.000000   0.000000
     2  H    0.346555   0.430643  -0.036562   0.000024  -0.000001  -0.000001
     3  H    0.345672  -0.036562   0.437732  -0.000000   0.000000   0.000000
     4  O   -0.000000   0.000024  -0.000000   7.819907   0.347355   0.345958
     5  H    0.000000  -0.000001   0.000000   0.347355   0.431443  -0.036597
     6  H    0.000000  -0.000001   0.000000   0.345958  -0.036597   0.435163
 Mulliken charges:
               1
     1  O   -0.512533
     2  H    0.259343
     3  H    0.253158
     4  O   -0.513244
     5  H    0.257800
     6  H    0.255477
 Sum of Mulliken charges =  -0.00000
 Mulliken charges with hydrogens summed into heavy atoms:
               1
     1  O   -0.000032
     4  O    0.000032
 Electronic spatial extent (au):  <R**2>=            686.4604
 Charge=             -0.0000 electrons
 Dipole moment (field-independent basis, Debye):
    X=             -2.0465    Y=             -3.1050    Z=             -0.0000  Tot=              3.7188
 Quadrupole moment (field-independent basis, Debye-Ang):
   XX=             -9.3613   YY=             -6.1041   ZZ=            -14.7139
   XY=             -5.1094   XZ=              0.0000   YZ=             -0.0000
 Traceless Quadrupole moment (field-independent basis, Debye-Ang):
   XX=              0.6984   YY=              3.9557   ZZ=             -4.6541
   XY=             -5.1094   XZ=              0.0000   YZ=             -0.0000
 Octapole moment (field-independent basis, Debye-Ang**2):
  XXX=             -2.6344  YYY=            -75.3194  ZZZ=             -0.0000  XYY=            -21.4227
  XXY=             -4.6820  XXZ=             -0.0000  XZZ=             -0.2683  YZZ=             -0.4211
  YYZ=             -0.0000  XYZ=             -0.0000
 Hexadecapole moment (field-independent basis, Debye-Ang**3):
 XXXX=            -11.3199 YYYY=           -522.8300 ZZZZ=            -11.3396 XXXY=             -0.1108
 XXXZ=             -0.0000 YYYX=            -79.4519 YYYZ=             -0.0000 ZZZX=             -0.0000
 ZZZY=              0.0000 XXYY=            -78.4020 XXZZ=             -4.4301 YYZZ=           -137.8365
 XXYZ=             -0.0000 YYXZ=              0.0000 ZZXY=              1.1585
 N-N= 2.667896587603D+01 E-N=-4.147719081333D+02  KE= 1.518037120951D+02
 Symmetry A'   KE= 1.427678140811D+02
 Symmetry A"   KE= 9.035898014028D+00
 Leave Link  601 at Sun Aug 28 07:15:20 2022, MaxMem=   536870912 cpu:               0.2 elap:               0.0
 (Enter /usr/site/hpc/x86_64/glibc-2.17/broadwell/gaussian/g16_a.03/pgi-16.5/g16/l9999.exe)
 1\1\GINC-N002\SP\RCCSD(T)-FC\CC-pVTZ\H4O2\ROOT\28-Aug-2022\0\\#p CCSD(
 T)/cc-pVTZ\\H2O_H2O_4961\\0,1\O,0,0.,-0.009833,0.\H,0,-0.799571,-0.580
 965,0.\H,0,0.799571,-0.580965,0.\O,0,-4.88059,-3.488956,0.\H,0,-5.8583
 13,-3.391162,0.\H,0,-4.656014,-4.44555,0.\\Version=ES64L-G16RevA.03\St
 ate=1-A'\HF=-152.1081404\MP2=-152.6339574\MP3=-152.6415322\MP4D=-152.6
 506283\MP4DQ=-152.6430821\MP4SDQ=-152.6461307\CCSD=-152.6455459\CCSD(T
 )=-152.6611621\RMSD=3.519e-09\PG=CS [SG(H4O2)]\\@


 TO ERR IS HUMAN - AND TO BLAME IT ON A COMPUTER IS EVEN MORE SO.
 Job cpu time:       0 days  0 hours  1 minutes 18.1 seconds.
 Elapsed time:       0 days  0 hours  0 minutes 19.6 seconds.
 File lengths (MBytes):  RWF=    312 Int=      0 D2E=      0 Chk=      8 Scr=      8
 Normal termination of Gaussian 16 at Sun Aug 28 07:15:20 2022.
