 Entering Gaussian System, Link 0=g16
 Input=H2O_H2O_800.com
 Output=H2O_H2O_800.log
 Initial command:
 /usr/site/hpc/x86_64/glibc-2.17/broadwell/gaussian/g16_a.03/pgi-16.5/g16/l1.exe "/gpfs/gpfs1/scratch/c7441284/ForceFieldModel/FittingData2/Gau-58063.inp" -scrdir="/gpfs/gpfs1/scratch/c7441284/ForceFieldModel/FittingData2/"
 Entering Link 1 = /usr/site/hpc/x86_64/glibc-2.17/broadwell/gaussian/g16_a.03/pgi-16.5/g16/l1.exe PID=     58064.
  
 Copyright (c) 1988,1990,1992,1993,1995,1998,2003,2009,2016,
            Gaussian, Inc.  All Rights Reserved.
  
 This is part of the Gaussian(R) 16 program.  It is based on
 the Gaussian(R) 09 system (copyright 2009, Gaussian, Inc.),
 the Gaussian(R) 03 system (copyright 2003, Gaussian, Inc.),
 the Gaussian(R) 98 system (copyright 1998, Gaussian, Inc.),
 the Gaussian(R) 94 system (copyright 1995, Gaussian, Inc.),
 the Gaussian 92(TM) system (copyright 1992, Gaussian, Inc.),
 the Gaussian 90(TM) system (copyright 1990, Gaussian, Inc.),
 the Gaussian 88(TM) system (copyright 1988, Gaussian, Inc.),
 the Gaussian 86(TM) system (copyright 1986, Carnegie Mellon
 University), and the Gaussian 82(TM) system (copyright 1983,
 Carnegie Mellon University). Gaussian is a federally registered
 trademark of Gaussian, Inc.
  
 This software contains proprietary and confidential information,
 including trade secrets, belonging to Gaussian, Inc.
  
 This software is provided under written license and may be
 used, copied, transmitted, or stored only in accord with that
 written license.
  
 The following legend is applicable only to US Government
 contracts under FAR:
  
                    RESTRICTED RIGHTS LEGEND
  
 Use, reproduction and disclosure by the US Government is
 subject to restrictions as set forth in subparagraphs (a)
 and (c) of the Commercial Computer Software - Restricted
 Rights clause in FAR 52.227-19.
  
 Gaussian, Inc.
 340 Quinnipiac St., Bldg. 40, Wallingford CT 06492
  
  
 ---------------------------------------------------------------
 Warning -- This program may not be used in any manner that
 competes with the business of Gaussian, Inc. or will provide
 assistance to any competitor of Gaussian, Inc.  The licensee
 of this program is prohibited from giving any competitor of
 Gaussian, Inc. access to this program.  By using this program,
 the user acknowledges that Gaussian, Inc. is engaged in the
 business of creating and licensing software in the field of
 computational chemistry and represents and warrants to the
 licensee that it is not a competitor of Gaussian, Inc. and that
 it will not use this program in any manner prohibited above.
 ---------------------------------------------------------------
  

 Cite this work as:
 Gaussian 16, Revision A.03,
 M. J. Frisch, G. W. Trucks, H. B. Schlegel, G. E. Scuseria, 
 M. A. Robb, J. R. Cheeseman, G. Scalmani, V. Barone, 
 G. A. Petersson, H. Nakatsuji, X. Li, M. Caricato, A. V. Marenich, 
 J. Bloino, B. G. Janesko, R. Gomperts, B. Mennucci, H. P. Hratchian, 
 J. V. Ortiz, A. F. Izmaylov, J. L. Sonnenberg, D. Williams-Young, 
 F. Ding, F. Lipparini, F. Egidi, J. Goings, B. Peng, A. Petrone, 
 T. Henderson, D. Ranasinghe, V. G. Zakrzewski, J. Gao, N. Rega, 
 G. Zheng, W. Liang, M. Hada, M. Ehara, K. Toyota, R. Fukuda, 
 J. Hasegawa, M. Ishida, T. Nakajima, Y. Honda, O. Kitao, H. Nakai, 
 T. Vreven, K. Throssell, J. A. Montgomery, Jr., J. E. Peralta, 
 F. Ogliaro, M. J. Bearpark, J. J. Heyd, E. N. Brothers, K. N. Kudin, 
 V. N. Staroverov, T. A. Keith, R. Kobayashi, J. Normand, 
 K. Raghavachari, A. P. Rendell, J. C. Burant, S. S. Iyengar, 
 J. Tomasi, M. Cossi, J. M. Millam, M. Klene, C. Adamo, R. Cammi, 
 J. W. Ochterski, R. L. Martin, K. Morokuma, O. Farkas, 
 J. B. Foresman, and D. J. Fox, Gaussian, Inc., Wallingford CT, 2016.
 
 ******************************************
 Gaussian 16:  ES64L-G16RevA.03 25-Dec-2016
                26-Aug-2022 
 ******************************************
 %NProcShared=4
 Will use up to    4 processors via shared memory.
 %Mem=4GB
 %Chk=H2O_H2O_800.chk
 ------------------
 #p CCSD(T)/cc-pVTZ
 ------------------
 1/38=1,172=1/1;
 2/12=2,17=6,18=5,40=1/2;
 3/5=16,6=1,11=9,25=1,30=1/1,2,3;
 4//1;
 5/5=2,38=5/2;
 8/6=4,9=120000,10=1/1,4;
 9/5=7,14=2/13;
 6/7=2,8=2,9=2,10=2/1;
 99/5=1,9=1/99;
 Leave Link    1 at Fri Aug 26 20:35:01 2022, MaxMem=   536870912 cpu:               0.5 elap:               0.2
 (Enter /usr/site/hpc/x86_64/glibc-2.17/broadwell/gaussian/g16_a.03/pgi-16.5/g16/l101.exe)
 -----------
 H2O_H2O_800
 -----------
 Symbolic Z-matrix:
 Charge =  0 Multiplicity = 1
 O                     0.       -0.00983   0. 
 H                    -0.79957  -0.58097   0. 
 H                     0.79957  -0.58097   0. 
 O                    -2.18011  -1.56708   0. 
 H                    -2.97968  -2.13821   0. 
 H                    -1.38054  -2.13821   0. 
 
 ITRead=  0  0  0  0  0  0
 MicOpt= -1 -1 -1 -1 -1 -1
 NAtoms=      6 NQM=        6 NQMF=       0 NMMI=      0 NMMIF=      0
                NMic=       0 NMicF=      0.
                    Isotopes and Nuclear Properties:
 (Nuclear quadrupole moments (NQMom) in fm**2, nuclear magnetic moments (NMagM)
  in nuclear magnetons)

  Atom         1           2           3           4           5           6
 IAtWgt=          16           1           1          16           1           1
 AtmWgt=  15.9949146   1.0078250   1.0078250  15.9949146   1.0078250   1.0078250
 NucSpn=           0           1           1           0           1           1
 AtZEff=  -0.0000000  -0.0000000  -0.0000000  -0.0000000  -0.0000000  -0.0000000
 NQMom=    0.0000000   0.0000000   0.0000000   0.0000000   0.0000000   0.0000000
 NMagM=    0.0000000   2.7928460   2.7928460   0.0000000   2.7928460   2.7928460
 AtZNuc=   8.0000000   1.0000000   1.0000000   8.0000000   1.0000000   1.0000000
 Leave Link  101 at Fri Aug 26 20:35:01 2022, MaxMem=   536870912 cpu:               0.7 elap:               0.2
 (Enter /usr/site/hpc/x86_64/glibc-2.17/broadwell/gaussian/g16_a.03/pgi-16.5/g16/l202.exe)
                          Input orientation:                          
 ---------------------------------------------------------------------
 Center     Atomic      Atomic             Coordinates (Angstroms)
 Number     Number       Type             X           Y           Z
 ---------------------------------------------------------------------
      1          8           0        0.000000   -0.009833    0.000000
      2          1           0       -0.799571   -0.580965    0.000000
      3          1           0        0.799571   -0.580965    0.000000
      4          8           0       -2.180110   -1.567080    0.000000
      5          1           0       -2.979681   -2.138212    0.000000
      6          1           0       -1.380538   -2.138212    0.000000
 ---------------------------------------------------------------------
                    Distance matrix (angstroms):
                    1          2          3          4          5
     1  O    0.000000
     2  H    0.982601   0.000000
     3  H    0.982601   1.599142   0.000000
     4  O    2.679160   1.696558   3.138618   0.000000
     5  H    3.661761   2.679160   4.087513   0.982601   0.000000
     6  H    2.536904   1.662089   2.679159   0.982602   1.599143
                    6
     6  H    0.000000
 Stoichiometry    H4O2
 Framework group  CS[SG(H4O2)]
 Deg. of freedom     9
 Full point group                 CS      NOp   2
 Largest Abelian subgroup         CS      NOp   2
 Largest concise Abelian subgroup C1      NOp   1
                         Standard orientation:                         
 ---------------------------------------------------------------------
 Center     Atomic      Atomic             Coordinates (Angstroms)
 Number     Number       Type             X           Y           Z
 ---------------------------------------------------------------------
      1          8           0        0.092949   -1.405973    0.000000
      2          1           0        0.092949   -0.423372    0.000000
      3          1           0       -0.836544   -1.724640    0.000000
      4          8           0        0.092949    1.273187    0.000000
      5          1           0        0.092949    2.255788    0.000000
      6          1           0       -0.836544    0.954519    0.000000
 ---------------------------------------------------------------------
 Rotational constants (GHZ):         308.6918170           7.5715717           7.3903028
 Leave Link  202 at Fri Aug 26 20:35:01 2022, MaxMem=   536870912 cpu:               0.0 elap:               0.0
 (Enter /usr/site/hpc/x86_64/glibc-2.17/broadwell/gaussian/g16_a.03/pgi-16.5/g16/l301.exe)
 Standard basis: CC-pVTZ (5D, 7F)
 Ernie: Thresh=  0.10000D-02 Tol=  0.10000D-05 Strict=F.
 Ernie:  6 primitive shells out of 84 were deleted.
 There are    92 symmetry adapted cartesian basis functions of A'  symmetry.
 There are    38 symmetry adapted cartesian basis functions of A"  symmetry.
 There are    80 symmetry adapted basis functions of A'  symmetry.
 There are    36 symmetry adapted basis functions of A"  symmetry.
   116 basis functions,   172 primitive gaussians,   130 cartesian basis functions
    10 alpha electrons       10 beta electrons
       nuclear repulsion energy        38.0481992885 Hartrees.
 IExCor=    0 DFT=F Ex=HF Corr=None ExCW=0 ScaHFX=  1.000000
 ScaDFX=  1.000000  1.000000  1.000000  1.000000 ScalE2=  1.000000  1.000000
 IRadAn=      5 IRanWt=     -1 IRanGd=            0 ICorTp=0 IEmpDi=  4
 NAtoms=    6 NActive=    6 NUniq=    6 SFac= 1.00D+00 NAtFMM=   60 NAOKFM=F Big=F
 Integral buffers will be    131072 words long.
 Raffenetti 1 integral format.
 Two-electron integral symmetry is turned on.
 Leave Link  301 at Fri Aug 26 20:35:01 2022, MaxMem=   536870912 cpu:               0.2 elap:               0.0
 (Enter /usr/site/hpc/x86_64/glibc-2.17/broadwell/gaussian/g16_a.03/pgi-16.5/g16/l302.exe)
 NPDir=0 NMtPBC=     1 NCelOv=     1 NCel=       1 NClECP=     1 NCelD=      1
         NCelK=      1 NCelE2=     1 NClLst=     1 CellRange=     0.0.
 One-electron integrals computed using PRISM.
 One-electron integral symmetry used in STVInt
 NBasis=   116 RedAO= T EigKep=  2.04D-03  NBF=    80    36
 NBsUse=   116 1.00D-06 EigRej= -1.00D+00 NBFU=    80    36
 Leave Link  302 at Fri Aug 26 20:35:02 2022, MaxMem=   536870912 cpu:               0.5 elap:               0.1
 (Enter /usr/site/hpc/x86_64/glibc-2.17/broadwell/gaussian/g16_a.03/pgi-16.5/g16/l303.exe)
 DipDrv:  MaxL=1.
 Leave Link  303 at Fri Aug 26 20:35:02 2022, MaxMem=   536870912 cpu:               0.1 elap:               0.0
 (Enter /usr/site/hpc/x86_64/glibc-2.17/broadwell/gaussian/g16_a.03/pgi-16.5/g16/l401.exe)
 ExpMin= 1.03D-01 ExpMax= 1.53D+04 ExpMxC= 5.22D+02 IAcc=3 IRadAn=         5 AccDes= 0.00D+00
 Harris functional with IExCor=  205 and IRadAn=       5 diagonalized for initial guess.
 HarFok:  IExCor=  205 AccDes= 0.00D+00 IRadAn=         5 IDoV= 1 UseB2=F ITyADJ=14
 ICtDFT=  3500011 ScaDFX=  1.000000  1.000000  1.000000  1.000000
 FoFCou: FMM=F IPFlag=           0 FMFlag=      100000 FMFlg1=           0
         NFxFlg=           0 DoJE=T BraDBF=F KetDBF=T FulRan=T
         wScrn=  0.000000 ICntrl=       500 IOpCl=  0 I1Cent=   200000004 NGrid=           0
         NMat0=    1 NMatS0=      1 NMatT0=    0 NMatD0=    1 NMtDS0=    0 NMtDT0=    0
 Petite list used in FoFCou.
 Harris En= -152.298388867845    
 JPrj=0 DoOrth=F DoCkMO=F.
 Initial guess orbital symmetries:
       Occupied  (A') (A') (A') (A') (A') (A') (A') (A') (A") (A")
       Virtual   (A') (A') (A') (A') (A') (A') (A') (A') (A") (A')
                 (A') (A") (A') (A") (A') (A") (A') (A") (A') (A")
                 (A') (A') (A') (A') (A') (A') (A') (A") (A') (A")
                 (A") (A') (A') (A") (A') (A') (A') (A') (A') (A')
                 (A') (A') (A") (A") (A') (A') (A") (A') (A") (A")
                 (A") (A') (A') (A') (A') (A") (A') (A") (A') (A")
                 (A') (A") (A') (A") (A') (A") (A') (A") (A') (A')
                 (A") (A') (A') (A') (A') (A') (A') (A') (A') (A')
                 (A") (A") (A') (A') (A") (A") (A") (A") (A') (A")
                 (A') (A") (A') (A') (A') (A") (A") (A') (A') (A')
                 (A') (A') (A') (A') (A') (A')
 The electronic state of the initial guess is 1-A'.
 Leave Link  401 at Fri Aug 26 20:35:02 2022, MaxMem=   536870912 cpu:               0.8 elap:               0.2
 (Enter /usr/site/hpc/x86_64/glibc-2.17/broadwell/gaussian/g16_a.03/pgi-16.5/g16/l502.exe)
 Keep R1 ints in memory in symmetry-blocked form, NReq=34823457.
 FoFCou: FMM=F IPFlag=           0 FMFlag=           0 FMFlg1=           0
         NFxFlg=           0 DoJE=F BraDBF=F KetDBF=F FulRan=T
         wScrn=  0.000000 ICntrl=       600 IOpCl=  0 I1Cent=           0 NGrid=           0
         NMat0=    1 NMatS0=   6786 NMatT0=    0 NMatD0=    1 NMtDS0=    0 NMtDT0=    0
 Petite list used in FoFCou.
 Closed shell SCF:
 Using DIIS extrapolation, IDIIS=  1040.
 NGot=   536870912 LenX=   525040673 LenY=   525023332
 Requested convergence on RMS density matrix=1.00D-08 within 128 cycles.
 Requested convergence on MAX density matrix=1.00D-06.
 Requested convergence on             energy=1.00D-06.
 No special actions if energy rises.

 Cycle   1  Pass 1  IDiag  1:
 E= -151.932235553399    
 DIIS: error= 5.63D-02 at cycle   1 NSaved=   1.
 NSaved= 1 IEnMin= 1 EnMin= -151.932235553399     IErMin= 1 ErrMin= 5.63D-02
 ErrMax= 5.63D-02  0.00D+00 EMaxC= 1.00D-01 BMatC= 3.86D-01 BMatP= 3.86D-01
 IDIUse=3 WtCom= 4.37D-01 WtEn= 5.63D-01
 Coeff-Com:  0.100D+01
 Coeff-En:   0.100D+01
 Coeff:      0.100D+01
 Gap=     0.491 Goal=   None    Shift=    0.000
 GapD=    0.491 DampG=2.000 DampE=0.500 DampFc=1.0000 IDamp=-1.
 RMSDP=2.79D-03 MaxDP=8.18D-02              OVMax= 1.20D-01

 Cycle   2  Pass 1  IDiag  1:
 E= -152.040473078761     Delta-E=       -0.108237525362 Rises=F Damp=F
 DIIS: error= 3.42D-02 at cycle   2 NSaved=   2.
 NSaved= 2 IEnMin= 2 EnMin= -152.040473078761     IErMin= 2 ErrMin= 3.42D-02
 ErrMax= 3.42D-02  0.00D+00 EMaxC= 1.00D-01 BMatC= 1.00D-01 BMatP= 3.86D-01
 IDIUse=3 WtCom= 6.58D-01 WtEn= 3.42D-01
 Coeff-Com:  0.307D+00 0.693D+00
 Coeff-En:   0.137D+00 0.863D+00
 Coeff:      0.249D+00 0.751D+00
 Gap=     0.615 Goal=   None    Shift=    0.000
 RMSDP=1.50D-03 MaxDP=4.72D-02 DE=-1.08D-01 OVMax= 5.78D-02

 Cycle   3  Pass 1  IDiag  1:
 E= -152.097919601958     Delta-E=       -0.057446523197 Rises=F Damp=F
 DIIS: error= 7.71D-03 at cycle   3 NSaved=   3.
 NSaved= 3 IEnMin= 3 EnMin= -152.097919601958     IErMin= 3 ErrMin= 7.71D-03
 ErrMax= 7.71D-03  0.00D+00 EMaxC= 1.00D-01 BMatC= 5.57D-03 BMatP= 1.00D-01
 IDIUse=3 WtCom= 9.23D-01 WtEn= 7.71D-02
 Coeff-Com: -0.305D-01 0.158D+00 0.872D+00
 Coeff-En:   0.000D+00 0.000D+00 0.100D+01
 Coeff:     -0.282D-01 0.146D+00 0.882D+00
 Gap=     0.587 Goal=   None    Shift=    0.000
 RMSDP=2.53D-04 MaxDP=6.60D-03 DE=-5.74D-02 OVMax= 1.28D-02

 Cycle   4  Pass 1  IDiag  1:
 E= -152.101381791364     Delta-E=       -0.003462189406 Rises=F Damp=F
 DIIS: error= 7.05D-04 at cycle   4 NSaved=   4.
 NSaved= 4 IEnMin= 4 EnMin= -152.101381791364     IErMin= 4 ErrMin= 7.05D-04
 ErrMax= 7.05D-04  0.00D+00 EMaxC= 1.00D-01 BMatC= 3.15D-05 BMatP= 5.57D-03
 IDIUse=3 WtCom= 9.93D-01 WtEn= 7.05D-03
 Coeff-Com:  0.721D-02-0.628D-01-0.257D+00 0.131D+01
 Coeff-En:   0.000D+00 0.000D+00 0.000D+00 0.100D+01
 Coeff:      0.716D-02-0.623D-01-0.255D+00 0.131D+01
 Gap=     0.590 Goal=   None    Shift=    0.000
 RMSDP=6.01D-05 MaxDP=9.57D-04 DE=-3.46D-03 OVMax= 2.72D-03

 Cycle   5  Pass 1  IDiag  1:
 E= -152.101432934680     Delta-E=       -0.000051143316 Rises=F Damp=F
 DIIS: error= 1.87D-04 at cycle   5 NSaved=   5.
 NSaved= 5 IEnMin= 5 EnMin= -152.101432934680     IErMin= 5 ErrMin= 1.87D-04
 ErrMax= 1.87D-04  0.00D+00 EMaxC= 1.00D-01 BMatC= 1.43D-06 BMatP= 3.15D-05
 IDIUse=3 WtCom= 9.98D-01 WtEn= 1.87D-03
 Coeff-Com:  0.880D-03-0.303D-02-0.142D-01-0.136D+00 0.115D+01
 Coeff-En:   0.000D+00 0.000D+00 0.000D+00 0.000D+00 0.100D+01
 Coeff:      0.879D-03-0.303D-02-0.141D-01-0.136D+00 0.115D+01
 Gap=     0.590 Goal=   None    Shift=    0.000
 RMSDP=1.34D-05 MaxDP=2.40D-04 DE=-5.11D-05 OVMax= 6.88D-04

 Cycle   6  Pass 1  IDiag  1:
 E= -152.101435624517     Delta-E=       -0.000002689837 Rises=F Damp=F
 DIIS: error= 4.83D-05 at cycle   6 NSaved=   6.
 NSaved= 6 IEnMin= 6 EnMin= -152.101435624517     IErMin= 6 ErrMin= 4.83D-05
 ErrMax= 4.83D-05  0.00D+00 EMaxC= 1.00D-01 BMatC= 1.13D-07 BMatP= 1.43D-06
 IDIUse=1 WtCom= 1.00D+00 WtEn= 0.00D+00
 Coeff-Com: -0.141D-03 0.223D-02 0.916D-02-0.950D-01 0.234D+00 0.850D+00
 Coeff:     -0.141D-03 0.223D-02 0.916D-02-0.950D-01 0.234D+00 0.850D+00
 Gap=     0.590 Goal=   None    Shift=    0.000
 RMSDP=3.06D-06 MaxDP=8.82D-05 DE=-2.69D-06 OVMax= 1.52D-04

 Cycle   7  Pass 1  IDiag  1:
 E= -152.101435770251     Delta-E=       -0.000000145733 Rises=F Damp=F
 DIIS: error= 1.31D-05 at cycle   7 NSaved=   7.
 NSaved= 7 IEnMin= 7 EnMin= -152.101435770251     IErMin= 7 ErrMin= 1.31D-05
 ErrMax= 1.31D-05  0.00D+00 EMaxC= 1.00D-01 BMatC= 1.19D-08 BMatP= 1.13D-07
 IDIUse=1 WtCom= 1.00D+00 WtEn= 0.00D+00
 Coeff-Com: -0.113D-03 0.552D-03 0.229D-02 0.721D-02-0.127D+00 0.113D+00
 Coeff-Com:  0.100D+01
 Coeff:     -0.113D-03 0.552D-03 0.229D-02 0.721D-02-0.127D+00 0.113D+00
 Coeff:      0.100D+01
 Gap=     0.590 Goal=   None    Shift=    0.000
 RMSDP=1.24D-06 MaxDP=2.77D-05 DE=-1.46D-07 OVMax= 6.39D-05

 Cycle   8  Pass 1  IDiag  1:
 E= -152.101435788750     Delta-E=       -0.000000018499 Rises=F Damp=F
 DIIS: error= 1.99D-06 at cycle   8 NSaved=   8.
 NSaved= 8 IEnMin= 8 EnMin= -152.101435788750     IErMin= 8 ErrMin= 1.99D-06
 ErrMax= 1.99D-06  0.00D+00 EMaxC= 1.00D-01 BMatC= 4.88D-10 BMatP= 1.19D-08
 IDIUse=1 WtCom= 1.00D+00 WtEn= 0.00D+00
 Coeff-Com:  0.234D-04-0.243D-03-0.103D-02 0.706D-02-0.423D-02-0.625D-01
 Coeff-Com: -0.978D-01 0.116D+01
 Coeff:      0.234D-04-0.243D-03-0.103D-02 0.706D-02-0.423D-02-0.625D-01
 Coeff:     -0.978D-01 0.116D+01
 Gap=     0.590 Goal=   None    Shift=    0.000
 RMSDP=2.92D-07 MaxDP=5.20D-06 DE=-1.85D-08 OVMax= 1.43D-05

 Cycle   9  Pass 1  IDiag  1:
 E= -152.101435789761     Delta-E=       -0.000000001011 Rises=F Damp=F
 DIIS: error= 5.52D-07 at cycle   9 NSaved=   9.
 NSaved= 9 IEnMin= 9 EnMin= -152.101435789761     IErMin= 9 ErrMin= 5.52D-07
 ErrMax= 5.52D-07  0.00D+00 EMaxC= 1.00D-01 BMatC= 2.91D-11 BMatP= 4.88D-10
 IDIUse=1 WtCom= 1.00D+00 WtEn= 0.00D+00
 Coeff-Com:  0.272D-05 0.134D-04 0.840D-04-0.213D-02 0.932D-02 0.696D-02
 Coeff-Com: -0.388D-01-0.267D+00 0.129D+01
 Coeff:      0.272D-05 0.134D-04 0.840D-04-0.213D-02 0.932D-02 0.696D-02
 Coeff:     -0.388D-01-0.267D+00 0.129D+01
 Gap=     0.590 Goal=   None    Shift=    0.000
 RMSDP=7.02D-08 MaxDP=1.06D-06 DE=-1.01D-09 OVMax= 3.55D-06

 Cycle  10  Pass 1  IDiag  1:
 E= -152.101435789829     Delta-E=       -0.000000000067 Rises=F Damp=F
 DIIS: error= 9.65D-08 at cycle  10 NSaved=  10.
 NSaved=10 IEnMin=10 EnMin= -152.101435789829     IErMin=10 ErrMin= 9.65D-08
 ErrMax= 9.65D-08  0.00D+00 EMaxC= 1.00D-01 BMatC= 7.45D-13 BMatP= 2.91D-11
 IDIUse=1 WtCom= 1.00D+00 WtEn= 0.00D+00
 Coeff-Com: -0.991D-06 0.650D-05 0.239D-04-0.226D-04-0.587D-03 0.601D-03
 Coeff-Com:  0.506D-02 0.732D-02-0.178D+00 0.117D+01
 Coeff:     -0.991D-06 0.650D-05 0.239D-04-0.226D-04-0.587D-03 0.601D-03
 Coeff:      0.506D-02 0.732D-02-0.178D+00 0.117D+01
 Gap=     0.590 Goal=   None    Shift=    0.000
 RMSDP=9.25D-09 MaxDP=1.42D-07 DE=-6.74D-11 OVMax= 5.16D-07

 SCF Done:  E(RHF) =  -152.101435790     A.U. after   10 cycles
            NFock= 10  Conv=0.93D-08     -V/T= 2.0016
 KE= 1.518604759337D+02 PE=-4.373874721085D+02 EE= 9.537736109645D+01
 Leave Link  502 at Fri Aug 26 20:35:03 2022, MaxMem=   536870912 cpu:               4.5 elap:               1.2
 (Enter /usr/site/hpc/x86_64/glibc-2.17/broadwell/gaussian/g16_a.03/pgi-16.5/g16/l801.exe)
 Windowed orbitals will be sorted by symmetry type.
 ExpMin= 1.03D-01 ExpMax= 1.53D+04 ExpMxC= 5.22D+02 IAcc=3 IRadAn=         5 AccDes= 0.00D+00
 HarFok:  IExCor=  205 AccDes= 0.00D+00 IRadAn=         5 IDoV=-2 UseB2=F ITyADJ=14
 ICtDFT= 12500011 ScaDFX=  1.000000  1.000000  1.000000  1.000000
 Largest valence mixing into a core orbital is  1.12D-04
 Largest core mixing into a valence orbital is  1.77D-05
 Range of M.O.s used for correlation:     3   116
 NBasis=   116 NAE=    10 NBE=    10 NFC=     2 NFV=     0
 NROrb=    114 NOA=     8 NOB=     8 NVA=   106 NVB=   106
 Leave Link  801 at Fri Aug 26 20:35:03 2022, MaxMem=   536870912 cpu:               0.3 elap:               0.1
 (Enter /usr/site/hpc/x86_64/glibc-2.17/broadwell/gaussian/g16_a.03/pgi-16.5/g16/l804.exe)
 Closed-shell transformation, MDV=   536870912 ITran=4 ISComp=2.
 Unit  1 TFree=        834515 TCopy=        406125.
 Semi-Direct transformation.
 ModeAB=           2 MOrb=             8 LenV=     536361308
 LASXX=      2873146 LTotXX=     2873146 LenRXX=     2873146
 LTotAB=     2958132 MaxLAS=     7765680 LenRXY=     7765680
 NonZer=     7880592 LenScr=    12058624 LnRSAI=           0
 LnScr1=           0 LExtra=           0 Total=     22697450
 MaxDsk=          -1 SrtSym=           F ITran=            4
 DoSDTr:  NPSUse=  4
 JobTyp=0 Pass  1:  I=   1 to   8.
 (rs|ai) integrals will be sorted in core.
 Complete sort for first half transformation.
 First half transformation complete.
 Complete sort for second half transformation.
 Second half transformation complete.
 Spin components of T(2) and E(2):
     alpha-alpha T2 =       0.1596226055D-01 E2=     -0.6511805427D-01
     alpha-beta  T2 =       0.9231063658D-01 E2=     -0.4007297056D+00
     beta-beta   T2 =       0.1596226055D-01 E2=     -0.6511805427D-01
 ANorm=    0.1060299560D+01
 E2 =    -0.5309658141D+00 EUMP2 =    -0.15263240160394D+03
 Leave Link  804 at Fri Aug 26 20:35:05 2022, MaxMem=   536870912 cpu:               5.2 elap:               1.3
 (Enter /usr/site/hpc/x86_64/glibc-2.17/broadwell/gaussian/g16_a.03/pgi-16.5/g16/l913.exe)
 CIDS:  MDV=   536870912.
 Frozen-core window:  NFC=   2 NFV=   0.
 IFCWin=0 IBDFC=1 NFBD=     0     0 NFCmp=     0     0 NFFFC=     0     0
 Using DD3R+UMP44R for 1st iteration.
 Using DD4RQ for 2nd and later iterations.
 Keep R2 and R3 ints in memory in symmetry-blocked form, NReq=35357534.
 FoFCou: FMM=F IPFlag=           0 FMFlag=           0 FMFlg1=           0
         NFxFlg=           0 DoJE=F BraDBF=F KetDBF=F FulRan=T
         wScrn=  0.000000 ICntrl=       600 IOpCl=  0 I1Cent=           0 NGrid=           0
         NMat0=    1 NMatS0=   6786 NMatT0=    0 NMatD0=    1 NMtDS0=    0 NMtDT0=    0
 Petite list used in FoFCou.
 CIDS: In Core Option IDoMem=           1.
 CCSD(T)
 =======
 Iterations=  50 Convergence= 0.100D-06
 Produce multiple copies of IABC intergrals
 Iteration Nr.   1
 **********************
 DD1Dir will call FoFMem   1 times, MxPair=        72
 NAB=    36 NAA=     0 NBB=     0.
 MP4(R+Q)=  0.79678057D-02
 Maximum subspace dimension=  5
 A-vector RMS=  1.9433585D-03 Max=  7.7671981D-03 conv= 1.00D-05.
 RLE energy=       -0.5296565181
 E3=       -0.67225306D-02        EUMP3=      -0.15263912413D+03
 E4(DQ)=   -0.11023004D-02        UMP4(DQ)=   -0.15264022643D+03
 E4(SDQ)=  -0.44068757D-02        UMP4(SDQ)=  -0.15264353101D+03
 VARIATIONAL ENERGIES WITH THE FIRST-ORDER WAVEFUNCTION:
 DE(Corr)= -0.52965329     E(Corr)=     -152.63108908    
 NORM(A)=   0.10603319D+01
 Iteration Nr.   2
 **********************
 DD1Dir will call FoFMem   1 times, MxPair=        72
 NAB=    36 NAA=     0 NBB=     0.
 A-vector RMS=  2.1191958D-04 Max=  1.5972496D-03 conv= 1.00D-05.
 RLE energy=       -0.5408167698
 DE(Corr)= -0.53978563     E(CORR)=     -152.64122142     Delta=-1.01D-02
 NORM(A)=   0.10641080D+01
 Iteration Nr.   3
 **********************
 DD1Dir will call FoFMem   1 times, MxPair=        72
 NAB=    36 NAA=     0 NBB=     0.
 A-vector RMS=  2.0531969D-04 Max=  1.7849607D-03 conv= 1.00D-05.
 RLE energy=       -0.5413115838
 DE(Corr)= -0.54070362     E(CORR)=     -152.64213941     Delta=-9.18D-04
 NORM(A)=   0.10647496D+01
 Iteration Nr.   4
 **********************
 DD1Dir will call FoFMem   1 times, MxPair=        72
 NAB=    36 NAA=     0 NBB=     0.
 A-vector RMS=  4.1004677D-05 Max=  3.7308734D-04 conv= 1.00D-05.
 RLE energy=       -0.5413850322
 DE(Corr)= -0.54135095     E(CORR)=     -152.64278674     Delta=-6.47D-04
 NORM(A)=   0.10648716D+01
 Iteration Nr.   5
 **********************
 DD1Dir will call FoFMem   1 times, MxPair=        72
 NAB=    36 NAA=     0 NBB=     0.
 A-vector RMS=  2.6497346D-05 Max=  3.1881927D-04 conv= 1.00D-05.
 RLE energy=       -0.5414038286
 DE(Corr)= -0.54139494     E(CORR)=     -152.64283073     Delta=-4.40D-05
 NORM(A)=   0.10648934D+01
 Iteration Nr.   6
 **********************
 DD1Dir will call FoFMem   1 times, MxPair=        72
 NAB=    36 NAA=     0 NBB=     0.
 A-vector RMS=  6.9577869D-06 Max=  5.9013442D-05 conv= 1.00D-05.
 RLE energy=       -0.5413984871
 DE(Corr)= -0.54139989     E(CORR)=     -152.64283568     Delta=-4.95D-06
 NORM(A)=   0.10648942D+01
 Iteration Nr.   7
 **********************
 DD1Dir will call FoFMem   1 times, MxPair=        72
 NAB=    36 NAA=     0 NBB=     0.
 A-vector RMS=  3.3758482D-06 Max=  3.6893954D-05 conv= 1.00D-05.
 RLE energy=       -0.5413976220
 DE(Corr)= -0.54140015     E(CORR)=     -152.64283594     Delta=-2.61D-07
 NORM(A)=   0.10648950D+01
 Iteration Nr.   8
 **********************
 DD1Dir will call FoFMem   1 times, MxPair=        72
 NAB=    36 NAA=     0 NBB=     0.
 A-vector RMS=  1.4154527D-06 Max=  1.3227138D-05 conv= 1.00D-05.
 RLE energy=       -0.5413994121
 DE(Corr)= -0.54139974     E(CORR)=     -152.64283553     Delta= 4.13D-07
 NORM(A)=   0.10648960D+01
 Iteration Nr.   9
 **********************
 DD1Dir will call FoFMem   1 times, MxPair=        72
 NAB=    36 NAA=     0 NBB=     0.
 A-vector RMS=  3.4082321D-07 Max=  2.7303362D-06 conv= 1.00D-05.
 RLE energy=       -0.5413996220
 DE(Corr)= -0.54139969     E(CORR)=     -152.64283548     Delta= 4.60D-08
 NORM(A)=   0.10648964D+01
 CI/CC converged in    9 iterations to DelEn= 4.60D-08 Conv= 1.00D-07 ErrA1= 3.41D-07 Conv= 1.00D-05
 Wavefunction amplitudes converged. E(Corr)=     -152.64283548    
 Largest amplitude= 3.47D-02
 IPart=  4 IA=    7   11.05% done.
 IPart=  3 IA=   13   21.46% done.
 IPart=  1 IA=   19   31.21% done.
 IPart=  2 IA=   25   40.32% done.
 IPart=  2 IA=   32   50.13% done.
 IPart=  2 IA=   40   60.27% done.
 IPart=  4 IA=   49   70.30% done.
 IPart=  2 IA=   60   80.58% done.
 IPart=  1 IA=   74   90.51% done.
 Time for triples=       54.34 seconds.
 T4(CCSD)= -0.16868533D-01
 T5(CCSD)=  0.45040105D-03
 CCSD(T)= -0.15265925361D+03
 Discarding MO integrals.
 Leave Link  913 at Fri Aug 26 20:35:24 2022, MaxMem=   536870912 cpu:              77.8 elap:              19.6
 (Enter /usr/site/hpc/x86_64/glibc-2.17/broadwell/gaussian/g16_a.03/pgi-16.5/g16/l601.exe)
 Copying SCF densities to generalized density rwf, IOpCl= 0 IROHF=0.

 **********************************************************************

            Population analysis using the SCF density.

 **********************************************************************

 Orbital symmetries:
       Occupied  (A') (A') (A') (A') (A') (A') (A') (A") (A') (A")
       Virtual   (A') (A') (A') (A') (A') (A') (A') (A') (A') (A")
                 (A') (A') (A") (A") (A') (A") (A') (A") (A') (A")
                 (A') (A') (A') (A') (A') (A') (A') (A") (A') (A")
                 (A") (A') (A') (A') (A") (A') (A') (A') (A') (A')
                 (A') (A') (A") (A") (A') (A') (A') (A") (A") (A')
                 (A") (A") (A') (A') (A") (A') (A") (A") (A') (A")
                 (A') (A') (A') (A") (A') (A") (A') (A') (A') (A")
                 (A") (A') (A') (A') (A') (A') (A') (A') (A') (A')
                 (A") (A") (A') (A') (A") (A") (A") (A") (A') (A")
                 (A") (A') (A') (A") (A') (A') (A") (A') (A') (A')
                 (A') (A') (A') (A') (A') (A')
 The electronic state is 1-A'.
 Alpha  occ. eigenvalues --  -20.59136 -20.52953  -1.37156  -1.30619  -0.75920
 Alpha  occ. eigenvalues --   -0.67885  -0.59782  -0.53844  -0.53677  -0.47642
 Alpha virt. eigenvalues --    0.11405   0.16387   0.20926   0.31431   0.48121
 Alpha virt. eigenvalues --    0.52417   0.58575   0.62551   0.68676   0.71144
 Alpha virt. eigenvalues --    0.73746   0.78477   0.79083   0.82333   0.82723
 Alpha virt. eigenvalues --    0.89437   0.92111   0.95938   1.01388   1.07281
 Alpha virt. eigenvalues --    1.09533   1.15983   1.35786   1.37859   1.49739
 Alpha virt. eigenvalues --    1.52301   1.56694   1.91361   1.91687   2.00209
 Alpha virt. eigenvalues --    2.05554   2.09914   2.14768   2.18793   2.22549
 Alpha virt. eigenvalues --    2.27062   2.29434   2.40764   2.62345   2.85275
 Alpha virt. eigenvalues --    2.95725   3.26196   3.30056   3.41293   3.43719
 Alpha virt. eigenvalues --    3.50520   3.53040   3.53911   3.57569   3.69121
 Alpha virt. eigenvalues --    3.75334   3.81955   3.82397   3.89770   3.91703
 Alpha virt. eigenvalues --    3.94334   3.97769   4.00230   4.06269   4.06405
 Alpha virt. eigenvalues --    4.11685   4.14135   4.19795   4.25897   4.31096
 Alpha virt. eigenvalues --    4.37380   4.42428   4.55266   4.59532   4.65065
 Alpha virt. eigenvalues --    4.72380   4.75443   4.84715   4.91432   5.03015
 Alpha virt. eigenvalues --    5.24514   5.26804   5.38711   5.58761   5.68659
 Alpha virt. eigenvalues --    5.94213   6.00441   6.39852   6.46645   6.76589
 Alpha virt. eigenvalues --    6.83896   6.90118   6.94051   6.96378   7.02272
 Alpha virt. eigenvalues --    7.04543   7.04572   7.07015   7.17018   7.18332
 Alpha virt. eigenvalues --    7.21338   7.22931   7.31305   7.57682   7.62513
 Alpha virt. eigenvalues --    7.76589   7.84111   8.11338   8.45782  12.82151
 Alpha virt. eigenvalues --   13.25118
          Condensed to atoms (all electrons):
               1          2          3          4          5          6
     1  O    7.840771   0.374152   0.342813  -0.022591   0.000934   0.005985
     2  H    0.374152   0.362032  -0.045184   0.035579  -0.003436  -0.008937
     3  H    0.342813  -0.045184   0.473243   0.000305  -0.000035   0.004001
     4  O   -0.022591   0.035579   0.000305   7.815475   0.300035   0.301973
     5  H    0.000934  -0.003436  -0.000035   0.300035   0.481065  -0.013683
     6  H    0.005985  -0.008937   0.004001   0.301973  -0.013683   0.483589
 Mulliken charges:
               1
     1  O   -0.542065
     2  H    0.285793
     3  H    0.224858
     4  O   -0.430777
     5  H    0.235119
     6  H    0.227071
 Sum of Mulliken charges =  -0.00000
 Mulliken charges with hydrogens summed into heavy atoms:
               1
     1  O   -0.031414
     4  O    0.031414
 Electronic spatial extent (au):  <R**2>=            166.9560
 Charge=             -0.0000 electrons
 Dipole moment (field-independent basis, Debye):
    X=             -3.0360    Y=              2.9432    Z=              0.0000  Tot=              4.2284
 Quadrupole moment (field-independent basis, Debye-Ang):
   XX=            -10.8991   YY=             -9.3108   ZZ=            -14.6704
   XY=              2.0582   XZ=              0.0000   YZ=              0.0000
 Traceless Quadrupole moment (field-independent basis, Debye-Ang):
   XX=              0.7277   YY=              2.3160   ZZ=             -3.0437
   XY=              2.0582   XZ=              0.0000   YZ=              0.0000
 Octapole moment (field-independent basis, Debye-Ang**2):
  XXX=             -3.3520  YYY=             19.5574  ZZZ=              0.0000  XYY=             -5.9686
  XXY=             -0.4575  XXZ=              0.0000  XZZ=             -0.3804  YZZ=              0.5825
  YYZ=              0.0000  XYZ=              0.0000
 Hexadecapole moment (field-independent basis, Debye-Ang**3):
 XXXX=            -11.9478 YYYY=           -110.5948 ZZZZ=            -11.2974 XXXY=              0.5827
 XXXZ=              0.0000 YYYX=             11.5552 YYYZ=              0.0000 ZZZX=              0.0000
 ZZZY=              0.0000 XXYY=            -24.0177 XXZZ=             -4.3470 YYZZ=            -30.8337
 XXYZ=              0.0000 YYXZ=              0.0000 ZZXY=             -0.1952
 N-N= 3.804819928853D+01 E-N=-4.373874723423D+02  KE= 1.518604759337D+02
 Symmetry A'   KE= 1.428352070183D+02
 Symmetry A"   KE= 9.025268915436D+00
 Leave Link  601 at Fri Aug 26 20:35:24 2022, MaxMem=   536870912 cpu:               0.2 elap:               0.1
 (Enter /usr/site/hpc/x86_64/glibc-2.17/broadwell/gaussian/g16_a.03/pgi-16.5/g16/l9999.exe)
 1\1\GINC-N041\SP\RCCSD(T)-FC\CC-pVTZ\H4O2\C7441284\26-Aug-2022\0\\#p C
 CSD(T)/cc-pVTZ\\H2O_H2O_800\\0,1\O,0,0.,-0.009833,0.\H,0,-0.799571,-0.
 580965,0.\H,0,0.799571,-0.580965,0.\O,0,-2.18011,-1.56708,0.\H,0,-2.97
 9681,-2.138212,0.\H,0,-1.380538,-2.138212,0.\\Version=ES64L-G16RevA.03
 \State=1-A'\HF=-152.1014358\MP2=-152.6324016\MP3=-152.6391241\MP4D=-15
 2.6481942\MP4DQ=-152.6402264\MP4SDQ=-152.643531\CCSD=-152.6428355\CCSD
 (T)=-152.6592536\RMSD=9.254e-09\PG=CS [SG(H4O2)]\\@


 IT IS A CAPITAL MISTAKE TO THEORIZE BEFORE ONE HAS
 DATA.  INSENSIBLY ONE BEGINS TO TWIST FACTS TO SUIT
 THEORIES RATHER THAN THEORIES TO SUIT FACTS.

                                         -- SHERLOCK HOLMES
 Job cpu time:       0 days  0 hours  1 minutes 31.1 seconds.
 Elapsed time:       0 days  0 hours  0 minutes 23.1 seconds.
 File lengths (MBytes):  RWF=    572 Int=      0 D2E=      0 Chk=      8 Scr=      8
 Normal termination of Gaussian 16 at Fri Aug 26 20:35:24 2022.
