 Entering Gaussian System, Link 0=g16
 Input=H2O_H2O_445.com
 Output=H2O_H2O_445.log
 Initial command:
 /usr/site/hpc/x86_64/glibc-2.17/broadwell/gaussian/g16_a.03/pgi-16.5/g16/l1.exe "/gpfs/gpfs1/scratch/c7441284/ForceFieldModel/FittingData2/Gau-4192099.inp" -scrdir="/gpfs/gpfs1/scratch/c7441284/ForceFieldModel/FittingData2/"
 Entering Link 1 = /usr/site/hpc/x86_64/glibc-2.17/broadwell/gaussian/g16_a.03/pgi-16.5/g16/l1.exe PID=   4192100.
  
 Copyright (c) 1988,1990,1992,1993,1995,1998,2003,2009,2016,
            Gaussian, Inc.  All Rights Reserved.
  
 This is part of the Gaussian(R) 16 program.  It is based on
 the Gaussian(R) 09 system (copyright 2009, Gaussian, Inc.),
 the Gaussian(R) 03 system (copyright 2003, Gaussian, Inc.),
 the Gaussian(R) 98 system (copyright 1998, Gaussian, Inc.),
 the Gaussian(R) 94 system (copyright 1995, Gaussian, Inc.),
 the Gaussian 92(TM) system (copyright 1992, Gaussian, Inc.),
 the Gaussian 90(TM) system (copyright 1990, Gaussian, Inc.),
 the Gaussian 88(TM) system (copyright 1988, Gaussian, Inc.),
 the Gaussian 86(TM) system (copyright 1986, Carnegie Mellon
 University), and the Gaussian 82(TM) system (copyright 1983,
 Carnegie Mellon University). Gaussian is a federally registered
 trademark of Gaussian, Inc.
  
 This software contains proprietary and confidential information,
 including trade secrets, belonging to Gaussian, Inc.
  
 This software is provided under written license and may be
 used, copied, transmitted, or stored only in accord with that
 written license.
  
 The following legend is applicable only to US Government
 contracts under FAR:
  
                    RESTRICTED RIGHTS LEGEND
  
 Use, reproduction and disclosure by the US Government is
 subject to restrictions as set forth in subparagraphs (a)
 and (c) of the Commercial Computer Software - Restricted
 Rights clause in FAR 52.227-19.
  
 Gaussian, Inc.
 340 Quinnipiac St., Bldg. 40, Wallingford CT 06492
  
  
 ---------------------------------------------------------------
 Warning -- This program may not be used in any manner that
 competes with the business of Gaussian, Inc. or will provide
 assistance to any competitor of Gaussian, Inc.  The licensee
 of this program is prohibited from giving any competitor of
 Gaussian, Inc. access to this program.  By using this program,
 the user acknowledges that Gaussian, Inc. is engaged in the
 business of creating and licensing software in the field of
 computational chemistry and represents and warrants to the
 licensee that it is not a competitor of Gaussian, Inc. and that
 it will not use this program in any manner prohibited above.
 ---------------------------------------------------------------
  

 Cite this work as:
 Gaussian 16, Revision A.03,
 M. J. Frisch, G. W. Trucks, H. B. Schlegel, G. E. Scuseria, 
 M. A. Robb, J. R. Cheeseman, G. Scalmani, V. Barone, 
 G. A. Petersson, H. Nakatsuji, X. Li, M. Caricato, A. V. Marenich, 
 J. Bloino, B. G. Janesko, R. Gomperts, B. Mennucci, H. P. Hratchian, 
 J. V. Ortiz, A. F. Izmaylov, J. L. Sonnenberg, D. Williams-Young, 
 F. Ding, F. Lipparini, F. Egidi, J. Goings, B. Peng, A. Petrone, 
 T. Henderson, D. Ranasinghe, V. G. Zakrzewski, J. Gao, N. Rega, 
 G. Zheng, W. Liang, M. Hada, M. Ehara, K. Toyota, R. Fukuda, 
 J. Hasegawa, M. Ishida, T. Nakajima, Y. Honda, O. Kitao, H. Nakai, 
 T. Vreven, K. Throssell, J. A. Montgomery, Jr., J. E. Peralta, 
 F. Ogliaro, M. J. Bearpark, J. J. Heyd, E. N. Brothers, K. N. Kudin, 
 V. N. Staroverov, T. A. Keith, R. Kobayashi, J. Normand, 
 K. Raghavachari, A. P. Rendell, J. C. Burant, S. S. Iyengar, 
 J. Tomasi, M. Cossi, J. M. Millam, M. Klene, C. Adamo, R. Cammi, 
 J. W. Ochterski, R. L. Martin, K. Morokuma, O. Farkas, 
 J. B. Foresman, and D. J. Fox, Gaussian, Inc., Wallingford CT, 2016.
 
 ******************************************
 Gaussian 16:  ES64L-G16RevA.03 25-Dec-2016
                26-Aug-2022 
 ******************************************
 %NProcShared=4
 Will use up to    4 processors via shared memory.
 %Mem=4GB
 %Chk=H2O_H2O_445.chk
 ------------------
 #p CCSD(T)/cc-pVTZ
 ------------------
 1/38=1,172=1/1;
 2/12=2,17=6,18=5,40=1/2;
 3/5=16,6=1,11=9,25=1,30=1/1,2,3;
 4//1;
 5/5=2,38=5/2;
 8/6=4,9=120000,10=1/1,4;
 9/5=7,14=2/13;
 6/7=2,8=2,9=2,10=2/1;
 99/5=1,9=1/99;
 Leave Link    1 at Fri Aug 26 18:18:18 2022, MaxMem=   536870912 cpu:               1.3 elap:               0.4
 (Enter /usr/site/hpc/x86_64/glibc-2.17/broadwell/gaussian/g16_a.03/pgi-16.5/g16/l101.exe)
 -----------
 H2O_H2O_445
 -----------
 Symbolic Z-matrix:
 Charge =  0 Multiplicity = 1
 O                     0.       -0.00983   0. 
 H                    -0.79957  -0.58097   0. 
 H                     0.79957  -0.58097   0. 
 O                    -1.94617  -1.38591   0. 
 H                    -2.70479  -0.7614    0. 
 H                    -2.2909   -2.30606   0. 
 
 ITRead=  0  0  0  0  0  0
 MicOpt= -1 -1 -1 -1 -1 -1
 NAtoms=      6 NQM=        6 NQMF=       0 NMMI=      0 NMMIF=      0
                NMic=       0 NMicF=      0.
                    Isotopes and Nuclear Properties:
 (Nuclear quadrupole moments (NQMom) in fm**2, nuclear magnetic moments (NMagM)
  in nuclear magnetons)

  Atom         1           2           3           4           5           6
 IAtWgt=          16           1           1          16           1           1
 AtmWgt=  15.9949146   1.0078250   1.0078250  15.9949146   1.0078250   1.0078250
 NucSpn=           0           1           1           0           1           1
 AtZEff=  -0.0000000  -0.0000000  -0.0000000  -0.0000000  -0.0000000  -0.0000000
 NQMom=    0.0000000   0.0000000   0.0000000   0.0000000   0.0000000   0.0000000
 NMagM=    0.0000000   2.7928460   2.7928460   0.0000000   2.7928460   2.7928460
 AtZNuc=   8.0000000   1.0000000   1.0000000   8.0000000   1.0000000   1.0000000
 Leave Link  101 at Fri Aug 26 18:18:18 2022, MaxMem=   536870912 cpu:               0.7 elap:               0.2
 (Enter /usr/site/hpc/x86_64/glibc-2.17/broadwell/gaussian/g16_a.03/pgi-16.5/g16/l202.exe)
                          Input orientation:                          
 ---------------------------------------------------------------------
 Center     Atomic      Atomic             Coordinates (Angstroms)
 Number     Number       Type             X           Y           Z
 ---------------------------------------------------------------------
      1          8           0        0.000000   -0.009833    0.000000
      2          1           0       -0.799571   -0.580965    0.000000
      3          1           0        0.799571   -0.580965    0.000000
      4          8           0       -1.946174   -1.385908    0.000000
      5          1           0       -2.704790   -0.761402    0.000000
      6          1           0       -2.290901   -2.306055    0.000000
 ---------------------------------------------------------------------
                    Distance matrix (angstroms):
                    1          2          3          4          5
     1  O    0.000000
     2  H    0.982601   0.000000
     3  H    0.982601   1.599142   0.000000
     4  O    2.383522   1.400940   2.861302   0.000000
     5  H    2.807266   1.913744   3.509003   0.982602   0.000000
     6  H    3.243588   2.280351   3.539344   0.982602   1.599143
                    6
     6  H    0.000000
 Stoichiometry    H4O2
 Framework group  CS[SG(H4O2)]
 Deg. of freedom     9
 Full point group                 CS      NOp   2
 Largest Abelian subgroup         CS      NOp   2
 Largest concise Abelian subgroup C1      NOp   1
                         Standard orientation:                         
 ---------------------------------------------------------------------
 Center     Atomic      Atomic             Coordinates (Angstroms)
 Number     Number       Type             X           Y           Z
 ---------------------------------------------------------------------
      1          8           0        0.026854    1.278313    0.000000
      2          1           0        0.022133    0.295723    0.000000
      3          1           0       -0.901097    1.601441    0.000000
      4          8           0        0.026854   -1.105209    0.000000
      5          1           0        0.974741   -1.364083    0.000000
      6          1           0       -0.525437   -1.917910    0.000000
 ---------------------------------------------------------------------
 Rotational constants (GHZ):         250.6836605           9.3702932           9.0326618
 Leave Link  202 at Fri Aug 26 18:18:19 2022, MaxMem=   536870912 cpu:               0.0 elap:               0.0
 (Enter /usr/site/hpc/x86_64/glibc-2.17/broadwell/gaussian/g16_a.03/pgi-16.5/g16/l301.exe)
 Standard basis: CC-pVTZ (5D, 7F)
 Ernie: Thresh=  0.10000D-02 Tol=  0.10000D-05 Strict=F.
 Ernie:  6 primitive shells out of 84 were deleted.
 There are    92 symmetry adapted cartesian basis functions of A'  symmetry.
 There are    38 symmetry adapted cartesian basis functions of A"  symmetry.
 There are    80 symmetry adapted basis functions of A'  symmetry.
 There are    36 symmetry adapted basis functions of A"  symmetry.
   116 basis functions,   172 primitive gaussians,   130 cartesian basis functions
    10 alpha electrons       10 beta electrons
       nuclear repulsion energy        40.2277440223 Hartrees.
 IExCor=    0 DFT=F Ex=HF Corr=None ExCW=0 ScaHFX=  1.000000
 ScaDFX=  1.000000  1.000000  1.000000  1.000000 ScalE2=  1.000000  1.000000
 IRadAn=      5 IRanWt=     -1 IRanGd=            0 ICorTp=0 IEmpDi=  4
 NAtoms=    6 NActive=    6 NUniq=    6 SFac= 1.00D+00 NAtFMM=   60 NAOKFM=F Big=F
 Integral buffers will be    131072 words long.
 Raffenetti 1 integral format.
 Two-electron integral symmetry is turned on.
 Leave Link  301 at Fri Aug 26 18:18:19 2022, MaxMem=   536870912 cpu:               0.2 elap:               0.0
 (Enter /usr/site/hpc/x86_64/glibc-2.17/broadwell/gaussian/g16_a.03/pgi-16.5/g16/l302.exe)
 NPDir=0 NMtPBC=     1 NCelOv=     1 NCel=       1 NClECP=     1 NCelD=      1
         NCelK=      1 NCelE2=     1 NClLst=     1 CellRange=     0.0.
 One-electron integrals computed using PRISM.
 One-electron integral symmetry used in STVInt
 NBasis=   116 RedAO= T EigKep=  2.05D-03  NBF=    80    36
 NBsUse=   116 1.00D-06 EigRej= -1.00D+00 NBFU=    80    36
 Leave Link  302 at Fri Aug 26 18:18:19 2022, MaxMem=   536870912 cpu:               0.5 elap:               0.1
 (Enter /usr/site/hpc/x86_64/glibc-2.17/broadwell/gaussian/g16_a.03/pgi-16.5/g16/l303.exe)
 DipDrv:  MaxL=1.
 Leave Link  303 at Fri Aug 26 18:18:19 2022, MaxMem=   536870912 cpu:               0.2 elap:               0.0
 (Enter /usr/site/hpc/x86_64/glibc-2.17/broadwell/gaussian/g16_a.03/pgi-16.5/g16/l401.exe)
 ExpMin= 1.03D-01 ExpMax= 1.53D+04 ExpMxC= 5.22D+02 IAcc=3 IRadAn=         5 AccDes= 0.00D+00
 Harris functional with IExCor=  205 and IRadAn=       5 diagonalized for initial guess.
 HarFok:  IExCor=  205 AccDes= 0.00D+00 IRadAn=         5 IDoV= 1 UseB2=F ITyADJ=14
 ICtDFT=  3500011 ScaDFX=  1.000000  1.000000  1.000000  1.000000
 FoFCou: FMM=F IPFlag=           0 FMFlag=      100000 FMFlg1=           0
         NFxFlg=           0 DoJE=T BraDBF=F KetDBF=T FulRan=T
         wScrn=  0.000000 ICntrl=       500 IOpCl=  0 I1Cent=   200000004 NGrid=           0
         NMat0=    1 NMatS0=      1 NMatT0=    0 NMatD0=    1 NMtDS0=    0 NMtDT0=    0
 Petite list used in FoFCou.
 Harris En= -152.306652978249    
 JPrj=0 DoOrth=F DoCkMO=F.
 Initial guess orbital symmetries:
       Occupied  (A') (A') (A') (A') (A') (A') (A') (A') (A") (A")
       Virtual   (A') (A') (A') (A') (A') (A') (A') (A') (A") (A')
                 (A') (A") (A') (A') (A") (A") (A') (A") (A') (A')
                 (A") (A') (A') (A') (A') (A') (A') (A") (A') (A")
                 (A") (A') (A') (A') (A') (A") (A') (A') (A') (A')
                 (A') (A') (A") (A") (A") (A') (A') (A") (A") (A')
                 (A") (A') (A') (A') (A') (A") (A") (A') (A") (A')
                 (A') (A") (A') (A') (A") (A') (A") (A') (A") (A')
                 (A") (A') (A') (A') (A') (A') (A') (A') (A') (A')
                 (A") (A") (A') (A') (A") (A") (A") (A") (A') (A')
                 (A") (A") (A') (A") (A') (A') (A") (A') (A') (A')
                 (A') (A') (A') (A') (A') (A')
 The electronic state of the initial guess is 1-A'.
 Leave Link  401 at Fri Aug 26 18:18:19 2022, MaxMem=   536870912 cpu:               0.8 elap:               0.2
 (Enter /usr/site/hpc/x86_64/glibc-2.17/broadwell/gaussian/g16_a.03/pgi-16.5/g16/l502.exe)
 Keep R1 ints in memory in symmetry-blocked form, NReq=34823457.
 FoFCou: FMM=F IPFlag=           0 FMFlag=           0 FMFlg1=           0
         NFxFlg=           0 DoJE=F BraDBF=F KetDBF=F FulRan=T
         wScrn=  0.000000 ICntrl=       600 IOpCl=  0 I1Cent=           0 NGrid=           0
         NMat0=    1 NMatS0=   6786 NMatT0=    0 NMatD0=    1 NMtDS0=    0 NMtDT0=    0
 Petite list used in FoFCou.
 Closed shell SCF:
 Using DIIS extrapolation, IDIIS=  1040.
 NGot=   536870912 LenX=   525040673 LenY=   525023332
 Requested convergence on RMS density matrix=1.00D-08 within 128 cycles.
 Requested convergence on MAX density matrix=1.00D-06.
 Requested convergence on             energy=1.00D-06.
 No special actions if energy rises.

 Cycle   1  Pass 1  IDiag  1:
 E= -151.921293412306    
 DIIS: error= 4.97D-02 at cycle   1 NSaved=   1.
 NSaved= 1 IEnMin= 1 EnMin= -151.921293412306     IErMin= 1 ErrMin= 4.97D-02
 ErrMax= 4.97D-02  0.00D+00 EMaxC= 1.00D-01 BMatC= 3.92D-01 BMatP= 3.92D-01
 IDIUse=3 WtCom= 5.03D-01 WtEn= 4.97D-01
 Coeff-Com:  0.100D+01
 Coeff-En:   0.100D+01
 Coeff:      0.100D+01
 Gap=     0.437 Goal=   None    Shift=    0.000
 GapD=    0.437 DampG=2.000 DampE=0.500 DampFc=1.0000 IDamp=-1.
 RMSDP=3.01D-03 MaxDP=8.71D-02              OVMax= 1.36D-01

 Cycle   2  Pass 1  IDiag  1:
 E= -152.035945193303     Delta-E=       -0.114651780998 Rises=F Damp=F
 DIIS: error= 2.85D-02 at cycle   2 NSaved=   2.
 NSaved= 2 IEnMin= 2 EnMin= -152.035945193303     IErMin= 2 ErrMin= 2.85D-02
 ErrMax= 2.85D-02  0.00D+00 EMaxC= 1.00D-01 BMatC= 9.80D-02 BMatP= 3.92D-01
 IDIUse=3 WtCom= 7.15D-01 WtEn= 2.85D-01
 Coeff-Com:  0.302D+00 0.698D+00
 Coeff-En:   0.107D+00 0.893D+00
 Coeff:      0.246D+00 0.754D+00
 Gap=     0.577 Goal=   None    Shift=    0.000
 RMSDP=1.53D-03 MaxDP=4.73D-02 DE=-1.15D-01 OVMax= 6.08D-02

 Cycle   3  Pass 1  IDiag  1:
 E= -152.091913609430     Delta-E=       -0.055968416127 Rises=F Damp=F
 DIIS: error= 6.39D-03 at cycle   3 NSaved=   3.
 NSaved= 3 IEnMin= 3 EnMin= -152.091913609430     IErMin= 3 ErrMin= 6.39D-03
 ErrMax= 6.39D-03  0.00D+00 EMaxC= 1.00D-01 BMatC= 5.15D-03 BMatP= 9.80D-02
 IDIUse=3 WtCom= 9.36D-01 WtEn= 6.39D-02
 Coeff-Com: -0.305D-01 0.152D+00 0.878D+00
 Coeff-En:   0.000D+00 0.000D+00 0.100D+01
 Coeff:     -0.285D-01 0.143D+00 0.886D+00
 Gap=     0.548 Goal=   None    Shift=    0.000
 RMSDP=2.52D-04 MaxDP=7.08D-03 DE=-5.60D-02 OVMax= 1.37D-02

 Cycle   4  Pass 1  IDiag  1:
 E= -152.095111761941     Delta-E=       -0.003198152511 Rises=F Damp=F
 DIIS: error= 5.52D-04 at cycle   4 NSaved=   4.
 NSaved= 4 IEnMin= 4 EnMin= -152.095111761941     IErMin= 4 ErrMin= 5.52D-04
 ErrMax= 5.52D-04  0.00D+00 EMaxC= 1.00D-01 BMatC= 2.91D-05 BMatP= 5.15D-03
 IDIUse=3 WtCom= 9.94D-01 WtEn= 5.52D-03
 Coeff-Com:  0.523D-02-0.491D-01-0.210D+00 0.125D+01
 Coeff-En:   0.000D+00 0.000D+00 0.000D+00 0.100D+01
 Coeff:      0.521D-02-0.488D-01-0.209D+00 0.125D+01
 Gap=     0.552 Goal=   None    Shift=    0.000
 RMSDP=6.49D-05 MaxDP=1.11D-03 DE=-3.20D-03 OVMax= 2.49D-03

 Cycle   5  Pass 1  IDiag  1:
 E= -152.095159962399     Delta-E=       -0.000048200457 Rises=F Damp=F
 DIIS: error= 2.28D-04 at cycle   5 NSaved=   5.
 NSaved= 5 IEnMin= 5 EnMin= -152.095159962399     IErMin= 5 ErrMin= 2.28D-04
 ErrMax= 2.28D-04  0.00D+00 EMaxC= 1.00D-01 BMatC= 3.68D-06 BMatP= 2.91D-05
 IDIUse=3 WtCom= 9.98D-01 WtEn= 2.28D-03
 Coeff-Com:  0.333D-02-0.225D-01-0.106D+00 0.283D+00 0.842D+00
 Coeff-En:   0.000D+00 0.000D+00 0.000D+00 0.000D+00 0.100D+01
 Coeff:      0.333D-02-0.225D-01-0.105D+00 0.282D+00 0.842D+00
 Gap=     0.552 Goal=   None    Shift=    0.000
 RMSDP=1.63D-05 MaxDP=3.03D-04 DE=-4.82D-05 OVMax= 7.86D-04

 Cycle   6  Pass 1  IDiag  1:
 E= -152.095164094041     Delta-E=       -0.000004131642 Rises=F Damp=F
 DIIS: error= 8.21D-05 at cycle   6 NSaved=   6.
 NSaved= 6 IEnMin= 6 EnMin= -152.095164094041     IErMin= 6 ErrMin= 8.21D-05
 ErrMax= 8.21D-05  0.00D+00 EMaxC= 1.00D-01 BMatC= 3.52D-07 BMatP= 3.68D-06
 IDIUse=1 WtCom= 1.00D+00 WtEn= 0.00D+00
 Coeff-Com: -0.186D-03 0.270D-02 0.136D-01-0.123D+00 0.111D+00 0.996D+00
 Coeff:     -0.186D-03 0.270D-02 0.136D-01-0.123D+00 0.111D+00 0.996D+00
 Gap=     0.552 Goal=   None    Shift=    0.000
 RMSDP=6.34D-06 MaxDP=1.59D-04 DE=-4.13D-06 OVMax= 3.14D-04

 Cycle   7  Pass 1  IDiag  1:
 E= -152.095164599518     Delta-E=       -0.000000505477 Rises=F Damp=F
 DIIS: error= 1.10D-05 at cycle   7 NSaved=   7.
 NSaved= 7 IEnMin= 7 EnMin= -152.095164599518     IErMin= 7 ErrMin= 1.10D-05
 ErrMax= 1.10D-05  0.00D+00 EMaxC= 1.00D-01 BMatC= 9.33D-09 BMatP= 3.52D-07
 IDIUse=1 WtCom= 1.00D+00 WtEn= 0.00D+00
 Coeff-Com: -0.107D-03 0.519D-03 0.206D-02 0.648D-02-0.607D-01-0.159D+00
 Coeff-Com:  0.121D+01
 Coeff:     -0.107D-03 0.519D-03 0.206D-02 0.648D-02-0.607D-01-0.159D+00
 Coeff:      0.121D+01
 Gap=     0.552 Goal=   None    Shift=    0.000
 RMSDP=1.75D-06 MaxDP=3.83D-05 DE=-5.05D-07 OVMax= 1.04D-04

 Cycle   8  Pass 1  IDiag  1:
 E= -152.095164625203     Delta-E=       -0.000000025685 Rises=F Damp=F
 DIIS: error= 2.72D-06 at cycle   8 NSaved=   8.
 NSaved= 8 IEnMin= 8 EnMin= -152.095164625203     IErMin= 8 ErrMin= 2.72D-06
 ErrMax= 2.72D-06  0.00D+00 EMaxC= 1.00D-01 BMatC= 5.86D-10 BMatP= 9.33D-09
 IDIUse=1 WtCom= 1.00D+00 WtEn= 0.00D+00
 Coeff-Com:  0.248D-04-0.253D-03-0.123D-02 0.792D-02-0.173D-03-0.448D-01
 Coeff-Com: -0.117D+00 0.116D+01
 Coeff:      0.248D-04-0.253D-03-0.123D-02 0.792D-02-0.173D-03-0.448D-01
 Coeff:     -0.117D+00 0.116D+01
 Gap=     0.552 Goal=   None    Shift=    0.000
 RMSDP=3.25D-07 MaxDP=6.15D-06 DE=-2.57D-08 OVMax= 2.23D-05

 Cycle   9  Pass 1  IDiag  1:
 E= -152.095164626503     Delta-E=       -0.000000001299 Rises=F Damp=F
 DIIS: error= 6.95D-07 at cycle   9 NSaved=   9.
 NSaved= 9 IEnMin= 9 EnMin= -152.095164626503     IErMin= 9 ErrMin= 6.95D-07
 ErrMax= 6.95D-07  0.00D+00 EMaxC= 1.00D-01 BMatC= 3.59D-11 BMatP= 5.86D-10
 IDIUse=1 WtCom= 1.00D+00 WtEn= 0.00D+00
 Coeff-Com:  0.330D-05 0.466D-05 0.805D-04-0.194D-02 0.430D-02 0.182D-01
 Coeff-Com: -0.479D-01-0.244D+00 0.127D+01
 Coeff:      0.330D-05 0.466D-05 0.805D-04-0.194D-02 0.430D-02 0.182D-01
 Coeff:     -0.479D-01-0.244D+00 0.127D+01
 Gap=     0.552 Goal=   None    Shift=    0.000
 RMSDP=7.81D-08 MaxDP=1.51D-06 DE=-1.30D-09 OVMax= 5.71D-06

 Cycle  10  Pass 1  IDiag  1:
 E= -152.095164626589     Delta-E=       -0.000000000086 Rises=F Damp=F
 DIIS: error= 1.67D-07 at cycle  10 NSaved=  10.
 NSaved=10 IEnMin=10 EnMin= -152.095164626589     IErMin=10 ErrMin= 1.67D-07
 ErrMax= 1.67D-07  0.00D+00 EMaxC= 1.00D-01 BMatC= 1.23D-12 BMatP= 3.59D-11
 IDIUse=1 WtCom= 1.00D+00 WtEn= 0.00D+00
 Coeff-Com: -0.137D-05 0.927D-05 0.377D-04-0.623D-04-0.490D-03-0.664D-03
 Coeff-Com:  0.777D-02 0.275D-02-0.207D+00 0.120D+01
 Coeff:     -0.137D-05 0.927D-05 0.377D-04-0.623D-04-0.490D-03-0.664D-03
 Coeff:      0.777D-02 0.275D-02-0.207D+00 0.120D+01
 Gap=     0.552 Goal=   None    Shift=    0.000
 RMSDP=1.35D-08 MaxDP=2.61D-07 DE=-8.62D-11 OVMax= 1.03D-06

 Cycle  11  Pass 1  IDiag  1:
 E= -152.095164626592     Delta-E=       -0.000000000003 Rises=F Damp=F
 DIIS: error= 2.93D-08 at cycle  11 NSaved=  11.
 NSaved=11 IEnMin=11 EnMin= -152.095164626592     IErMin=11 ErrMin= 2.93D-08
 ErrMax= 2.93D-08  0.00D+00 EMaxC= 1.00D-01 BMatC= 6.92D-14 BMatP= 1.23D-12
 IDIUse=1 WtCom= 1.00D+00 WtEn= 0.00D+00
 Coeff-Com:  0.482D-07-0.161D-05-0.101D-04 0.104D-03-0.101D-03-0.693D-03
 Coeff-Com:  0.654D-03 0.133D-01-0.276D-01-0.246D+00 0.126D+01
 Coeff:      0.482D-07-0.161D-05-0.101D-04 0.104D-03-0.101D-03-0.693D-03
 Coeff:      0.654D-03 0.133D-01-0.276D-01-0.246D+00 0.126D+01
 Gap=     0.552 Goal=   None    Shift=    0.000
 RMSDP=3.32D-09 MaxDP=7.42D-08 DE=-3.24D-12 OVMax= 2.11D-07

 SCF Done:  E(RHF) =  -152.095164627     A.U. after   11 cycles
            NFock= 11  Conv=0.33D-08     -V/T= 2.0008
 KE= 1.519763509694D+02 PE=-4.420367031823D+02 EE= 9.773744356404D+01
 Leave Link  502 at Fri Aug 26 18:18:20 2022, MaxMem=   536870912 cpu:               4.6 elap:               1.3
 (Enter /usr/site/hpc/x86_64/glibc-2.17/broadwell/gaussian/g16_a.03/pgi-16.5/g16/l801.exe)
 Windowed orbitals will be sorted by symmetry type.
 ExpMin= 1.03D-01 ExpMax= 1.53D+04 ExpMxC= 5.22D+02 IAcc=3 IRadAn=         5 AccDes= 0.00D+00
 HarFok:  IExCor=  205 AccDes= 0.00D+00 IRadAn=         5 IDoV=-2 UseB2=F ITyADJ=14
 ICtDFT= 12500011 ScaDFX=  1.000000  1.000000  1.000000  1.000000
 Largest valence mixing into a core orbital is  1.10D-04
 Largest core mixing into a valence orbital is  1.78D-05
 Range of M.O.s used for correlation:     3   116
 NBasis=   116 NAE=    10 NBE=    10 NFC=     2 NFV=     0
 NROrb=    114 NOA=     8 NOB=     8 NVA=   106 NVB=   106
 Leave Link  801 at Fri Aug 26 18:18:20 2022, MaxMem=   536870912 cpu:               0.3 elap:               0.1
 (Enter /usr/site/hpc/x86_64/glibc-2.17/broadwell/gaussian/g16_a.03/pgi-16.5/g16/l804.exe)
 Closed-shell transformation, MDV=   536870912 ITran=4 ISComp=2.
 Unit  1 TFree=        834515 TCopy=        406125.
 Semi-Direct transformation.
 ModeAB=           2 MOrb=             8 LenV=     536360411
 LASXX=      2873146 LTotXX=     2873146 LenRXX=     2873146
 LTotAB=     2958132 MaxLAS=     7765680 LenRXY=     7765680
 NonZer=     7985472 LenScr=    12058624 LnRSAI=           0
 LnScr1=           0 LExtra=           0 Total=     22697450
 MaxDsk=          -1 SrtSym=           F ITran=            4
 DoSDTr:  NPSUse=  4
 JobTyp=0 Pass  1:  I=   1 to   8.
 (rs|ai) integrals will be sorted in core.
 Complete sort for first half transformation.
 First half transformation complete.
 Complete sort for second half transformation.
 Second half transformation complete.
 Spin components of T(2) and E(2):
     alpha-alpha T2 =       0.1595679760D-01 E2=     -0.6571685443D-01
     alpha-beta  T2 =       0.9128877507D-01 E2=     -0.4008268344D+00
     beta-beta   T2 =       0.1595679760D-01 E2=     -0.6571685443D-01
 ANorm=    0.1059812422D+01
 E2 =    -0.5322605433D+00 EUMP2 =    -0.15262742516988D+03
 Leave Link  804 at Fri Aug 26 18:18:22 2022, MaxMem=   536870912 cpu:               5.3 elap:               1.4
 (Enter /usr/site/hpc/x86_64/glibc-2.17/broadwell/gaussian/g16_a.03/pgi-16.5/g16/l913.exe)
 CIDS:  MDV=   536870912.
 Frozen-core window:  NFC=   2 NFV=   0.
 IFCWin=0 IBDFC=1 NFBD=     0     0 NFCmp=     0     0 NFFFC=     0     0
 Using DD3R+UMP44R for 1st iteration.
 Using DD4RQ for 2nd and later iterations.
 Keep R2 and R3 ints in memory in symmetry-blocked form, NReq=35357534.
 FoFCou: FMM=F IPFlag=           0 FMFlag=           0 FMFlg1=           0
         NFxFlg=           0 DoJE=F BraDBF=F KetDBF=F FulRan=T
         wScrn=  0.000000 ICntrl=       600 IOpCl=  0 I1Cent=           0 NGrid=           0
         NMat0=    1 NMatS0=   6786 NMatT0=    0 NMatD0=    1 NMtDS0=    0 NMtDT0=    0
 Petite list used in FoFCou.
 CIDS: In Core Option IDoMem=           1.
 CCSD(T)
 =======
 Iterations=  50 Convergence= 0.100D-06
 Produce multiple copies of IABC intergrals
 Iteration Nr.   1
 **********************
 DD1Dir will call FoFMem   1 times, MxPair=        72
 NAB=    36 NAA=     0 NBB=     0.
 MP4(R+Q)=  0.80650442D-02
 Maximum subspace dimension=  5
 A-vector RMS=  1.8916328D-03 Max=  6.7137244D-03 conv= 1.00D-05.
 RLE energy=       -0.5305218684
 E3=       -0.63784781D-02        EUMP3=      -0.15263380365D+03
 E4(DQ)=   -0.82376733D-03        UMP4(DQ)=   -0.15263462742D+03
 E4(SDQ)=  -0.40537303D-02        UMP4(SDQ)=  -0.15263785738D+03
 VARIATIONAL ENERGIES WITH THE FIRST-ORDER WAVEFUNCTION:
 DE(Corr)= -0.53051618     E(Corr)=     -152.62568080    
 NORM(A)=   0.10596487D+01
 Iteration Nr.   2
 **********************
 DD1Dir will call FoFMem   1 times, MxPair=        72
 NAB=    36 NAA=     0 NBB=     0.
 A-vector RMS=  2.0828680D-04 Max=  1.8421423D-03 conv= 1.00D-05.
 RLE energy=       -0.5414478310
 DE(Corr)= -0.54047499     E(CORR)=     -152.63563962     Delta=-9.96D-03
 NORM(A)=   0.10632797D+01
 Iteration Nr.   3
 **********************
 DD1Dir will call FoFMem   1 times, MxPair=        72
 NAB=    36 NAA=     0 NBB=     0.
 A-vector RMS=  1.9319097D-04 Max=  1.6646396D-03 conv= 1.00D-05.
 RLE energy=       -0.5419134816
 DE(Corr)= -0.54133472     E(CORR)=     -152.63649935     Delta=-8.60D-04
 NORM(A)=   0.10638726D+01
 Iteration Nr.   4
 **********************
 DD1Dir will call FoFMem   1 times, MxPair=        72
 NAB=    36 NAA=     0 NBB=     0.
 A-vector RMS=  3.8162843D-05 Max=  3.4316490D-04 conv= 1.00D-05.
 RLE energy=       -0.5419828594
 DE(Corr)= -0.54195140     E(CORR)=     -152.63711602     Delta=-6.17D-04
 NORM(A)=   0.10639854D+01
 Iteration Nr.   5
 **********************
 DD1Dir will call FoFMem   1 times, MxPair=        72
 NAB=    36 NAA=     0 NBB=     0.
 A-vector RMS=  2.8622513D-05 Max=  3.6033833D-04 conv= 1.00D-05.
 RLE energy=       -0.5419999086
 DE(Corr)= -0.54199224     E(CORR)=     -152.63715687     Delta=-4.08D-05
 NORM(A)=   0.10640043D+01
 Iteration Nr.   6
 **********************
 DD1Dir will call FoFMem   1 times, MxPair=        72
 NAB=    36 NAA=     0 NBB=     0.
 A-vector RMS=  6.5892105D-06 Max=  7.6107278D-05 conv= 1.00D-05.
 RLE energy=       -0.5419960905
 DE(Corr)= -0.54199659     E(CORR)=     -152.63716122     Delta=-4.35D-06
 NORM(A)=   0.10640052D+01
 Iteration Nr.   7
 **********************
 DD1Dir will call FoFMem   1 times, MxPair=        72
 NAB=    36 NAA=     0 NBB=     0.
 A-vector RMS=  3.7888449D-06 Max=  4.4138501D-05 conv= 1.00D-05.
 RLE energy=       -0.5419941560
 DE(Corr)= -0.54199695     E(CORR)=     -152.63716157     Delta=-3.52D-07
 NORM(A)=   0.10640059D+01
 Iteration Nr.   8
 **********************
 DD1Dir will call FoFMem   1 times, MxPair=        72
 NAB=    36 NAA=     0 NBB=     0.
 A-vector RMS=  1.7224847D-06 Max=  2.0133358D-05 conv= 1.00D-05.
 RLE energy=       -0.5419962789
 DE(Corr)= -0.54199662     E(CORR)=     -152.63716124     Delta= 3.28D-07
 NORM(A)=   0.10640069D+01
 Iteration Nr.   9
 **********************
 DD1Dir will call FoFMem   1 times, MxPair=        72
 NAB=    36 NAA=     0 NBB=     0.
 A-vector RMS=  3.5487020D-07 Max=  4.8195418D-06 conv= 1.00D-05.
 RLE energy=       -0.5419964522
 DE(Corr)= -0.54199652     E(CORR)=     -152.63716115     Delta= 9.51D-08
 NORM(A)=   0.10640073D+01
 CI/CC converged in    9 iterations to DelEn= 9.51D-08 Conv= 1.00D-07 ErrA1= 3.55D-07 Conv= 1.00D-05
 Wavefunction amplitudes converged. E(Corr)=     -152.63716115    
 Largest amplitude= 3.72D-02
 IPart=  4 IA=    7   11.05% done.
 IPart=  2 IA=   13   21.46% done.
 IPart=  1 IA=   19   31.21% done.
 IPart=  2 IA=   25   40.32% done.
 IPart=  3 IA=   32   50.13% done.
 IPart=  2 IA=   40   60.27% done.
 IPart=  2 IA=   49   70.30% done.
 IPart=  4 IA=   60   80.58% done.
 IPart=  1 IA=   74   90.51% done.
 Time for triples=       57.96 seconds.
 T4(CCSD)= -0.16961769D-01
 T5(CCSD)=  0.42605582D-03
 CCSD(T)= -0.15265369686D+03
 Discarding MO integrals.
 Leave Link  913 at Fri Aug 26 18:18:42 2022, MaxMem=   536870912 cpu:              82.3 elap:              20.7
 (Enter /usr/site/hpc/x86_64/glibc-2.17/broadwell/gaussian/g16_a.03/pgi-16.5/g16/l601.exe)
 Copying SCF densities to generalized density rwf, IOpCl= 0 IROHF=0.

 **********************************************************************

            Population analysis using the SCF density.

 **********************************************************************

 Orbital symmetries:
       Occupied  (A') (A') (A') (A') (A') (A') (A') (A") (A') (A")
       Virtual   (A') (A') (A') (A') (A') (A') (A') (A') (A') (A")
                 (A') (A') (A") (A') (A") (A") (A') (A") (A') (A')
                 (A") (A') (A') (A') (A') (A') (A') (A") (A") (A')
                 (A") (A') (A') (A') (A') (A") (A') (A') (A') (A')
                 (A') (A') (A") (A") (A') (A") (A') (A') (A") (A')
                 (A") (A') (A") (A') (A") (A') (A") (A") (A") (A')
                 (A') (A') (A') (A') (A") (A') (A") (A') (A") (A')
                 (A") (A') (A') (A') (A') (A') (A') (A') (A') (A')
                 (A") (A") (A') (A') (A") (A") (A") (A") (A') (A")
                 (A') (A") (A') (A") (A') (A') (A") (A') (A') (A')
                 (A') (A') (A') (A') (A') (A')
 The electronic state is 1-A'.
 Alpha  occ. eigenvalues --  -20.60368 -20.48378  -1.39190  -1.27025  -0.76444
 Alpha  occ. eigenvalues --   -0.70945  -0.58493  -0.55637  -0.48844  -0.43949
 Alpha virt. eigenvalues --    0.11296   0.17777   0.19816   0.33923   0.47323
 Alpha virt. eigenvalues --    0.53374   0.59566   0.68165   0.69496   0.72166
 Alpha virt. eigenvalues --    0.74947   0.77731   0.79588   0.83820   0.83908
 Alpha virt. eigenvalues --    0.86826   0.95428   0.97970   1.05492   1.11894
 Alpha virt. eigenvalues --    1.18740   1.22407   1.29420   1.42709   1.51034
 Alpha virt. eigenvalues --    1.55060   1.62936   1.90019   2.00398   2.00798
 Alpha virt. eigenvalues --    2.08473   2.10336   2.19407   2.21432   2.28065
 Alpha virt. eigenvalues --    2.33567   2.33839   2.58903   2.61446   2.75132
 Alpha virt. eigenvalues --    3.01979   3.21759   3.32634   3.45232   3.48109
 Alpha virt. eigenvalues --    3.48322   3.49905   3.56835   3.59314   3.66181
 Alpha virt. eigenvalues --    3.69751   3.78389   3.85535   3.90265   3.91060
 Alpha virt. eigenvalues --    3.93672   3.95316   4.06981   4.11849   4.12021
 Alpha virt. eigenvalues --    4.14245   4.17228   4.22551   4.25860   4.29651
 Alpha virt. eigenvalues --    4.42459   4.45422   4.50672   4.66747   4.75055
 Alpha virt. eigenvalues --    4.82160   4.82468   4.83652   4.96809   5.06249
 Alpha virt. eigenvalues --    5.31656   5.47404   5.56753   5.66192   5.83943
 Alpha virt. eigenvalues --    6.01798   6.04127   6.55375   6.71102   6.80081
 Alpha virt. eigenvalues --    6.84165   6.92033   6.93566   6.98824   7.05370
 Alpha virt. eigenvalues --    7.05969   7.13335   7.18097   7.23326   7.28178
 Alpha virt. eigenvalues --    7.43143   7.44776   7.48523   7.51206   7.60306
 Alpha virt. eigenvalues --    7.79690   8.00971   8.32714   8.54984  12.91620
 Alpha virt. eigenvalues --   13.03316
          Condensed to atoms (all electrons):
               1          2          3          4          5          6
     1  O    7.964242   0.378039   0.346498  -0.070100   0.003988   0.003496
     2  H    0.378039   0.328491  -0.043396   0.042614  -0.004817  -0.003750
     3  H    0.346498  -0.043396   0.458759   0.005363  -0.000003  -0.000158
     4  O   -0.070100   0.042614   0.005363   7.817483   0.308790   0.306471
     5  H    0.003988  -0.004817  -0.000003   0.308790   0.445930  -0.015043
     6  H    0.003496  -0.003750  -0.000158   0.306471  -0.015043   0.469106
 Mulliken charges:
               1
     1  O   -0.626164
     2  H    0.302818
     3  H    0.232936
     4  O   -0.410621
     5  H    0.261154
     6  H    0.239877
 Sum of Mulliken charges =  -0.00000
 Mulliken charges with hydrogens summed into heavy atoms:
               1
     1  O   -0.090410
     4  O    0.090410
 Electronic spatial extent (au):  <R**2>=            142.9810
 Charge=             -0.0000 electrons
 Dipole moment (field-independent basis, Debye):
    X=             -0.8600    Y=             -4.2497    Z=              0.0000  Tot=              4.3358
 Quadrupole moment (field-independent basis, Debye-Ang):
   XX=             -9.2390   YY=             -9.4999   ZZ=            -14.6570
   XY=             -3.1202   XZ=              0.0000   YZ=              0.0000
 Traceless Quadrupole moment (field-independent basis, Debye-Ang):
   XX=              1.8930   YY=              1.6321   ZZ=             -3.5251
   XY=             -3.1202   XZ=              0.0000   YZ=              0.0000
 Octapole moment (field-independent basis, Debye-Ang**2):
  XXX=              0.0870  YYY=            -17.0903  ZZZ=              0.0000  XYY=             -5.9822
  XXY=             -2.6156  XXZ=              0.0000  XZZ=             -0.1066  YZZ=             -0.9558
  YYZ=              0.0000  XYZ=              0.0000
 Hexadecapole moment (field-independent basis, Debye-Ang**3):
 XXXX=            -10.7682 YYYY=           -105.2416 ZZZZ=            -11.3286 XXXY=             -2.2698
 XXXZ=              0.0000 YYYX=             -1.6558 YYYZ=              0.0000 ZZZX=              0.0000
 ZZZY=              0.0000 XXYY=            -14.4941 XXZZ=             -4.4412 YYZZ=            -26.0050
 XXYZ=              0.0000 YYXZ=              0.0000 ZZXY=              0.8409
 N-N= 4.022774402232D+01 E-N=-4.420367024812D+02  KE= 1.519763509694D+02
 Symmetry A'   KE= 1.429995365757D+02
 Symmetry A"   KE= 8.976814393638D+00
 Leave Link  601 at Fri Aug 26 18:18:43 2022, MaxMem=   536870912 cpu:               0.2 elap:               0.1
 (Enter /usr/site/hpc/x86_64/glibc-2.17/broadwell/gaussian/g16_a.03/pgi-16.5/g16/l9999.exe)
 1\1\GINC-N041\SP\RCCSD(T)-FC\CC-pVTZ\H4O2\C7441284\26-Aug-2022\0\\#p C
 CSD(T)/cc-pVTZ\\H2O_H2O_445\\0,1\O,0,0.,-0.009833,0.\H,0,-0.799571,-0.
 580965,0.\H,0,0.799571,-0.580965,0.\O,0,-1.946174,-1.385908,0.\H,0,-2.
 70479,-0.761402,0.\H,0,-2.290901,-2.306055,0.\\Version=ES64L-G16RevA.0
 3\State=1-A'\HF=-152.0951646\MP2=-152.6274252\MP3=-152.6338036\MP4D=-1
 52.6426925\MP4DQ=-152.6346274\MP4SDQ=-152.6378574\CCSD=-152.6371611\CC
 SD(T)=-152.6536969\RMSD=3.322e-09\PG=CS [SG(H4O2)]\\@


 A MUSTACHE HAIR ACROSS A CHIP IS LIKE A REDWOOD
 TREE FALLING THROUGH A HOUSING PROJECT.
 - AN IBM MANAGER IN EAST FISHKILL, NEW YORK
   AS QUOTED IN "FROM SANDS TO CIRCUITS", IBM INNOVATION JANUARY 1985.
 Job cpu time:       0 days  0 hours  1 minutes 36.9 seconds.
 Elapsed time:       0 days  0 hours  0 minutes 24.6 seconds.
 File lengths (MBytes):  RWF=    572 Int=      0 D2E=      0 Chk=      8 Scr=      8
 Normal termination of Gaussian 16 at Fri Aug 26 18:18:43 2022.
