 Entering Gaussian System, Link 0=g16
 Input=H2O_H2O_1791.com
 Output=H2O_H2O_1791.log
 Initial command:
 /usr/site/hpc/x86_64/glibc-2.17/broadwell/gaussian/g16_a.03/pgi-16.5/g16/l1.exe "/gpfs/gpfs1/scratch/c7441284/ForceFieldModel/FittingData2/Gau-907453.inp" -scrdir="/gpfs/gpfs1/scratch/c7441284/ForceFieldModel/FittingData2/"
 Entering Link 1 = /usr/site/hpc/x86_64/glibc-2.17/broadwell/gaussian/g16_a.03/pgi-16.5/g16/l1.exe PID=    907454.
  
 Copyright (c) 1988,1990,1992,1993,1995,1998,2003,2009,2016,
            Gaussian, Inc.  All Rights Reserved.
  
 This is part of the Gaussian(R) 16 program.  It is based on
 the Gaussian(R) 09 system (copyright 2009, Gaussian, Inc.),
 the Gaussian(R) 03 system (copyright 2003, Gaussian, Inc.),
 the Gaussian(R) 98 system (copyright 1998, Gaussian, Inc.),
 the Gaussian(R) 94 system (copyright 1995, Gaussian, Inc.),
 the Gaussian 92(TM) system (copyright 1992, Gaussian, Inc.),
 the Gaussian 90(TM) system (copyright 1990, Gaussian, Inc.),
 the Gaussian 88(TM) system (copyright 1988, Gaussian, Inc.),
 the Gaussian 86(TM) system (copyright 1986, Carnegie Mellon
 University), and the Gaussian 82(TM) system (copyright 1983,
 Carnegie Mellon University). Gaussian is a federally registered
 trademark of Gaussian, Inc.
  
 This software contains proprietary and confidential information,
 including trade secrets, belonging to Gaussian, Inc.
  
 This software is provided under written license and may be
 used, copied, transmitted, or stored only in accord with that
 written license.
  
 The following legend is applicable only to US Government
 contracts under FAR:
  
                    RESTRICTED RIGHTS LEGEND
  
 Use, reproduction and disclosure by the US Government is
 subject to restrictions as set forth in subparagraphs (a)
 and (c) of the Commercial Computer Software - Restricted
 Rights clause in FAR 52.227-19.
  
 Gaussian, Inc.
 340 Quinnipiac St., Bldg. 40, Wallingford CT 06492
  
  
 ---------------------------------------------------------------
 Warning -- This program may not be used in any manner that
 competes with the business of Gaussian, Inc. or will provide
 assistance to any competitor of Gaussian, Inc.  The licensee
 of this program is prohibited from giving any competitor of
 Gaussian, Inc. access to this program.  By using this program,
 the user acknowledges that Gaussian, Inc. is engaged in the
 business of creating and licensing software in the field of
 computational chemistry and represents and warrants to the
 licensee that it is not a competitor of Gaussian, Inc. and that
 it will not use this program in any manner prohibited above.
 ---------------------------------------------------------------
  

 Cite this work as:
 Gaussian 16, Revision A.03,
 M. J. Frisch, G. W. Trucks, H. B. Schlegel, G. E. Scuseria, 
 M. A. Robb, J. R. Cheeseman, G. Scalmani, V. Barone, 
 G. A. Petersson, H. Nakatsuji, X. Li, M. Caricato, A. V. Marenich, 
 J. Bloino, B. G. Janesko, R. Gomperts, B. Mennucci, H. P. Hratchian, 
 J. V. Ortiz, A. F. Izmaylov, J. L. Sonnenberg, D. Williams-Young, 
 F. Ding, F. Lipparini, F. Egidi, J. Goings, B. Peng, A. Petrone, 
 T. Henderson, D. Ranasinghe, V. G. Zakrzewski, J. Gao, N. Rega, 
 G. Zheng, W. Liang, M. Hada, M. Ehara, K. Toyota, R. Fukuda, 
 J. Hasegawa, M. Ishida, T. Nakajima, Y. Honda, O. Kitao, H. Nakai, 
 T. Vreven, K. Throssell, J. A. Montgomery, Jr., J. E. Peralta, 
 F. Ogliaro, M. J. Bearpark, J. J. Heyd, E. N. Brothers, K. N. Kudin, 
 V. N. Staroverov, T. A. Keith, R. Kobayashi, J. Normand, 
 K. Raghavachari, A. P. Rendell, J. C. Burant, S. S. Iyengar, 
 J. Tomasi, M. Cossi, J. M. Millam, M. Klene, C. Adamo, R. Cammi, 
 J. W. Ochterski, R. L. Martin, K. Morokuma, O. Farkas, 
 J. B. Foresman, and D. J. Fox, Gaussian, Inc., Wallingford CT, 2016.
 
 ******************************************
 Gaussian 16:  ES64L-G16RevA.03 25-Dec-2016
                28-Aug-2022 
 ******************************************
 %NProcShared=4
 Will use up to    4 processors via shared memory.
 %Mem=4GB
 %Chk=H2O_H2O_1791.chk
 ------------------
 #p CCSD(T)/cc-pVTZ
 ------------------
 1/38=1,172=1/1;
 2/12=2,17=6,18=5,40=1/2;
 3/5=16,6=1,11=9,25=1,30=1/1,2,3;
 4//1;
 5/5=2,38=5/2;
 8/6=4,9=120000,10=1/1,4;
 9/5=7,14=2/13;
 6/7=2,8=2,9=2,10=2/1;
 99/5=1,9=1/99;
 Leave Link    1 at Sun Aug 28 01:36:09 2022, MaxMem=   536870912 cpu:               3.8 elap:               1.3
 (Enter /usr/site/hpc/x86_64/glibc-2.17/broadwell/gaussian/g16_a.03/pgi-16.5/g16/l101.exe)
 ------------
 H2O_H2O_1791
 ------------
 Symbolic Z-matrix:
 Charge =  0 Multiplicity = 1
 O                     0.       -0.00983   0. 
 H                    -0.79957  -0.58097   0. 
 H                     0.79957  -0.58097   0. 
 O                    -2.82155  -2.01426   0. 
 H                    -3.71595  -1.60738   0. 
 H                    -2.91638  -2.99228   0. 
 
 ITRead=  0  0  0  0  0  0
 MicOpt= -1 -1 -1 -1 -1 -1
 NAtoms=      6 NQM=        6 NQMF=       0 NMMI=      0 NMMIF=      0
                NMic=       0 NMicF=      0.
                    Isotopes and Nuclear Properties:
 (Nuclear quadrupole moments (NQMom) in fm**2, nuclear magnetic moments (NMagM)
  in nuclear magnetons)

  Atom         1           2           3           4           5           6
 IAtWgt=          16           1           1          16           1           1
 AtmWgt=  15.9949146   1.0078250   1.0078250  15.9949146   1.0078250   1.0078250
 NucSpn=           0           1           1           0           1           1
 AtZEff=  -0.0000000  -0.0000000  -0.0000000  -0.0000000  -0.0000000  -0.0000000
 NQMom=    0.0000000   0.0000000   0.0000000   0.0000000   0.0000000   0.0000000
 NMagM=    0.0000000   2.7928460   2.7928460   0.0000000   2.7928460   2.7928460
 AtZNuc=   8.0000000   1.0000000   1.0000000   8.0000000   1.0000000   1.0000000
 Leave Link  101 at Sun Aug 28 01:36:10 2022, MaxMem=   536870912 cpu:               0.7 elap:               0.2
 (Enter /usr/site/hpc/x86_64/glibc-2.17/broadwell/gaussian/g16_a.03/pgi-16.5/g16/l202.exe)
                          Input orientation:                          
 ---------------------------------------------------------------------
 Center     Atomic      Atomic             Coordinates (Angstroms)
 Number     Number       Type             X           Y           Z
 ---------------------------------------------------------------------
      1          8           0        0.000000   -0.009833    0.000000
      2          1           0       -0.799571   -0.580965    0.000000
      3          1           0        0.799571   -0.580965    0.000000
      4          8           0       -2.821552   -2.014262    0.000000
      5          1           0       -3.715953   -1.607379    0.000000
      6          1           0       -2.916382   -2.992277    0.000000
 ---------------------------------------------------------------------
                    Distance matrix (angstroms):
                    1          2          3          4          5
     1  O    0.000000
     2  H    0.982601   0.000000
     3  H    0.982601   1.599142   0.000000
     4  O    3.461053   2.478457   3.894467   0.000000
     5  H    4.044807   3.091732   4.630711   0.982602   0.000000
     6  H    4.171361   3.208631   4.429755   0.982602   1.599142
                    6
     6  H    0.000000
 Stoichiometry    H4O2
 Framework group  CS[SG(H4O2)]
 Deg. of freedom     9
 Full point group                 CS      NOp   2
 Largest Abelian subgroup         CS      NOp   2
 Largest concise Abelian subgroup C1      NOp   1
                         Standard orientation:                         
 ---------------------------------------------------------------------
 Center     Atomic      Atomic             Coordinates (Angstroms)
 Number     Number       Type             X           Y           Z
 ---------------------------------------------------------------------
      1          8           0        0.041195    1.820464    0.000000
      2          1           0        0.038654    0.837866    0.000000
      3          1           0       -0.887470    2.141533   -0.000000
      4          8           0        0.041195   -1.640590    0.000000
      5          1           0        0.890880   -2.134090    0.000000
      6          1           0       -0.701191   -2.284304   -0.000000
 ---------------------------------------------------------------------
 Rotational constants (GHZ):         241.4637474           4.5438990           4.4599706
 Leave Link  202 at Sun Aug 28 01:36:10 2022, MaxMem=   536870912 cpu:               0.0 elap:               0.0
 (Enter /usr/site/hpc/x86_64/glibc-2.17/broadwell/gaussian/g16_a.03/pgi-16.5/g16/l301.exe)
 Standard basis: CC-pVTZ (5D, 7F)
 Ernie: Thresh=  0.10000D-02 Tol=  0.10000D-05 Strict=F.
 Ernie:  6 primitive shells out of 84 were deleted.
 There are    92 symmetry adapted cartesian basis functions of A'  symmetry.
 There are    38 symmetry adapted cartesian basis functions of A"  symmetry.
 There are    80 symmetry adapted basis functions of A'  symmetry.
 There are    36 symmetry adapted basis functions of A"  symmetry.
   116 basis functions,   172 primitive gaussians,   130 cartesian basis functions
    10 alpha electrons       10 beta electrons
       nuclear repulsion energy        33.1070455491 Hartrees.
 IExCor=    0 DFT=F Ex=HF Corr=None ExCW=0 ScaHFX=  1.000000
 ScaDFX=  1.000000  1.000000  1.000000  1.000000 ScalE2=  1.000000  1.000000
 IRadAn=      5 IRanWt=     -1 IRanGd=            0 ICorTp=0 IEmpDi=  4
 NAtoms=    6 NActive=    6 NUniq=    6 SFac= 1.00D+00 NAtFMM=   60 NAOKFM=F Big=F
 Integral buffers will be    131072 words long.
 Raffenetti 1 integral format.
 Two-electron integral symmetry is turned on.
 Leave Link  301 at Sun Aug 28 01:36:10 2022, MaxMem=   536870912 cpu:               0.2 elap:               0.0
 (Enter /usr/site/hpc/x86_64/glibc-2.17/broadwell/gaussian/g16_a.03/pgi-16.5/g16/l302.exe)
 NPDir=0 NMtPBC=     1 NCelOv=     1 NCel=       1 NClECP=     1 NCelD=      1
         NCelK=      1 NCelE2=     1 NClLst=     1 CellRange=     0.0.
 One-electron integrals computed using PRISM.
 One-electron integral symmetry used in STVInt
 NBasis=   116 RedAO= T EigKep=  2.34D-03  NBF=    80    36
 NBsUse=   116 1.00D-06 EigRej= -1.00D+00 NBFU=    80    36
 Leave Link  302 at Sun Aug 28 01:36:10 2022, MaxMem=   536870912 cpu:               0.5 elap:               0.1
 (Enter /usr/site/hpc/x86_64/glibc-2.17/broadwell/gaussian/g16_a.03/pgi-16.5/g16/l303.exe)
 DipDrv:  MaxL=1.
 Leave Link  303 at Sun Aug 28 01:36:10 2022, MaxMem=   536870912 cpu:               0.1 elap:               0.0
 (Enter /usr/site/hpc/x86_64/glibc-2.17/broadwell/gaussian/g16_a.03/pgi-16.5/g16/l401.exe)
 ExpMin= 1.03D-01 ExpMax= 1.53D+04 ExpMxC= 5.22D+02 IAcc=3 IRadAn=         5 AccDes= 0.00D+00
 Harris functional with IExCor=  205 and IRadAn=       5 diagonalized for initial guess.
 HarFok:  IExCor=  205 AccDes= 0.00D+00 IRadAn=         5 IDoV= 1 UseB2=F ITyADJ=14
 ICtDFT=  3500011 ScaDFX=  1.000000  1.000000  1.000000  1.000000
 FoFCou: FMM=F IPFlag=           0 FMFlag=      100000 FMFlg1=           0
         NFxFlg=           0 DoJE=T BraDBF=F KetDBF=T FulRan=T
         wScrn=  0.000000 ICntrl=       500 IOpCl=  0 I1Cent=   200000004 NGrid=           0
         NMat0=    1 NMatS0=      1 NMatT0=    0 NMatD0=    1 NMtDS0=    0 NMtDT0=    0
 Petite list used in FoFCou.
 Harris En= -152.301158546128    
 JPrj=0 DoOrth=F DoCkMO=F.
 Initial guess orbital symmetries:
       Occupied  (A') (A') (A') (A') (A') (A') (A') (A') (A") (A")
       Virtual   (A') (A') (A') (A') (A') (A') (A') (A') (A') (A")
                 (A') (A") (A') (A') (A') (A") (A") (A') (A") (A")
                 (A') (A') (A') (A') (A') (A') (A') (A') (A") (A")
                 (A") (A") (A') (A') (A') (A') (A') (A') (A') (A')
                 (A') (A') (A") (A") (A') (A') (A") (A") (A") (A")
                 (A') (A') (A') (A') (A') (A') (A") (A") (A') (A')
                 (A') (A") (A") (A') (A") (A") (A') (A') (A') (A')
                 (A") (A") (A') (A') (A') (A') (A') (A') (A') (A')
                 (A") (A") (A') (A') (A") (A") (A") (A") (A') (A")
                 (A") (A') (A') (A') (A') (A') (A") (A") (A') (A')
                 (A') (A') (A') (A') (A') (A')
 The electronic state of the initial guess is 1-A'.
 Leave Link  401 at Sun Aug 28 01:36:10 2022, MaxMem=   536870912 cpu:               0.8 elap:               0.2
 (Enter /usr/site/hpc/x86_64/glibc-2.17/broadwell/gaussian/g16_a.03/pgi-16.5/g16/l502.exe)
 Keep R1 ints in memory in symmetry-blocked form, NReq=34823457.
 FoFCou: FMM=F IPFlag=           0 FMFlag=           0 FMFlg1=           0
         NFxFlg=           0 DoJE=F BraDBF=F KetDBF=F FulRan=T
         wScrn=  0.000000 ICntrl=       600 IOpCl=  0 I1Cent=           0 NGrid=           0
         NMat0=    1 NMatS0=   6786 NMatT0=    0 NMatD0=    1 NMtDS0=    0 NMtDT0=    0
 Petite list used in FoFCou.
 Closed shell SCF:
 Using DIIS extrapolation, IDIIS=  1040.
 NGot=   536870912 LenX=   525040673 LenY=   525023332
 Requested convergence on RMS density matrix=1.00D-08 within 128 cycles.
 Requested convergence on MAX density matrix=1.00D-06.
 Requested convergence on             energy=1.00D-06.
 No special actions if energy rises.

 Cycle   1  Pass 1  IDiag  1:
 E= -151.939936918225    
 DIIS: error= 6.58D-02 at cycle   1 NSaved=   1.
 NSaved= 1 IEnMin= 1 EnMin= -151.939936918225     IErMin= 1 ErrMin= 6.58D-02
 ErrMax= 6.58D-02  0.00D+00 EMaxC= 1.00D-01 BMatC= 3.92D-01 BMatP= 3.92D-01
 IDIUse=3 WtCom= 3.42D-01 WtEn= 6.58D-01
 Coeff-Com:  0.100D+01
 Coeff-En:   0.100D+01
 Coeff:      0.100D+01
 Gap=     0.504 Goal=   None    Shift=    0.000
 GapD=    0.504 DampG=2.000 DampE=0.500 DampFc=1.0000 IDamp=-1.
 RMSDP=2.53D-03 MaxDP=6.90D-02              OVMax= 1.23D-01

 Cycle   2  Pass 1  IDiag  1:
 E= -152.048395748011     Delta-E=       -0.108458829786 Rises=F Damp=F
 DIIS: error= 4.06D-02 at cycle   2 NSaved=   2.
 NSaved= 2 IEnMin= 2 EnMin= -152.048395748011     IErMin= 2 ErrMin= 4.06D-02
 ErrMax= 4.06D-02  0.00D+00 EMaxC= 1.00D-01 BMatC= 1.07D-01 BMatP= 3.92D-01
 IDIUse=3 WtCom= 5.94D-01 WtEn= 4.06D-01
 Coeff-Com:  0.314D+00 0.686D+00
 Coeff-En:   0.158D+00 0.842D+00
 Coeff:      0.251D+00 0.749D+00
 Gap=     0.625 Goal=   None    Shift=    0.000
 RMSDP=1.35D-03 MaxDP=3.99D-02 DE=-1.08D-01 OVMax= 5.63D-02

 Cycle   3  Pass 1  IDiag  1:
 E= -152.109388784831     Delta-E=       -0.060993036820 Rises=F Damp=F
 DIIS: error= 9.11D-03 at cycle   3 NSaved=   3.
 NSaved= 3 IEnMin= 3 EnMin= -152.109388784831     IErMin= 3 ErrMin= 9.11D-03
 ErrMax= 9.11D-03  0.00D+00 EMaxC= 1.00D-01 BMatC= 5.95D-03 BMatP= 1.07D-01
 IDIUse=3 WtCom= 9.09D-01 WtEn= 9.11D-02
 Coeff-Com: -0.302D-01 0.160D+00 0.870D+00
 Coeff-En:   0.000D+00 0.000D+00 0.100D+01
 Coeff:     -0.274D-01 0.145D+00 0.882D+00
 Gap=     0.597 Goal=   None    Shift=    0.000
 RMSDP=2.50D-04 MaxDP=5.94D-03 DE=-6.10D-02 OVMax= 1.33D-02

 Cycle   4  Pass 1  IDiag  1:
 E= -152.113065018305     Delta-E=       -0.003676233474 Rises=F Damp=F
 DIIS: error= 8.16D-04 at cycle   4 NSaved=   4.
 NSaved= 4 IEnMin= 4 EnMin= -152.113065018305     IErMin= 4 ErrMin= 8.16D-04
 ErrMax= 8.16D-04  0.00D+00 EMaxC= 1.00D-01 BMatC= 3.56D-05 BMatP= 5.95D-03
 IDIUse=3 WtCom= 9.92D-01 WtEn= 8.16D-03
 Coeff-Com:  0.660D-02-0.610D-01-0.231D+00 0.129D+01
 Coeff-En:   0.000D+00 0.000D+00 0.000D+00 0.100D+01
 Coeff:      0.655D-02-0.605D-01-0.229D+00 0.128D+01
 Gap=     0.600 Goal=   None    Shift=    0.000
 RMSDP=5.26D-05 MaxDP=1.00D-03 DE=-3.68D-03 OVMax= 2.41D-03

 Cycle   5  Pass 1  IDiag  1:
 E= -152.113113136535     Delta-E=       -0.000048118230 Rises=F Damp=F
 DIIS: error= 1.81D-04 at cycle   5 NSaved=   5.
 NSaved= 5 IEnMin= 5 EnMin= -152.113113136535     IErMin= 5 ErrMin= 1.81D-04
 ErrMax= 1.81D-04  0.00D+00 EMaxC= 1.00D-01 BMatC= 1.51D-06 BMatP= 3.56D-05
 IDIUse=3 WtCom= 9.98D-01 WtEn= 1.81D-03
 Coeff-Com:  0.122D-02-0.580D-02-0.279D-01-0.928D-01 0.113D+01
 Coeff-En:   0.000D+00 0.000D+00 0.000D+00 0.000D+00 0.100D+01
 Coeff:      0.122D-02-0.579D-02-0.278D-01-0.927D-01 0.113D+01
 Gap=     0.601 Goal=   None    Shift=    0.000
 RMSDP=1.43D-05 MaxDP=3.37D-04 DE=-4.81D-05 OVMax= 6.91D-04

 Cycle   6  Pass 1  IDiag  1:
 E= -152.113115886129     Delta-E=       -0.000002749594 Rises=F Damp=F
 DIIS: error= 4.31D-05 at cycle   6 NSaved=   6.
 NSaved= 6 IEnMin= 6 EnMin= -152.113115886129     IErMin= 6 ErrMin= 4.31D-05
 ErrMax= 4.31D-05  0.00D+00 EMaxC= 1.00D-01 BMatC= 1.76D-07 BMatP= 1.51D-06
 IDIUse=1 WtCom= 1.00D+00 WtEn= 0.00D+00
 Coeff-Com: -0.672D-04 0.228D-02 0.744D-02-0.116D+00 0.317D+00 0.789D+00
 Coeff:     -0.672D-04 0.228D-02 0.744D-02-0.116D+00 0.317D+00 0.789D+00
 Gap=     0.601 Goal=   None    Shift=    0.000
 RMSDP=3.14D-06 MaxDP=8.86D-05 DE=-2.75D-06 OVMax= 1.73D-04

 Cycle   7  Pass 1  IDiag  1:
 E= -152.113116086542     Delta-E=       -0.000000200413 Rises=F Damp=F
 DIIS: error= 9.70D-06 at cycle   7 NSaved=   7.
 NSaved= 7 IEnMin= 7 EnMin= -152.113116086542     IErMin= 7 ErrMin= 9.70D-06
 ErrMax= 9.70D-06  0.00D+00 EMaxC= 1.00D-01 BMatC= 8.48D-09 BMatP= 1.76D-07
 IDIUse=1 WtCom= 1.00D+00 WtEn= 0.00D+00
 Coeff-Com: -0.101D-03 0.377D-03 0.175D-02 0.145D-01-0.131D+00-0.406D-01
 Coeff-Com:  0.115D+01
 Coeff:     -0.101D-03 0.377D-03 0.175D-02 0.145D-01-0.131D+00-0.406D-01
 Coeff:      0.115D+01
 Gap=     0.601 Goal=   None    Shift=    0.000
 RMSDP=1.38D-06 MaxDP=3.68D-05 DE=-2.00D-07 OVMax= 7.05D-05

 Cycle   8  Pass 1  IDiag  1:
 E= -152.113116105849     Delta-E=       -0.000000019307 Rises=F Damp=F
 DIIS: error= 2.05D-06 at cycle   8 NSaved=   8.
 NSaved= 8 IEnMin= 8 EnMin= -152.113116105849     IErMin= 8 ErrMin= 2.05D-06
 ErrMax= 2.05D-06  0.00D+00 EMaxC= 1.00D-01 BMatC= 3.85D-10 BMatP= 8.48D-09
 IDIUse=1 WtCom= 1.00D+00 WtEn= 0.00D+00
 Coeff-Com:  0.240D-04-0.213D-03-0.836D-03 0.415D-02 0.905D-02-0.320D-01
 Coeff-Com: -0.210D+00 0.123D+01
 Coeff:      0.240D-04-0.213D-03-0.836D-03 0.415D-02 0.905D-02-0.320D-01
 Coeff:     -0.210D+00 0.123D+01
 Gap=     0.601 Goal=   None    Shift=    0.000
 RMSDP=2.12D-07 MaxDP=4.13D-06 DE=-1.93D-08 OVMax= 1.41D-05

 Cycle   9  Pass 1  IDiag  1:
 E= -152.113116106725     Delta-E=       -0.000000000876 Rises=F Damp=F
 DIIS: error= 7.48D-07 at cycle   9 NSaved=   9.
 NSaved= 9 IEnMin= 9 EnMin= -152.113116106725     IErMin= 9 ErrMin= 7.48D-07
 ErrMax= 7.48D-07  0.00D+00 EMaxC= 1.00D-01 BMatC= 2.35D-11 BMatP= 3.85D-10
 IDIUse=1 WtCom= 1.00D+00 WtEn= 0.00D+00
 Coeff-Com:  0.145D-05 0.256D-04 0.101D-03-0.233D-02 0.779D-02 0.117D-01
 Coeff-Com: -0.333D-01-0.275D+00 0.129D+01
 Coeff:      0.145D-05 0.256D-04 0.101D-03-0.233D-02 0.779D-02 0.117D-01
 Coeff:     -0.333D-01-0.275D+00 0.129D+01
 Gap=     0.601 Goal=   None    Shift=    0.000
 RMSDP=5.64D-08 MaxDP=1.08D-06 DE=-8.76D-10 OVMax= 3.20D-06

 Cycle  10  Pass 1  IDiag  1:
 E= -152.113116106777     Delta-E=       -0.000000000052 Rises=F Damp=F
 DIIS: error= 8.42D-08 at cycle  10 NSaved=  10.
 NSaved=10 IEnMin=10 EnMin= -152.113116106777     IErMin=10 ErrMin= 8.42D-08
 ErrMax= 8.42D-08  0.00D+00 EMaxC= 1.00D-01 BMatC= 3.99D-13 BMatP= 2.35D-11
 IDIUse=1 WtCom= 1.00D+00 WtEn= 0.00D+00
 Coeff-Com: -0.652D-06 0.746D-06 0.149D-05 0.229D-03-0.104D-02-0.104D-02
 Coeff-Com:  0.650D-02 0.289D-01-0.236D+00 0.120D+01
 Coeff:     -0.652D-06 0.746D-06 0.149D-05 0.229D-03-0.104D-02-0.104D-02
 Coeff:      0.650D-02 0.289D-01-0.236D+00 0.120D+01
 Gap=     0.601 Goal=   None    Shift=    0.000
 RMSDP=6.42D-09 MaxDP=1.38D-07 DE=-5.16D-11 OVMax= 3.78D-07

 SCF Done:  E(RHF) =  -152.113116107     A.U. after   10 cycles
            NFock= 10  Conv=0.64D-08     -V/T= 2.0021
 KE= 1.517930908305D+02 PE=-4.276380135733D+02 EE= 9.062476108702D+01
 Leave Link  502 at Sun Aug 28 01:36:11 2022, MaxMem=   536870912 cpu:               4.3 elap:               1.2
 (Enter /usr/site/hpc/x86_64/glibc-2.17/broadwell/gaussian/g16_a.03/pgi-16.5/g16/l801.exe)
 Windowed orbitals will be sorted by symmetry type.
 ExpMin= 1.03D-01 ExpMax= 1.53D+04 ExpMxC= 5.22D+02 IAcc=3 IRadAn=         5 AccDes= 0.00D+00
 HarFok:  IExCor=  205 AccDes= 0.00D+00 IRadAn=         5 IDoV=-2 UseB2=F ITyADJ=14
 ICtDFT= 12500011 ScaDFX=  1.000000  1.000000  1.000000  1.000000
 Largest valence mixing into a core orbital is  1.12D-04
 Largest core mixing into a valence orbital is  1.77D-05
 Range of M.O.s used for correlation:     3   116
 NBasis=   116 NAE=    10 NBE=    10 NFC=     2 NFV=     0
 NROrb=    114 NOA=     8 NOB=     8 NVA=   106 NVB=   106
 Leave Link  801 at Sun Aug 28 01:36:12 2022, MaxMem=   536870912 cpu:               0.3 elap:               0.1
 (Enter /usr/site/hpc/x86_64/glibc-2.17/broadwell/gaussian/g16_a.03/pgi-16.5/g16/l804.exe)
 Closed-shell transformation, MDV=   536870912 ITran=4 ISComp=2.
 Unit  1 TFree=        834515 TCopy=        406125.
 Semi-Direct transformation.
 ModeAB=           4 MOrb=             8 LenV=     536366567
 LASXX=      2873146 LTotXX=     2873146 LenRXX=     5831278
 LTotAB=     2958132 MaxLAS=     7064352 LenRXY=           0
 NonZer=     8704424 LenScr=    13107200 LnRSAI=     7064352
 LnScr1=    11010048 LExtra=           0 Total=     37012878
 MaxDsk=          -1 SrtSym=           T ITran=            4
 DoSDTr:  NPSUse=  4
 JobTyp=0 Pass  1:  I=   1 to   8.
 (rs|ai) integrals will be sorted in core.
 Complete sort for first half transformation.
 First half transformation complete.
 Complete sort for second half transformation.
 Second half transformation complete.
 Spin components of T(2) and E(2):
     alpha-alpha T2 =       0.1563708934D-01 E2=     -0.6404607323D-01
     alpha-beta  T2 =       0.9190174603D-01 E2=     -0.3985471414D+00
     beta-beta   T2 =       0.1563708934D-01 E2=     -0.6404607323D-01
 ANorm=    0.1059799946D+01
 E2 =    -0.5266392879D+00 EUMP2 =    -0.15263975539468D+03
 Leave Link  804 at Sun Aug 28 01:36:13 2022, MaxMem=   536870912 cpu:               4.9 elap:               1.3
 (Enter /usr/site/hpc/x86_64/glibc-2.17/broadwell/gaussian/g16_a.03/pgi-16.5/g16/l913.exe)
 CIDS:  MDV=   536870912.
 Frozen-core window:  NFC=   2 NFV=   0.
 IFCWin=0 IBDFC=1 NFBD=     0     0 NFCmp=     0     0 NFFFC=     0     0
 Using DD3R+UMP44R for 1st iteration.
 Using DD4RQ for 2nd and later iterations.
 Keep R2 and R3 ints in memory in symmetry-blocked form, NReq=35357534.
 FoFCou: FMM=F IPFlag=           0 FMFlag=           0 FMFlg1=           0
         NFxFlg=           0 DoJE=F BraDBF=F KetDBF=F FulRan=T
         wScrn=  0.000000 ICntrl=       600 IOpCl=  0 I1Cent=           0 NGrid=           0
         NMat0=    1 NMatS0=   6786 NMatT0=    0 NMatD0=    1 NMtDS0=    0 NMtDT0=    0
 Petite list used in FoFCou.
 CIDS: In Core Option IDoMem=           1.
 CCSD(T)
 =======
 Iterations=  50 Convergence= 0.100D-06
 Produce multiple copies of IABC intergrals
 Iteration Nr.   1
 **********************
 DD1Dir will call FoFMem   1 times, MxPair=        72
 NAB=    36 NAA=     0 NBB=     0.
 MP4(R+Q)=  0.75914766D-02
 Maximum subspace dimension=  5
 A-vector RMS=  1.7782979D-03 Max=  5.7193762D-03 conv= 1.00D-05.
 RLE energy=       -0.5263053359
 E3=       -0.73261987D-02        EUMP3=      -0.15264708159D+03
 E4(DQ)=   -0.14889741D-02        UMP4(DQ)=   -0.15264857057D+03
 E4(SDQ)=  -0.45789431D-02        UMP4(SDQ)=  -0.15265166054D+03
 VARIATIONAL ENERGIES WITH THE FIRST-ORDER WAVEFUNCTION:
 DE(Corr)= -0.52630513     E(Corr)=     -152.63942124    
 NORM(A)=   0.10600791D+01
 Iteration Nr.   2
 **********************
 DD1Dir will call FoFMem   1 times, MxPair=        72
 NAB=    36 NAA=     0 NBB=     0.
 A-vector RMS=  2.1271457D-04 Max=  2.0732438D-03 conv= 1.00D-05.
 RLE energy=       -0.5373495832
 DE(Corr)= -0.53622011     E(CORR)=     -152.64933622     Delta=-9.91D-03
 NORM(A)=   0.10638168D+01
 Iteration Nr.   3
 **********************
 DD1Dir will call FoFMem   1 times, MxPair=        72
 NAB=    36 NAA=     0 NBB=     0.
 A-vector RMS=  1.4939132D-04 Max=  7.4793833D-04 conv= 1.00D-05.
 RLE energy=       -0.5378436136
 DE(Corr)= -0.53725736     E(CORR)=     -152.65037347     Delta=-1.04D-03
 NORM(A)=   0.10644467D+01
 Iteration Nr.   4
 **********************
 DD1Dir will call FoFMem   1 times, MxPair=        72
 NAB=    36 NAA=     0 NBB=     0.
 A-vector RMS=  2.9851723D-05 Max=  1.3866456D-04 conv= 1.00D-05.
 RLE energy=       -0.5379232774
 DE(Corr)= -0.53788948     E(CORR)=     -152.65100558     Delta=-6.32D-04
 NORM(A)=   0.10645565D+01
 Iteration Nr.   5
 **********************
 DD1Dir will call FoFMem   1 times, MxPair=        72
 NAB=    36 NAA=     0 NBB=     0.
 A-vector RMS=  1.8612017D-05 Max=  1.5472901D-04 conv= 1.00D-05.
 RLE energy=       -0.5379345865
 DE(Corr)= -0.53792738     E(CORR)=     -152.65104348     Delta=-3.79D-05
 NORM(A)=   0.10645675D+01
 Iteration Nr.   6
 **********************
 DD1Dir will call FoFMem   1 times, MxPair=        72
 NAB=    36 NAA=     0 NBB=     0.
 A-vector RMS=  5.7548780D-06 Max=  4.5528473D-05 conv= 1.00D-05.
 RLE energy=       -0.5379266113
 DE(Corr)= -0.53793094     E(CORR)=     -152.65104705     Delta=-3.57D-06
 NORM(A)=   0.10645670D+01
 Iteration Nr.   7
 **********************
 DD1Dir will call FoFMem   1 times, MxPair=        72
 NAB=    36 NAA=     0 NBB=     0.
 A-vector RMS=  2.6400589D-06 Max=  2.4653573D-05 conv= 1.00D-05.
 RLE energy=       -0.5379307010
 DE(Corr)= -0.53793114     E(CORR)=     -152.65104724     Delta=-1.93D-07
 NORM(A)=   0.10645686D+01
 Iteration Nr.   8
 **********************
 DD1Dir will call FoFMem   1 times, MxPair=        72
 NAB=    36 NAA=     0 NBB=     0.
 A-vector RMS=  1.0005550D-06 Max=  8.9937680D-06 conv= 1.00D-05.
 RLE energy=       -0.5379304906
 DE(Corr)= -0.53793071     E(CORR)=     -152.65104681     Delta= 4.30D-07
 NORM(A)=   0.10645688D+01
 Iteration Nr.   9
 **********************
 DD1Dir will call FoFMem   1 times, MxPair=        72
 NAB=    36 NAA=     0 NBB=     0.
 A-vector RMS=  2.1821695D-07 Max=  3.0801789D-06 conv= 1.00D-05.
 RLE energy=       -0.5379307429
 DE(Corr)= -0.53793081     E(CORR)=     -152.65104692     Delta=-1.07D-07
 NORM(A)=   0.10645692D+01
 Iteration Nr.  10
 **********************
 DD1Dir will call FoFMem   1 times, MxPair=        72
 NAB=    36 NAA=     0 NBB=     0.
 A-vector RMS=  7.7951162D-08 Max=  1.1914881D-06 conv= 1.00D-05.
 RLE energy=       -0.5379309437
 DE(Corr)= -0.53793093     E(CORR)=     -152.65104704     Delta=-1.20D-07
 NORM(A)=   0.10645693D+01
 Iteration Nr.  11
 **********************
 DD1Dir will call FoFMem   1 times, MxPair=        72
 NAB=    36 NAA=     0 NBB=     0.
 A-vector RMS=  3.0278915D-08 Max=  4.0181093D-07 conv= 1.00D-05.
 RLE energy=       -0.5379310069
 DE(Corr)= -0.53793099     E(CORR)=     -152.65104709     Delta=-5.31D-08
 NORM(A)=   0.10645694D+01
 CI/CC converged in   11 iterations to DelEn=-5.31D-08 Conv= 1.00D-07 ErrA1= 3.03D-08 Conv= 1.00D-05
 Wavefunction amplitudes converged. E(Corr)=     -152.65104709    
 Largest amplitude= 4.36D-02
 IPart=  4 IA=    7   11.05% done.
 IPart=  3 IA=   13   21.46% done.
 IPart=  4 IA=   19   31.21% done.
 IPart=  4 IA=   25   40.32% done.
 IPart=  4 IA=   32   50.13% done.
 IPart=  4 IA=   40   60.27% done.
 IPart=  4 IA=   49   70.30% done.
 IPart=  2 IA=   60   80.58% done.
 IPart=  3 IA=   74   90.51% done.
 Time for triples=       52.43 seconds.
 T4(CCSD)= -0.16156493D-01
 T5(CCSD)=  0.40945553D-03
 CCSD(T)= -0.15266679413D+03
 Discarding MO integrals.
 Leave Link  913 at Sun Aug 28 01:36:38 2022, MaxMem=   536870912 cpu:              94.9 elap:              25.5
 (Enter /usr/site/hpc/x86_64/glibc-2.17/broadwell/gaussian/g16_a.03/pgi-16.5/g16/l601.exe)
 Copying SCF densities to generalized density rwf, IOpCl= 0 IROHF=0.

 **********************************************************************

            Population analysis using the SCF density.

 **********************************************************************

 Orbital symmetries:
       Occupied  (A') (A') (A') (A') (A') (A') (A') (A') (A") (A")
       Virtual   (A') (A') (A') (A') (A') (A') (A') (A') (A') (A')
                 (A") (A') (A") (A") (A') (A') (A") (A') (A") (A")
                 (A') (A') (A') (A') (A') (A') (A') (A') (A") (A")
                 (A") (A') (A") (A') (A') (A') (A') (A') (A') (A')
                 (A') (A') (A") (A") (A') (A") (A') (A") (A') (A')
                 (A") (A") (A') (A') (A') (A') (A") (A") (A") (A")
                 (A') (A') (A') (A') (A") (A") (A') (A') (A') (A')
                 (A") (A") (A') (A') (A') (A') (A') (A') (A') (A')
                 (A") (A") (A') (A') (A") (A") (A") (A") (A') (A")
                 (A") (A') (A') (A') (A') (A") (A') (A") (A') (A')
                 (A') (A') (A') (A') (A') (A')
 The electronic state is 1-A'.
 Alpha  occ. eigenvalues --  -20.57579 -20.53393  -1.34835  -1.30780  -0.72204
 Alpha  occ. eigenvalues --   -0.68267  -0.58595  -0.54206  -0.51975  -0.47936
 Alpha virt. eigenvalues --    0.12182   0.17291   0.19064   0.27369   0.51087
 Alpha virt. eigenvalues --    0.54651   0.56317   0.59199   0.69062   0.72383
 Alpha virt. eigenvalues --    0.75492   0.77125   0.81038   0.83291   0.84600
 Alpha virt. eigenvalues --    0.86398   0.86613   0.91520   0.94804   1.02690
 Alpha virt. eigenvalues --    1.11290   1.12830   1.21546   1.25048   1.50132
 Alpha virt. eigenvalues --    1.50441   1.54110   1.76678   1.98611   2.02873
 Alpha virt. eigenvalues --    2.04783   2.04890   2.09216   2.09610   2.14760
 Alpha virt. eigenvalues --    2.23421   2.26037   2.33090   2.59703   2.64163
 Alpha virt. eigenvalues --    2.91064   2.96793   3.37569   3.41553   3.48194
 Alpha virt. eigenvalues --    3.51393   3.52158   3.55344   3.57739   3.61927
 Alpha virt. eigenvalues --    3.76695   3.80639   3.82394   3.88294   3.89489
 Alpha virt. eigenvalues --    3.91677   3.91837   3.95157   4.02268   4.06244
 Alpha virt. eigenvalues --    4.06828   4.12360   4.13710   4.25888   4.28279
 Alpha virt. eigenvalues --    4.32379   4.39916   4.43394   4.43642   4.50766
 Alpha virt. eigenvalues --    4.64857   4.68648   4.80525   4.84447   5.02847
 Alpha virt. eigenvalues --    5.08148   5.24668   5.27918   5.53074   5.57505
 Alpha virt. eigenvalues --    5.95813   5.99952   6.38427   6.43571   6.84131
 Alpha virt. eigenvalues --    6.87674   6.88248   6.91839   6.91960   6.96983
 Alpha virt. eigenvalues --    7.01241   7.04484   7.06606   7.10395   7.14588
 Alpha virt. eigenvalues --    7.16161   7.16417   7.20381   7.45770   7.51245
 Alpha virt. eigenvalues --    7.68607   7.73078   8.13791   8.18859  12.48922
 Alpha virt. eigenvalues --   12.74989
          Condensed to atoms (all electrons):
               1          2          3          4          5          6
     1  O    7.842397   0.348932   0.345684  -0.002694   0.000149   0.000159
     2  H    0.348932   0.403273  -0.038911   0.017118  -0.001232  -0.001069
     3  H    0.345684  -0.038911   0.444789  -0.000384   0.000027   0.000051
     4  O   -0.002694   0.017118  -0.000384   7.836927   0.329604   0.327347
     5  H    0.000149  -0.001232   0.000027   0.329604   0.434387  -0.026332
     6  H    0.000159  -0.001069   0.000051   0.327347  -0.026332   0.441329
 Mulliken charges:
               1
     1  O   -0.534628
     2  H    0.271889
     3  H    0.248744
     4  O   -0.507918
     5  H    0.263397
     6  H    0.258515
 Sum of Mulliken charges =  -0.00000
 Mulliken charges with hydrogens summed into heavy atoms:
               1
     1  O   -0.013994
     4  O    0.013994
 Electronic spatial extent (au):  <R**2>=            256.5907
 Charge=              0.0000 electrons
 Dipole moment (field-independent basis, Debye):
    X=             -1.3894    Y=             -3.4365    Z=             -0.0000  Tot=              3.7067
 Quadrupole moment (field-independent basis, Debye-Ang):
   XX=             -9.1523   YY=             -8.0353   ZZ=            -14.7325
   XY=             -4.0639   XZ=              0.0000   YZ=             -0.0000
 Traceless Quadrupole moment (field-independent basis, Debye-Ang):
   XX=              1.4877   YY=              2.6047   ZZ=             -4.0924
   XY=             -4.0639   XZ=              0.0000   YZ=             -0.0000
 Octapole moment (field-independent basis, Debye-Ang**2):
  XXX=             -1.1006  YYY=            -26.3497  ZZZ=             -0.0000  XYY=             -8.7570
  XXY=             -3.5702  XXZ=             -0.0000  XZZ=             -0.1809  YZZ=             -0.5457
  YYZ=             -0.0000  XYZ=             -0.0000
 Hexadecapole moment (field-independent basis, Debye-Ang**3):
 XXXX=            -11.1117 YYYY=           -200.5241 ZZZZ=            -11.3855 XXXY=             -2.0757
 XXXZ=             -0.0000 YYYX=            -15.6186 YYYZ=             -0.0000 ZZZX=             -0.0000
 ZZZY=              0.0000 XXYY=            -25.1477 XXZZ=             -4.4588 YYZZ=            -49.2749
 XXYZ=             -0.0000 YYXZ=              0.0000 ZZXY=              0.9878
 N-N= 3.310704554905D+01 E-N=-4.276380130273D+02  KE= 1.517930908305D+02
 Symmetry A'   KE= 1.427617679195D+02
 Symmetry A"   KE= 9.031322910953D+00
 Leave Link  601 at Sun Aug 28 01:36:39 2022, MaxMem=   536870912 cpu:               0.2 elap:               0.0
 (Enter /usr/site/hpc/x86_64/glibc-2.17/broadwell/gaussian/g16_a.03/pgi-16.5/g16/l9999.exe)
 1\1\GINC-N002\SP\RCCSD(T)-FC\CC-pVTZ\H4O2\ROOT\28-Aug-2022\0\\#p CCSD(
 T)/cc-pVTZ\\H2O_H2O_1791\\0,1\O,0,0.,-0.009833,0.\H,0,-0.799571,-0.580
 965,0.\H,0,0.799571,-0.580965,0.\O,0,-2.821552,-2.014262,0.\H,0,-3.715
 953,-1.607379,0.\H,0,-2.916382,-2.992277,0.\\Version=ES64L-G16RevA.03\
 State=1-A'\HF=-152.1131161\MP2=-152.6397554\MP3=-152.6470816\MP4D=-152
 .656162\MP4DQ=-152.6485706\MP4SDQ=-152.6516605\CCSD=-152.6510471\CCSD(
 T)=-152.6667941\RMSD=6.420e-09\PG=CS [SG(H4O2)]\\@


 LEARN FROM YESTERDAY,
 LIVE FOR TODAY,
 LOOK TO TOMORROW,
 REST THIS AFTERNOON.

           -- SNOOPY
 Job cpu time:       0 days  0 hours  1 minutes 50.9 seconds.
 Elapsed time:       0 days  0 hours  0 minutes 30.2 seconds.
 File lengths (MBytes):  RWF=    352 Int=      0 D2E=      0 Chk=      8 Scr=      8
 Normal termination of Gaussian 16 at Sun Aug 28 01:36:39 2022.
