 Entering Gaussian System, Link 0=g16
 Input=H2O_H2O_4220.com
 Output=H2O_H2O_4220.log
 Initial command:
 /usr/site/hpc/x86_64/glibc-2.17/broadwell/gaussian/g16_a.03/pgi-16.5/g16/l1.exe "/gpfs/gpfs1/scratch/c7441284/ForceFieldModel/FittingData2/Gau-885431.inp" -scrdir="/gpfs/gpfs1/scratch/c7441284/ForceFieldModel/FittingData2/"
 Entering Link 1 = /usr/site/hpc/x86_64/glibc-2.17/broadwell/gaussian/g16_a.03/pgi-16.5/g16/l1.exe PID=    885432.
  
 Copyright (c) 1988,1990,1992,1993,1995,1998,2003,2009,2016,
            Gaussian, Inc.  All Rights Reserved.
  
 This is part of the Gaussian(R) 16 program.  It is based on
 the Gaussian(R) 09 system (copyright 2009, Gaussian, Inc.),
 the Gaussian(R) 03 system (copyright 2003, Gaussian, Inc.),
 the Gaussian(R) 98 system (copyright 1998, Gaussian, Inc.),
 the Gaussian(R) 94 system (copyright 1995, Gaussian, Inc.),
 the Gaussian 92(TM) system (copyright 1992, Gaussian, Inc.),
 the Gaussian 90(TM) system (copyright 1990, Gaussian, Inc.),
 the Gaussian 88(TM) system (copyright 1988, Gaussian, Inc.),
 the Gaussian 86(TM) system (copyright 1986, Carnegie Mellon
 University), and the Gaussian 82(TM) system (copyright 1983,
 Carnegie Mellon University). Gaussian is a federally registered
 trademark of Gaussian, Inc.
  
 This software contains proprietary and confidential information,
 including trade secrets, belonging to Gaussian, Inc.
  
 This software is provided under written license and may be
 used, copied, transmitted, or stored only in accord with that
 written license.
  
 The following legend is applicable only to US Government
 contracts under FAR:
  
                    RESTRICTED RIGHTS LEGEND
  
 Use, reproduction and disclosure by the US Government is
 subject to restrictions as set forth in subparagraphs (a)
 and (c) of the Commercial Computer Software - Restricted
 Rights clause in FAR 52.227-19.
  
 Gaussian, Inc.
 340 Quinnipiac St., Bldg. 40, Wallingford CT 06492
  
  
 ---------------------------------------------------------------
 Warning -- This program may not be used in any manner that
 competes with the business of Gaussian, Inc. or will provide
 assistance to any competitor of Gaussian, Inc.  The licensee
 of this program is prohibited from giving any competitor of
 Gaussian, Inc. access to this program.  By using this program,
 the user acknowledges that Gaussian, Inc. is engaged in the
 business of creating and licensing software in the field of
 computational chemistry and represents and warrants to the
 licensee that it is not a competitor of Gaussian, Inc. and that
 it will not use this program in any manner prohibited above.
 ---------------------------------------------------------------
  

 Cite this work as:
 Gaussian 16, Revision A.03,
 M. J. Frisch, G. W. Trucks, H. B. Schlegel, G. E. Scuseria, 
 M. A. Robb, J. R. Cheeseman, G. Scalmani, V. Barone, 
 G. A. Petersson, H. Nakatsuji, X. Li, M. Caricato, A. V. Marenich, 
 J. Bloino, B. G. Janesko, R. Gomperts, B. Mennucci, H. P. Hratchian, 
 J. V. Ortiz, A. F. Izmaylov, J. L. Sonnenberg, D. Williams-Young, 
 F. Ding, F. Lipparini, F. Egidi, J. Goings, B. Peng, A. Petrone, 
 T. Henderson, D. Ranasinghe, V. G. Zakrzewski, J. Gao, N. Rega, 
 G. Zheng, W. Liang, M. Hada, M. Ehara, K. Toyota, R. Fukuda, 
 J. Hasegawa, M. Ishida, T. Nakajima, Y. Honda, O. Kitao, H. Nakai, 
 T. Vreven, K. Throssell, J. A. Montgomery, Jr., J. E. Peralta, 
 F. Ogliaro, M. J. Bearpark, J. J. Heyd, E. N. Brothers, K. N. Kudin, 
 V. N. Staroverov, T. A. Keith, R. Kobayashi, J. Normand, 
 K. Raghavachari, A. P. Rendell, J. C. Burant, S. S. Iyengar, 
 J. Tomasi, M. Cossi, J. M. Millam, M. Klene, C. Adamo, R. Cammi, 
 J. W. Ochterski, R. L. Martin, K. Morokuma, O. Farkas, 
 J. B. Foresman, and D. J. Fox, Gaussian, Inc., Wallingford CT, 2016.
 
 ******************************************
 Gaussian 16:  ES64L-G16RevA.03 25-Dec-2016
                28-Aug-2022 
 ******************************************
 %NProcShared=4
 Will use up to    4 processors via shared memory.
 %Mem=4GB
 %Chk=H2O_H2O_4220.chk
 ------------------
 #p CCSD(T)/cc-pVTZ
 ------------------
 1/38=1,172=1/1;
 2/12=2,17=6,18=5,40=1/2;
 3/5=16,6=1,11=9,25=1,30=1/1,2,3;
 4//1;
 5/5=2,38=5/2;
 8/6=4,9=120000,10=1/1,4;
 9/5=7,14=2/13;
 6/7=2,8=2,9=2,10=2/1;
 99/5=1,9=1/99;
 Leave Link    1 at Sun Aug 28 00:54:09 2022, MaxMem=   536870912 cpu:               0.3 elap:               0.1
 (Enter /usr/site/hpc/x86_64/glibc-2.17/broadwell/gaussian/g16_a.03/pgi-16.5/g16/l101.exe)
 ------------
 H2O_H2O_4220
 ------------
 Symbolic Z-matrix:
 Charge =  0 Multiplicity = 1
 O                     0.       -0.00983   0. 
 H                    -0.79957  -0.58097   0. 
 H                     0.79957  -0.58097   0. 
 O                    -4.39674  -3.13634   0. 
 H                    -5.15535  -2.51183   0. 
 H                    -4.74146  -4.05649   0. 
 
 ITRead=  0  0  0  0  0  0
 MicOpt= -1 -1 -1 -1 -1 -1
 NAtoms=      6 NQM=        6 NQMF=       0 NMMI=      0 NMMIF=      0
                NMic=       0 NMicF=      0.
                    Isotopes and Nuclear Properties:
 (Nuclear quadrupole moments (NQMom) in fm**2, nuclear magnetic moments (NMagM)
  in nuclear magnetons)

  Atom         1           2           3           4           5           6
 IAtWgt=          16           1           1          16           1           1
 AtmWgt=  15.9949146   1.0078250   1.0078250  15.9949146   1.0078250   1.0078250
 NucSpn=           0           1           1           0           1           1
 AtZEff=  -0.0000000  -0.0000000  -0.0000000  -0.0000000  -0.0000000  -0.0000000
 NQMom=    0.0000000   0.0000000   0.0000000   0.0000000   0.0000000   0.0000000
 NMagM=    0.0000000   2.7928460   2.7928460   0.0000000   2.7928460   2.7928460
 AtZNuc=   8.0000000   1.0000000   1.0000000   8.0000000   1.0000000   1.0000000
 Leave Link  101 at Sun Aug 28 00:54:10 2022, MaxMem=   536870912 cpu:               0.7 elap:               0.2
 (Enter /usr/site/hpc/x86_64/glibc-2.17/broadwell/gaussian/g16_a.03/pgi-16.5/g16/l202.exe)
                          Input orientation:                          
 ---------------------------------------------------------------------
 Center     Atomic      Atomic             Coordinates (Angstroms)
 Number     Number       Type             X           Y           Z
 ---------------------------------------------------------------------
      1          8           0        0.000000   -0.009833    0.000000
      2          1           0       -0.799571   -0.580965    0.000000
      3          1           0        0.799571   -0.580965    0.000000
      4          8           0       -4.396738   -3.136340    0.000000
      5          1           0       -5.155353   -2.511833    0.000000
      6          1           0       -4.741465   -4.056487    0.000000
 ---------------------------------------------------------------------
                    Distance matrix (angstroms):
                    1          2          3          4          5
     1  O    0.000000
     2  H    0.982601   0.000000
     3  H    0.982601   1.599142   0.000000
     4  O    5.395030   4.412432   5.790645   0.000000
     5  H    5.730416   4.764566   6.260141   0.982602   0.000000
     6  H    6.233530   5.255262   6.540821   0.982602   1.599143
                    6
     6  H    0.000000
 Stoichiometry    H4O2
 Framework group  CS[SG(H4O2)]
 Deg. of freedom     9
 Full point group                 CS      NOp   2
 Largest Abelian subgroup         CS      NOp   2
 Largest concise Abelian subgroup C1      NOp   1
                         Standard orientation:                         
 ---------------------------------------------------------------------
 Center     Atomic      Atomic             Coordinates (Angstroms)
 Number     Number       Type             X           Y           Z
 ---------------------------------------------------------------------
      1          8           0        0.026622    2.784139   -0.000000
      2          1           0        0.024536    1.801539   -0.000000
      3          1           0       -0.902193    3.104777    0.000000
      4          8           0        0.026622   -2.610892   -0.000000
      5          1           0        0.975200   -2.867221   -0.000000
      6          1           0       -0.523487   -3.425071    0.000000
 ---------------------------------------------------------------------
 Rotational constants (GHZ):         250.1203181           1.8991260           1.8848149
 Leave Link  202 at Sun Aug 28 00:54:10 2022, MaxMem=   536870912 cpu:               0.0 elap:               0.0
 (Enter /usr/site/hpc/x86_64/glibc-2.17/broadwell/gaussian/g16_a.03/pgi-16.5/g16/l301.exe)
 Standard basis: CC-pVTZ (5D, 7F)
 Ernie: Thresh=  0.10000D-02 Tol=  0.10000D-05 Strict=F.
 Ernie:  6 primitive shells out of 84 were deleted.
 There are    92 symmetry adapted cartesian basis functions of A'  symmetry.
 There are    38 symmetry adapted cartesian basis functions of A"  symmetry.
 There are    80 symmetry adapted basis functions of A'  symmetry.
 There are    36 symmetry adapted basis functions of A"  symmetry.
   116 basis functions,   172 primitive gaussians,   130 cartesian basis functions
    10 alpha electrons       10 beta electrons
       nuclear repulsion energy        27.6584412382 Hartrees.
 IExCor=    0 DFT=F Ex=HF Corr=None ExCW=0 ScaHFX=  1.000000
 ScaDFX=  1.000000  1.000000  1.000000  1.000000 ScalE2=  1.000000  1.000000
 IRadAn=      5 IRanWt=     -1 IRanGd=            0 ICorTp=0 IEmpDi=  4
 NAtoms=    6 NActive=    6 NUniq=    6 SFac= 1.00D+00 NAtFMM=   60 NAOKFM=F Big=F
 Integral buffers will be    131072 words long.
 Raffenetti 1 integral format.
 Two-electron integral symmetry is turned on.
 Leave Link  301 at Sun Aug 28 00:54:10 2022, MaxMem=   536870912 cpu:               0.2 elap:               0.0
 (Enter /usr/site/hpc/x86_64/glibc-2.17/broadwell/gaussian/g16_a.03/pgi-16.5/g16/l302.exe)
 NPDir=0 NMtPBC=     1 NCelOv=     1 NCel=       1 NClECP=     1 NCelD=      1
         NCelK=      1 NCelE2=     1 NClLst=     1 CellRange=     0.0.
 One-electron integrals computed using PRISM.
 One-electron integral symmetry used in STVInt
 NBasis=   116 RedAO= T EigKep=  2.65D-03  NBF=    80    36
 NBsUse=   116 1.00D-06 EigRej= -1.00D+00 NBFU=    80    36
 Leave Link  302 at Sun Aug 28 00:54:10 2022, MaxMem=   536870912 cpu:               0.5 elap:               0.1
 (Enter /usr/site/hpc/x86_64/glibc-2.17/broadwell/gaussian/g16_a.03/pgi-16.5/g16/l303.exe)
 DipDrv:  MaxL=1.
 Leave Link  303 at Sun Aug 28 00:54:10 2022, MaxMem=   536870912 cpu:               0.1 elap:               0.0
 (Enter /usr/site/hpc/x86_64/glibc-2.17/broadwell/gaussian/g16_a.03/pgi-16.5/g16/l401.exe)
 ExpMin= 1.03D-01 ExpMax= 1.53D+04 ExpMxC= 5.22D+02 IAcc=3 IRadAn=         5 AccDes= 0.00D+00
 Harris functional with IExCor=  205 and IRadAn=       5 diagonalized for initial guess.
 HarFok:  IExCor=  205 AccDes= 0.00D+00 IRadAn=         5 IDoV= 1 UseB2=F ITyADJ=14
 ICtDFT=  3500011 ScaDFX=  1.000000  1.000000  1.000000  1.000000
 FoFCou: FMM=F IPFlag=           0 FMFlag=      100000 FMFlg1=           0
         NFxFlg=           0 DoJE=T BraDBF=F KetDBF=T FulRan=T
         wScrn=  0.000000 ICntrl=       500 IOpCl=  0 I1Cent=   200000004 NGrid=           0
         NMat0=    1 NMatS0=      1 NMatT0=    0 NMatD0=    1 NMtDS0=    0 NMtDT0=    0
 Petite list used in FoFCou.
 Harris En= -152.298696902051    
 JPrj=0 DoOrth=F DoCkMO=F.
 Initial guess orbital symmetries:
       Occupied  (A') (A') (A') (A') (A') (A') (A') (A') (A") (A")
       Virtual   (A') (A') (A') (A') (A') (A') (A') (A') (A') (A')
                 (A") (A") (A') (A') (A') (A') (A") (A") (A") (A")
                 (A') (A') (A') (A') (A') (A') (A') (A') (A") (A")
                 (A") (A") (A') (A') (A') (A') (A') (A') (A') (A')
                 (A') (A') (A") (A") (A') (A') (A") (A") (A") (A")
                 (A') (A') (A') (A') (A') (A') (A") (A") (A') (A')
                 (A') (A') (A") (A") (A") (A") (A') (A') (A') (A')
                 (A") (A") (A') (A') (A') (A') (A') (A') (A') (A')
                 (A") (A") (A') (A') (A") (A") (A") (A") (A') (A')
                 (A") (A") (A') (A') (A') (A') (A") (A") (A') (A')
                 (A') (A') (A') (A') (A') (A')
 The electronic state of the initial guess is 1-A'.
 Leave Link  401 at Sun Aug 28 00:54:10 2022, MaxMem=   536870912 cpu:               0.8 elap:               0.2
 (Enter /usr/site/hpc/x86_64/glibc-2.17/broadwell/gaussian/g16_a.03/pgi-16.5/g16/l502.exe)
 Keep R1 ints in memory in symmetry-blocked form, NReq=34823457.
 FoFCou: FMM=F IPFlag=           0 FMFlag=           0 FMFlg1=           0
         NFxFlg=           0 DoJE=F BraDBF=F KetDBF=F FulRan=T
         wScrn=  0.000000 ICntrl=       600 IOpCl=  0 I1Cent=           0 NGrid=           0
         NMat0=    1 NMatS0=   6786 NMatT0=    0 NMatD0=    1 NMtDS0=    0 NMtDT0=    0
 Petite list used in FoFCou.
 Closed shell SCF:
 Using DIIS extrapolation, IDIIS=  1040.
 NGot=   536870912 LenX=   525040673 LenY=   525023332
 Requested convergence on RMS density matrix=1.00D-08 within 128 cycles.
 Requested convergence on MAX density matrix=1.00D-06.
 Requested convergence on             energy=1.00D-06.
 No special actions if energy rises.

 Cycle   1  Pass 1  IDiag  1:
 E= -151.929346476817    
 DIIS: error= 6.59D-02 at cycle   1 NSaved=   1.
 NSaved= 1 IEnMin= 1 EnMin= -151.929346476817     IErMin= 1 ErrMin= 6.59D-02
 ErrMax= 6.59D-02  0.00D+00 EMaxC= 1.00D-01 BMatC= 3.99D-01 BMatP= 3.99D-01
 IDIUse=3 WtCom= 3.41D-01 WtEn= 6.59D-01
 Coeff-Com:  0.100D+01
 Coeff-En:   0.100D+01
 Coeff:      0.100D+01
 Gap=     0.513 Goal=   None    Shift=    0.000
 GapD=    0.513 DampG=2.000 DampE=0.500 DampFc=1.0000 IDamp=-1.
 RMSDP=2.50D-03 MaxDP=6.70D-02              OVMax= 1.26D-01

 Cycle   2  Pass 1  IDiag  1:
 E= -152.040723273020     Delta-E=       -0.111376796203 Rises=F Damp=F
 DIIS: error= 4.13D-02 at cycle   2 NSaved=   2.
 NSaved= 2 IEnMin= 2 EnMin= -152.040723273020     IErMin= 2 ErrMin= 4.13D-02
 ErrMax= 4.13D-02  0.00D+00 EMaxC= 1.00D-01 BMatC= 1.12D-01 BMatP= 3.99D-01
 IDIUse=3 WtCom= 5.87D-01 WtEn= 4.13D-01
 Coeff-Com:  0.319D+00 0.681D+00
 Coeff-En:   0.165D+00 0.835D+00
 Coeff:      0.255D+00 0.745D+00
 Gap=     0.650 Goal=   None    Shift=    0.000
 RMSDP=1.32D-03 MaxDP=3.97D-02 DE=-1.11D-01 OVMax= 5.70D-02

 Cycle   3  Pass 1  IDiag  1:
 E= -152.104887832448     Delta-E=       -0.064164559428 Rises=F Damp=F
 DIIS: error= 8.97D-03 at cycle   3 NSaved=   3.
 NSaved= 3 IEnMin= 3 EnMin= -152.104887832448     IErMin= 3 ErrMin= 8.97D-03
 ErrMax= 8.97D-03  0.00D+00 EMaxC= 1.00D-01 BMatC= 5.95D-03 BMatP= 1.12D-01
 IDIUse=3 WtCom= 9.10D-01 WtEn= 8.97D-02
 Coeff-Com: -0.303D-01 0.156D+00 0.874D+00
 Coeff-En:   0.000D+00 0.000D+00 0.100D+01
 Coeff:     -0.276D-01 0.142D+00 0.886D+00
 Gap=     0.622 Goal=   None    Shift=    0.000
 RMSDP=2.42D-04 MaxDP=5.74D-03 DE=-6.42D-02 OVMax= 1.33D-02

 Cycle   4  Pass 1  IDiag  1:
 E= -152.108587430949     Delta-E=       -0.003699598501 Rises=F Damp=F
 DIIS: error= 8.50D-04 at cycle   4 NSaved=   4.
 NSaved= 4 IEnMin= 4 EnMin= -152.108587430949     IErMin= 4 ErrMin= 8.50D-04
 ErrMax= 8.50D-04  0.00D+00 EMaxC= 1.00D-01 BMatC= 3.67D-05 BMatP= 5.95D-03
 IDIUse=3 WtCom= 9.92D-01 WtEn= 8.50D-03
 Coeff-Com:  0.679D-02-0.612D-01-0.239D+00 0.129D+01
 Coeff-En:   0.000D+00 0.000D+00 0.000D+00 0.100D+01
 Coeff:      0.673D-02-0.607D-01-0.237D+00 0.129D+01
 Gap=     0.624 Goal=   None    Shift=    0.000
 RMSDP=5.16D-05 MaxDP=1.03D-03 DE=-3.70D-03 OVMax= 2.19D-03

 Cycle   5  Pass 1  IDiag  1:
 E= -152.108636677812     Delta-E=       -0.000049246863 Rises=F Damp=F
 DIIS: error= 1.93D-04 at cycle   5 NSaved=   5.
 NSaved= 5 IEnMin= 5 EnMin= -152.108636677812     IErMin= 5 ErrMin= 1.93D-04
 ErrMax= 1.93D-04  0.00D+00 EMaxC= 1.00D-01 BMatC= 1.34D-06 BMatP= 3.67D-05
 IDIUse=3 WtCom= 9.98D-01 WtEn= 1.93D-03
 Coeff-Com:  0.511D-03 0.683D-03-0.200D-02-0.227D+00 0.123D+01
 Coeff-En:   0.000D+00 0.000D+00 0.000D+00 0.000D+00 0.100D+01
 Coeff:      0.510D-03 0.682D-03-0.200D-02-0.226D+00 0.123D+01
 Gap=     0.625 Goal=   None    Shift=    0.000
 RMSDP=1.43D-05 MaxDP=2.94D-04 DE=-4.92D-05 OVMax= 6.85D-04

 Cycle   6  Pass 1  IDiag  1:
 E= -152.108639469586     Delta-E=       -0.000002791774 Rises=F Damp=F
 DIIS: error= 2.75D-05 at cycle   6 NSaved=   6.
 NSaved= 6 IEnMin= 6 EnMin= -152.108639469586     IErMin= 6 ErrMin= 2.75D-05
 ErrMax= 2.75D-05  0.00D+00 EMaxC= 1.00D-01 BMatC= 3.25D-08 BMatP= 1.34D-06
 IDIUse=1 WtCom= 1.00D+00 WtEn= 0.00D+00
 Coeff-Com: -0.258D-03 0.151D-02 0.642D-02 0.123D-02-0.249D+00 0.124D+01
 Coeff:     -0.258D-03 0.151D-02 0.642D-02 0.123D-02-0.249D+00 0.124D+01
 Gap=     0.625 Goal=   None    Shift=    0.000
 RMSDP=2.96D-06 MaxDP=6.63D-05 DE=-2.79D-06 OVMax= 1.52D-04

 Cycle   7  Pass 1  IDiag  1:
 E= -152.108639561100     Delta-E=       -0.000000091514 Rises=F Damp=F
 DIIS: error= 5.49D-06 at cycle   7 NSaved=   7.
 NSaved= 7 IEnMin= 7 EnMin= -152.108639561100     IErMin= 7 ErrMin= 5.49D-06
 ErrMax= 5.49D-06  0.00D+00 EMaxC= 1.00D-01 BMatC= 2.19D-09 BMatP= 3.25D-08
 IDIUse=1 WtCom= 1.00D+00 WtEn= 0.00D+00
 Coeff-Com: -0.122D-04-0.139D-03-0.462D-03 0.136D-01-0.547D-01-0.281D-01
 Coeff-Com:  0.107D+01
 Coeff:     -0.122D-04-0.139D-03-0.462D-03 0.136D-01-0.547D-01-0.281D-01
 Coeff:      0.107D+01
 Gap=     0.625 Goal=   None    Shift=    0.000
 RMSDP=4.15D-07 MaxDP=1.12D-05 DE=-9.15D-08 OVMax= 3.07D-05

 Cycle   8  Pass 1  IDiag  1:
 E= -152.108639564818     Delta-E=       -0.000000003718 Rises=F Damp=F
 DIIS: error= 1.84D-06 at cycle   8 NSaved=   8.
 NSaved= 8 IEnMin= 8 EnMin= -152.108639564818     IErMin= 8 ErrMin= 1.84D-06
 ErrMax= 1.84D-06  0.00D+00 EMaxC= 1.00D-01 BMatC= 3.61D-10 BMatP= 2.19D-09
 IDIUse=1 WtCom= 1.00D+00 WtEn= 0.00D+00
 Coeff-Com:  0.239D-04-0.192D-03-0.775D-03 0.309D-02 0.133D-01-0.133D+00
 Coeff-Com:  0.247D+00 0.870D+00
 Coeff:      0.239D-04-0.192D-03-0.775D-03 0.309D-02 0.133D-01-0.133D+00
 Coeff:      0.247D+00 0.870D+00
 Gap=     0.625 Goal=   None    Shift=    0.000
 RMSDP=1.21D-07 MaxDP=3.15D-06 DE=-3.72D-09 OVMax= 9.24D-06

 Cycle   9  Pass 1  IDiag  1:
 E= -152.108639565275     Delta-E=       -0.000000000457 Rises=F Damp=F
 DIIS: error= 8.43D-07 at cycle   9 NSaved=   9.
 NSaved= 9 IEnMin= 9 EnMin= -152.108639565275     IErMin= 9 ErrMin= 8.43D-07
 ErrMax= 8.43D-07  0.00D+00 EMaxC= 1.00D-01 BMatC= 2.73D-11 BMatP= 3.61D-10
 IDIUse=1 WtCom= 1.00D+00 WtEn= 0.00D+00
 Coeff-Com:  0.742D-06 0.309D-04 0.127D-03-0.244D-02 0.848D-02 0.810D-02
 Coeff-Com: -0.156D+00-0.344D-01 0.118D+01
 Coeff:      0.742D-06 0.309D-04 0.127D-03-0.244D-02 0.848D-02 0.810D-02
 Coeff:     -0.156D+00-0.344D-01 0.118D+01
 Gap=     0.625 Goal=   None    Shift=    0.000
 RMSDP=5.24D-08 MaxDP=1.05D-06 DE=-4.57D-10 OVMax= 3.01D-06

 Cycle  10  Pass 1  IDiag  1:
 E= -152.108639565324     Delta-E=       -0.000000000049 Rises=F Damp=F
 DIIS: error= 9.89D-08 at cycle  10 NSaved=  10.
 NSaved=10 IEnMin=10 EnMin= -152.108639565324     IErMin=10 ErrMin= 9.89D-08
 ErrMax= 9.89D-08  0.00D+00 EMaxC= 1.00D-01 BMatC= 4.21D-13 BMatP= 2.73D-11
 IDIUse=1 WtCom= 1.00D+00 WtEn= 0.00D+00
 Coeff-Com: -0.574D-06-0.444D-05-0.207D-04 0.555D-03-0.205D-02-0.150D-02
 Coeff-Com:  0.422D-01-0.437D-02-0.363D+00 0.133D+01
 Coeff:     -0.574D-06-0.444D-05-0.207D-04 0.555D-03-0.205D-02-0.150D-02
 Coeff:      0.422D-01-0.437D-02-0.363D+00 0.133D+01
 Gap=     0.625 Goal=   None    Shift=    0.000
 RMSDP=7.10D-09 MaxDP=1.94D-07 DE=-4.88D-11 OVMax= 4.10D-07

 SCF Done:  E(RHF) =  -152.108639565     A.U. after   10 cycles
            NFock= 10  Conv=0.71D-08     -V/T= 2.0020
 KE= 1.518027837926D+02 PE=-4.167317086872D+02 EE= 8.516184409113D+01
 Leave Link  502 at Sun Aug 28 00:54:11 2022, MaxMem=   536870912 cpu:               3.8 elap:               1.0
 (Enter /usr/site/hpc/x86_64/glibc-2.17/broadwell/gaussian/g16_a.03/pgi-16.5/g16/l801.exe)
 Windowed orbitals will be sorted by symmetry type.
 ExpMin= 1.03D-01 ExpMax= 1.53D+04 ExpMxC= 5.22D+02 IAcc=3 IRadAn=         5 AccDes= 0.00D+00
 HarFok:  IExCor=  205 AccDes= 0.00D+00 IRadAn=         5 IDoV=-2 UseB2=F ITyADJ=14
 ICtDFT= 12500011 ScaDFX=  1.000000  1.000000  1.000000  1.000000
 Largest valence mixing into a core orbital is  1.12D-04
 Largest core mixing into a valence orbital is  1.76D-05
 Range of M.O.s used for correlation:     3   116
 NBasis=   116 NAE=    10 NBE=    10 NFC=     2 NFV=     0
 NROrb=    114 NOA=     8 NOB=     8 NVA=   106 NVB=   106
 Leave Link  801 at Sun Aug 28 00:54:11 2022, MaxMem=   536870912 cpu:               0.3 elap:               0.1
 (Enter /usr/site/hpc/x86_64/glibc-2.17/broadwell/gaussian/g16_a.03/pgi-16.5/g16/l804.exe)
 Closed-shell transformation, MDV=   536870912 ITran=4 ISComp=2.
 Unit  1 TFree=        834515 TCopy=        406125.
 Semi-Direct transformation.
 ModeAB=           4 MOrb=             8 LenV=     536377188
 LASXX=      2873146 LTotXX=     2873146 LenRXX=     5831278
 LTotAB=     2958132 MaxLAS=     5394480 LenRXY=           0
 NonZer=     8704424 LenScr=    13107200 LnRSAI=     5394480
 LnScr1=     8388608 LExtra=           0 Total=     32721566
 MaxDsk=          -1 SrtSym=           T ITran=            4
 DoSDTr:  NPSUse=  4
 JobTyp=0 Pass  1:  I=   1 to   8.
 (rs|ai) integrals will be sorted in core.
 Complete sort for first half transformation.
 First half transformation complete.
 Complete sort for second half transformation.
 Second half transformation complete.
 Spin components of T(2) and E(2):
     alpha-alpha T2 =       0.1555156450D-01 E2=     -0.6379830170D-01
     alpha-beta  T2 =       0.9183533389D-01 E2=     -0.3982063681D+00
     beta-beta   T2 =       0.1555156450D-01 E2=     -0.6379830170D-01
 ANorm=    0.1059687908D+01
 E2 =    -0.5258029715D+00 EUMP2 =    -0.15263444253681D+03
 Leave Link  804 at Sun Aug 28 00:54:12 2022, MaxMem=   536870912 cpu:               3.0 elap:               0.8
 (Enter /usr/site/hpc/x86_64/glibc-2.17/broadwell/gaussian/g16_a.03/pgi-16.5/g16/l913.exe)
 CIDS:  MDV=   536870912.
 Frozen-core window:  NFC=   2 NFV=   0.
 IFCWin=0 IBDFC=1 NFBD=     0     0 NFCmp=     0     0 NFFFC=     0     0
 Using DD3R+UMP44R for 1st iteration.
 Using DD4RQ for 2nd and later iterations.
 Keep R2 and R3 ints in memory in symmetry-blocked form, NReq=35357534.
 FoFCou: FMM=F IPFlag=           0 FMFlag=           0 FMFlg1=           0
         NFxFlg=           0 DoJE=F BraDBF=F KetDBF=F FulRan=T
         wScrn=  0.000000 ICntrl=       600 IOpCl=  0 I1Cent=           0 NGrid=           0
         NMat0=    1 NMatS0=   6786 NMatT0=    0 NMatD0=    1 NMtDS0=    0 NMtDT0=    0
 Petite list used in FoFCou.
 CIDS: In Core Option IDoMem=           1.
 CCSD(T)
 =======
 Iterations=  50 Convergence= 0.100D-06
 Produce multiple copies of IABC intergrals
 Iteration Nr.   1
 **********************
 DD1Dir will call FoFMem   1 times, MxPair=        72
 NAB=    36 NAA=     0 NBB=     0.
 MP4(R+Q)=  0.75427981D-02
 Maximum subspace dimension=  5
 A-vector RMS=  1.7369921D-03 Max=  6.1755756D-03 conv= 1.00D-05.
 RLE energy=       -0.5257570131
 E3=       -0.75675592D-02        EUMP3=      -0.15264201010D+03
 E4(DQ)=   -0.15487339D-02        UMP4(DQ)=   -0.15264355883D+03
 E4(SDQ)=  -0.45948365D-02        UMP4(SDQ)=  -0.15264660493D+03
 VARIATIONAL ENERGIES WITH THE FIRST-ORDER WAVEFUNCTION:
 DE(Corr)= -0.52575702     E(Corr)=     -152.63439658    
 NORM(A)=   0.10600548D+01
 Iteration Nr.   2
 **********************
 DD1Dir will call FoFMem   1 times, MxPair=        72
 NAB=    36 NAA=     0 NBB=     0.
 A-vector RMS=  2.1268475D-04 Max=  2.3188116D-03 conv= 1.00D-05.
 RLE energy=       -0.5367985342
 DE(Corr)= -0.53563924     E(CORR)=     -152.64427881     Delta=-9.88D-03
 NORM(A)=   0.10637926D+01
 Iteration Nr.   3
 **********************
 DD1Dir will call FoFMem   1 times, MxPair=        72
 NAB=    36 NAA=     0 NBB=     0.
 A-vector RMS=  1.3994488D-04 Max=  8.3551910D-04 conv= 1.00D-05.
 RLE energy=       -0.5372930190
 DE(Corr)= -0.53670914     E(CORR)=     -152.64534871     Delta=-1.07D-03
 NORM(A)=   0.10644280D+01
 Iteration Nr.   4
 **********************
 DD1Dir will call FoFMem   1 times, MxPair=        72
 NAB=    36 NAA=     0 NBB=     0.
 A-vector RMS=  2.5914928D-05 Max=  1.3877190D-04 conv= 1.00D-05.
 RLE energy=       -0.5373760567
 DE(Corr)= -0.53734086     E(CORR)=     -152.64598042     Delta=-6.32D-04
 NORM(A)=   0.10645378D+01
 Iteration Nr.   5
 **********************
 DD1Dir will call FoFMem   1 times, MxPair=        72
 NAB=    36 NAA=     0 NBB=     0.
 A-vector RMS=  1.8483012D-05 Max=  1.5487293D-04 conv= 1.00D-05.
 RLE energy=       -0.5373842686
 DE(Corr)= -0.53737759     E(CORR)=     -152.64601715     Delta=-3.67D-05
 NORM(A)=   0.10645471D+01
 Iteration Nr.   6
 **********************
 DD1Dir will call FoFMem   1 times, MxPair=        72
 NAB=    36 NAA=     0 NBB=     0.
 A-vector RMS=  5.5118880D-06 Max=  4.3388429D-05 conv= 1.00D-05.
 RLE energy=       -0.5373752603
 DE(Corr)= -0.53738074     E(CORR)=     -152.64602030     Delta=-3.15D-06
 NORM(A)=   0.10645471D+01
 Iteration Nr.   7
 **********************
 DD1Dir will call FoFMem   1 times, MxPair=        72
 NAB=    36 NAA=     0 NBB=     0.
 A-vector RMS=  2.6377889D-06 Max=  2.2188555D-05 conv= 1.00D-05.
 RLE energy=       -0.5373818178
 DE(Corr)= -0.53738089     E(CORR)=     -152.64602045     Delta=-1.50D-07
 NORM(A)=   0.10645494D+01
 Iteration Nr.   8
 **********************
 DD1Dir will call FoFMem   1 times, MxPair=        72
 NAB=    36 NAA=     0 NBB=     0.
 A-vector RMS=  5.7799600D-07 Max=  5.0614349D-06 conv= 1.00D-05.
 RLE energy=       -0.5373802968
 DE(Corr)= -0.53738046     E(CORR)=     -152.64602003     Delta= 4.25D-07
 NORM(A)=   0.10645495D+01
 Iteration Nr.   9
 **********************
 DD1Dir will call FoFMem   1 times, MxPair=        72
 NAB=    36 NAA=     0 NBB=     0.
 A-vector RMS=  1.4915239D-07 Max=  1.0392196D-06 conv= 1.00D-05.
 RLE energy=       -0.5373806830
 DE(Corr)= -0.53738072     E(CORR)=     -152.64602029     Delta=-2.58D-07
 NORM(A)=   0.10645498D+01
 Iteration Nr.  10
 **********************
 DD1Dir will call FoFMem   1 times, MxPair=        72
 NAB=    36 NAA=     0 NBB=     0.
 A-vector RMS=  5.4804469D-08 Max=  4.7346546D-07 conv= 1.00D-05.
 RLE energy=       -0.5373807483
 DE(Corr)= -0.53738072     E(CORR)=     -152.64602028     Delta= 7.89D-10
 NORM(A)=   0.10645498D+01
 CI/CC converged in   10 iterations to DelEn= 7.89D-10 Conv= 1.00D-07 ErrA1= 5.48D-08 Conv= 1.00D-05
 Wavefunction amplitudes converged. E(Corr)=     -152.64602028    
 Largest amplitude= 4.80D-02
 IPart=  4 IA=    7   11.05% done.
 IPart=  1 IA=   13   21.46% done.
 IPart=  3 IA=   19   31.21% done.
 IPart=  4 IA=   25   40.32% done.
 IPart=  4 IA=   32   50.13% done.
 IPart=  4 IA=   40   60.27% done.
 IPart=  2 IA=   49   70.30% done.
 IPart=  3 IA=   60   80.58% done.
 IPart=  4 IA=   74   90.51% done.
 Time for triples=       53.11 seconds.
 T4(CCSD)= -0.16013907D-01
 T5(CCSD)=  0.40083839D-03
 CCSD(T)= -0.15266163335D+03
 Discarding MO integrals.
 Leave Link  913 at Sun Aug 28 00:54:31 2022, MaxMem=   536870912 cpu:              75.5 elap:              19.2
 (Enter /usr/site/hpc/x86_64/glibc-2.17/broadwell/gaussian/g16_a.03/pgi-16.5/g16/l601.exe)
 Copying SCF densities to generalized density rwf, IOpCl= 0 IROHF=0.

 **********************************************************************

            Population analysis using the SCF density.

 **********************************************************************

 Orbital symmetries:
       Occupied  (A') (A') (A') (A') (A') (A') (A') (A') (A") (A")
       Virtual   (A') (A') (A') (A') (A') (A') (A') (A') (A') (A')
                 (A") (A') (A") (A') (A') (A') (A") (A") (A") (A")
                 (A') (A') (A') (A') (A') (A') (A') (A') (A") (A")
                 (A") (A") (A') (A') (A') (A') (A') (A') (A') (A')
                 (A') (A') (A") (A") (A') (A') (A") (A") (A') (A')
                 (A") (A") (A') (A') (A') (A') (A") (A") (A") (A")
                 (A') (A') (A') (A') (A") (A") (A') (A') (A') (A')
                 (A") (A") (A') (A') (A') (A') (A') (A') (A') (A')
                 (A") (A") (A') (A') (A") (A") (A") (A") (A') (A')
                 (A") (A") (A') (A') (A') (A') (A") (A") (A') (A')
                 (A') (A') (A') (A') (A') (A')
 The electronic state is 1-A'.
 Alpha  occ. eigenvalues --  -20.56235 -20.54923  -1.33536  -1.32232  -0.70940
 Alpha  occ. eigenvalues --   -0.69636  -0.57037  -0.55709  -0.50656  -0.49358
 Alpha virt. eigenvalues --    0.13159   0.15071   0.19557   0.21289   0.53472
 Alpha virt. eigenvalues --    0.54962   0.56638   0.57818   0.66714   0.68905
 Alpha virt. eigenvalues --    0.78233   0.79314   0.79494   0.80323   0.82757
 Alpha virt. eigenvalues --    0.83908   0.84195   0.85469   0.96573   0.97863
 Alpha virt. eigenvalues --    1.13903   1.15458   1.16795   1.17797   1.51050
 Alpha virt. eigenvalues --    1.51333   1.52397   1.52833   1.99951   2.01255
 Alpha virt. eigenvalues --    2.06028   2.07324   2.08708   2.10058   2.14182
 Alpha virt. eigenvalues --    2.15456   2.24510   2.25753   2.60810   2.62248
 Alpha virt. eigenvalues --    2.92124   2.93807   3.38690   3.39988   3.49250
 Alpha virt. eigenvalues --    3.50548   3.52457   3.53753   3.58833   3.60168
 Alpha virt. eigenvalues --    3.77962   3.79265   3.84744   3.86031   3.87044
 Alpha virt. eigenvalues --    3.88266   3.92904   3.94197   4.02354   4.03657
 Alpha virt. eigenvalues --    4.07501   4.08883   4.14585   4.15944   4.29426
 Alpha virt. eigenvalues --    4.30737   4.39224   4.40503   4.44907   4.46213
 Alpha virt. eigenvalues --    4.65820   4.67116   4.80185   4.81600   5.03561
 Alpha virt. eigenvalues --    5.04873   5.23363   5.24684   5.53367   5.54618
 Alpha virt. eigenvalues --    5.97191   5.98504   6.39672   6.40988   6.85452
 Alpha virt. eigenvalues --    6.86760   6.88943   6.90246   6.93876   6.95195
 Alpha virt. eigenvalues --    6.98381   6.99692   7.07186   7.08467   7.11900
 Alpha virt. eigenvalues --    7.13066   7.17550   7.18861   7.46451   7.47804
 Alpha virt. eigenvalues --    7.69594   7.70900   8.14356   8.15714  12.48383
 Alpha virt. eigenvalues --   12.50273
          Condensed to atoms (all electrons):
               1          2          3          4          5          6
     1  O    7.822709   0.346275   0.346106  -0.000002   0.000001   0.000000
     2  H    0.346275   0.429594  -0.036705   0.000217  -0.000014  -0.000007
     3  H    0.346106  -0.036705   0.436410  -0.000003   0.000000   0.000000
     4  O   -0.000002   0.000217  -0.000003   7.822160   0.346190   0.347017
     5  H    0.000001  -0.000014   0.000000   0.346190   0.432256  -0.036390
     6  H    0.000000  -0.000007   0.000000   0.347017  -0.036390   0.431503
 Mulliken charges:
               1
     1  O   -0.515088
     2  H    0.260640
     3  H    0.254192
     4  O   -0.515579
     5  H    0.257957
     6  H    0.257878
 Sum of Mulliken charges =  -0.00000
 Mulliken charges with hydrogens summed into heavy atoms:
               1
     1  O   -0.000257
     4  O    0.000257
 Electronic spatial extent (au):  <R**2>=            563.6654
 Charge=             -0.0000 electrons
 Dipole moment (field-independent basis, Debye):
    X=             -0.9132    Y=             -3.0488    Z=              0.0000  Tot=              3.1826
 Quadrupole moment (field-independent basis, Debye-Ang):
   XX=             -9.2890   YY=             -6.7779   ZZ=            -14.7156
   XY=             -6.6396   XZ=             -0.0000   YZ=              0.0000
 Traceless Quadrupole moment (field-independent basis, Debye-Ang):
   XX=              0.9718   YY=              3.4829   ZZ=             -4.4548
   XY=             -6.6396   XZ=             -0.0000   YZ=              0.0000
 Octapole moment (field-independent basis, Debye-Ang**2):
  XXX=             -0.1527  YYY=            -60.6364  ZZZ=              0.0000  XYY=            -16.5225
  XXY=             -3.4726  XXZ=              0.0000  XZZ=             -0.1197  YZZ=             -0.4188
  YYZ=              0.0000  XYZ=              0.0000
 Hexadecapole moment (field-independent basis, Debye-Ang**3):
 XXXX=            -10.6986 YYYY=           -429.7974 ZZZZ=            -11.3432 XXXY=             -4.3981
 XXXZ=              0.0000 YYYX=            -46.8109 YYYZ=              0.0000 ZZZX=              0.0000
 ZZZY=             -0.0000 XXYY=            -64.7196 XXZZ=             -4.4334 YYZZ=           -112.5313
 XXYZ=              0.0000 YYXZ=             -0.0000 ZZXY=              1.8499
 N-N= 2.765844123816D+01 E-N=-4.167317074808D+02  KE= 1.518027837926D+02
 Symmetry A'   KE= 1.427676162356D+02
 Symmetry A"   KE= 9.035167556956D+00
 Leave Link  601 at Sun Aug 28 00:54:31 2022, MaxMem=   536870912 cpu:               0.2 elap:               0.0
 (Enter /usr/site/hpc/x86_64/glibc-2.17/broadwell/gaussian/g16_a.03/pgi-16.5/g16/l9999.exe)
 1\1\GINC-N002\SP\RCCSD(T)-FC\CC-pVTZ\H4O2\ROOT\28-Aug-2022\0\\#p CCSD(
 T)/cc-pVTZ\\H2O_H2O_4220\\0,1\O,0,0.,-0.009833,0.\H,0,-0.799571,-0.580
 965,0.\H,0,0.799571,-0.580965,0.\O,0,-4.396738,-3.13634,0.\H,0,-5.1553
 53,-2.511833,0.\H,0,-4.741465,-4.056487,0.\\Version=ES64L-G16RevA.03\S
 tate=1-A'\HF=-152.1086396\MP2=-152.6344425\MP3=-152.6420101\MP4D=-152.
 6511016\MP4DQ=-152.6435588\MP4SDQ=-152.6466049\CCSD=-152.6460203\CCSD(
 T)=-152.6616334\RMSD=7.104e-09\PG=CS [SG(H4O2)]\\@


 EVANS BOLDLY PUT 50 ATM. OF ETHYLENE IN A CELL WITH 25 ATM. OF OXYGEN.
 THE APPARATUS SUBSEQUENTLY BLEW UP, BUT LUCKILY NOT BEFORE HE
 OBTAINED THE SPECTRA SHOWN IN FIGURE 8.
 A.J.MERER AND R.S.MULLIKEN, CHEM.REV. 69, 645 (1969)
 Job cpu time:       0 days  0 hours  1 minutes 25.6 seconds.
 Elapsed time:       0 days  0 hours  0 minutes 21.8 seconds.
 File lengths (MBytes):  RWF=    320 Int=      0 D2E=      0 Chk=      8 Scr=      8
 Normal termination of Gaussian 16 at Sun Aug 28 00:54:31 2022.
