 Entering Gaussian System, Link 0=g16
 Input=H2O_H2O_2657.com
 Output=H2O_H2O_2657.log
 Initial command:
 /usr/site/hpc/x86_64/glibc-2.17/broadwell/gaussian/g16_a.03/pgi-16.5/g16/l1.exe "/gpfs/gpfs1/scratch/c7441284/ForceFieldModel/FittingData2/Gau-322281.inp" -scrdir="/gpfs/gpfs1/scratch/c7441284/ForceFieldModel/FittingData2/"
 Entering Link 1 = /usr/site/hpc/x86_64/glibc-2.17/broadwell/gaussian/g16_a.03/pgi-16.5/g16/l1.exe PID=    322282.
  
 Copyright (c) 1988,1990,1992,1993,1995,1998,2003,2009,2016,
            Gaussian, Inc.  All Rights Reserved.
  
 This is part of the Gaussian(R) 16 program.  It is based on
 the Gaussian(R) 09 system (copyright 2009, Gaussian, Inc.),
 the Gaussian(R) 03 system (copyright 2003, Gaussian, Inc.),
 the Gaussian(R) 98 system (copyright 1998, Gaussian, Inc.),
 the Gaussian(R) 94 system (copyright 1995, Gaussian, Inc.),
 the Gaussian 92(TM) system (copyright 1992, Gaussian, Inc.),
 the Gaussian 90(TM) system (copyright 1990, Gaussian, Inc.),
 the Gaussian 88(TM) system (copyright 1988, Gaussian, Inc.),
 the Gaussian 86(TM) system (copyright 1986, Carnegie Mellon
 University), and the Gaussian 82(TM) system (copyright 1983,
 Carnegie Mellon University). Gaussian is a federally registered
 trademark of Gaussian, Inc.
  
 This software contains proprietary and confidential information,
 including trade secrets, belonging to Gaussian, Inc.
  
 This software is provided under written license and may be
 used, copied, transmitted, or stored only in accord with that
 written license.
  
 The following legend is applicable only to US Government
 contracts under FAR:
  
                    RESTRICTED RIGHTS LEGEND
  
 Use, reproduction and disclosure by the US Government is
 subject to restrictions as set forth in subparagraphs (a)
 and (c) of the Commercial Computer Software - Restricted
 Rights clause in FAR 52.227-19.
  
 Gaussian, Inc.
 340 Quinnipiac St., Bldg. 40, Wallingford CT 06492
  
  
 ---------------------------------------------------------------
 Warning -- This program may not be used in any manner that
 competes with the business of Gaussian, Inc. or will provide
 assistance to any competitor of Gaussian, Inc.  The licensee
 of this program is prohibited from giving any competitor of
 Gaussian, Inc. access to this program.  By using this program,
 the user acknowledges that Gaussian, Inc. is engaged in the
 business of creating and licensing software in the field of
 computational chemistry and represents and warrants to the
 licensee that it is not a competitor of Gaussian, Inc. and that
 it will not use this program in any manner prohibited above.
 ---------------------------------------------------------------
  

 Cite this work as:
 Gaussian 16, Revision A.03,
 M. J. Frisch, G. W. Trucks, H. B. Schlegel, G. E. Scuseria, 
 M. A. Robb, J. R. Cheeseman, G. Scalmani, V. Barone, 
 G. A. Petersson, H. Nakatsuji, X. Li, M. Caricato, A. V. Marenich, 
 J. Bloino, B. G. Janesko, R. Gomperts, B. Mennucci, H. P. Hratchian, 
 J. V. Ortiz, A. F. Izmaylov, J. L. Sonnenberg, D. Williams-Young, 
 F. Ding, F. Lipparini, F. Egidi, J. Goings, B. Peng, A. Petrone, 
 T. Henderson, D. Ranasinghe, V. G. Zakrzewski, J. Gao, N. Rega, 
 G. Zheng, W. Liang, M. Hada, M. Ehara, K. Toyota, R. Fukuda, 
 J. Hasegawa, M. Ishida, T. Nakajima, Y. Honda, O. Kitao, H. Nakai, 
 T. Vreven, K. Throssell, J. A. Montgomery, Jr., J. E. Peralta, 
 F. Ogliaro, M. J. Bearpark, J. J. Heyd, E. N. Brothers, K. N. Kudin, 
 V. N. Staroverov, T. A. Keith, R. Kobayashi, J. Normand, 
 K. Raghavachari, A. P. Rendell, J. C. Burant, S. S. Iyengar, 
 J. Tomasi, M. Cossi, J. M. Millam, M. Klene, C. Adamo, R. Cammi, 
 J. W. Ochterski, R. L. Martin, K. Morokuma, O. Farkas, 
 J. B. Foresman, and D. J. Fox, Gaussian, Inc., Wallingford CT, 2016.
 
 ******************************************
 Gaussian 16:  ES64L-G16RevA.03 25-Dec-2016
                26-Aug-2022 
 ******************************************
 %NProcShared=4
 Will use up to    4 processors via shared memory.
 %Mem=4GB
 %Chk=H2O_H2O_2657.chk
 ------------------
 #p CCSD(T)/cc-pVTZ
 ------------------
 1/38=1,172=1/1;
 2/12=2,17=6,18=5,40=1/2;
 3/5=16,6=1,11=9,25=1,30=1/1,2,3;
 4//1;
 5/5=2,38=5/2;
 8/6=4,9=120000,10=1/1,4;
 9/5=7,14=2/13;
 6/7=2,8=2,9=2,10=2/1;
 99/5=1,9=1/99;
 Leave Link    1 at Fri Aug 26 16:20:51 2022, MaxMem=   536870912 cpu:               0.3 elap:               0.1
 (Enter /usr/site/hpc/x86_64/glibc-2.17/broadwell/gaussian/g16_a.03/pgi-16.5/g16/l101.exe)
 ------------
 H2O_H2O_2657
 ------------
 Symbolic Z-matrix:
 Charge =  0 Multiplicity = 1
 O                     0.       -0.00983   0. 
 H                    -0.79957  -0.58097   0. 
 H                     0.79957  -0.58097   0. 
 O                    -3.3854   -2.42389   0. 
 H                    -4.35512  -2.58249   0. 
 H                    -2.92089  -3.28977   0. 
 
 ITRead=  0  0  0  0  0  0
 MicOpt= -1 -1 -1 -1 -1 -1
 NAtoms=      6 NQM=        6 NQMF=       0 NMMI=      0 NMMIF=      0
                NMic=       0 NMicF=      0.
                    Isotopes and Nuclear Properties:
 (Nuclear quadrupole moments (NQMom) in fm**2, nuclear magnetic moments (NMagM)
  in nuclear magnetons)

  Atom         1           2           3           4           5           6
 IAtWgt=          16           1           1          16           1           1
 AtmWgt=  15.9949146   1.0078250   1.0078250  15.9949146   1.0078250   1.0078250
 NucSpn=           0           1           1           0           1           1
 AtZEff=  -0.0000000  -0.0000000  -0.0000000  -0.0000000  -0.0000000  -0.0000000
 NQMom=    0.0000000   0.0000000   0.0000000   0.0000000   0.0000000   0.0000000
 NMagM=    0.0000000   2.7928460   2.7928460   0.0000000   2.7928460   2.7928460
 AtZNuc=   8.0000000   1.0000000   1.0000000   8.0000000   1.0000000   1.0000000
 Leave Link  101 at Fri Aug 26 16:20:51 2022, MaxMem=   536870912 cpu:               0.3 elap:               0.1
 (Enter /usr/site/hpc/x86_64/glibc-2.17/broadwell/gaussian/g16_a.03/pgi-16.5/g16/l202.exe)
                          Input orientation:                          
 ---------------------------------------------------------------------
 Center     Atomic      Atomic             Coordinates (Angstroms)
 Number     Number       Type             X           Y           Z
 ---------------------------------------------------------------------
      1          8           0        0.000000   -0.009833    0.000000
      2          1           0       -0.799571   -0.580965    0.000000
      3          1           0        0.799571   -0.580965    0.000000
      4          8           0       -3.385397   -2.423894    0.000000
      5          1           0       -4.355116   -2.582485    0.000000
      6          1           0       -2.920889   -3.289768    0.000000
 ---------------------------------------------------------------------
                    Distance matrix (angstroms):
                    1          2          3          4          5
     1  O    0.000000
     2  H    0.982601   0.000000
     3  H    0.982601   1.599142   0.000000
     4  O    4.157957   3.175356   4.572783   0.000000
     5  H    5.058218   4.080194   5.529637   0.982602   0.000000
     6  H    4.391989   3.440582   4.602112   0.982601   1.599142
                    6
     6  H    0.000000
 Stoichiometry    H4O2
 Framework group  CS[SG(H4O2)]
 Deg. of freedom     9
 Full point group                 CS      NOp   2
 Largest Abelian subgroup         CS      NOp   2
 Largest concise Abelian subgroup C1      NOp   1
                         Standard orientation:                         
 ---------------------------------------------------------------------
 Center     Atomic      Atomic             Coordinates (Angstroms)
 Number     Number       Type             X           Y           Z
 ---------------------------------------------------------------------
      1          8           0        0.073541    2.162444   -0.000000
      2          1           0        0.072749    1.179843   -0.000000
      3          1           0       -0.855694    2.481860   -0.000000
      4          8           0        0.073541   -1.995512    0.000000
      5          1           0        0.507424   -2.877131    0.000000
      6          1           0       -0.901139   -2.120028    0.000000
 ---------------------------------------------------------------------
 Rotational constants (GHZ):         260.0926584           3.1797748           3.1413698
 Leave Link  202 at Fri Aug 26 16:20:51 2022, MaxMem=   536870912 cpu:               0.1 elap:               0.0
 (Enter /usr/site/hpc/x86_64/glibc-2.17/broadwell/gaussian/g16_a.03/pgi-16.5/g16/l301.exe)
 Standard basis: CC-pVTZ (5D, 7F)
 Ernie: Thresh=  0.10000D-02 Tol=  0.10000D-05 Strict=F.
 Ernie:  6 primitive shells out of 84 were deleted.
 There are    92 symmetry adapted cartesian basis functions of A'  symmetry.
 There are    38 symmetry adapted cartesian basis functions of A"  symmetry.
 There are    80 symmetry adapted basis functions of A'  symmetry.
 There are    36 symmetry adapted basis functions of A"  symmetry.
   116 basis functions,   172 primitive gaussians,   130 cartesian basis functions
    10 alpha electrons       10 beta electrons
       nuclear repulsion energy        30.5945365589 Hartrees.
 IExCor=    0 DFT=F Ex=HF Corr=None ExCW=0 ScaHFX=  1.000000
 ScaDFX=  1.000000  1.000000  1.000000  1.000000 ScalE2=  1.000000  1.000000
 IRadAn=      5 IRanWt=     -1 IRanGd=            0 ICorTp=0 IEmpDi=  4
 NAtoms=    6 NActive=    6 NUniq=    6 SFac= 1.00D+00 NAtFMM=   60 NAOKFM=F Big=F
 Integral buffers will be    131072 words long.
 Raffenetti 1 integral format.
 Two-electron integral symmetry is turned on.
 Leave Link  301 at Fri Aug 26 16:20:51 2022, MaxMem=   536870912 cpu:               0.2 elap:               0.1
 (Enter /usr/site/hpc/x86_64/glibc-2.17/broadwell/gaussian/g16_a.03/pgi-16.5/g16/l302.exe)
 NPDir=0 NMtPBC=     1 NCelOv=     1 NCel=       1 NClECP=     1 NCelD=      1
         NCelK=      1 NCelE2=     1 NClLst=     1 CellRange=     0.0.
 One-electron integrals computed using PRISM.
 One-electron integral symmetry used in STVInt
 NBasis=   116 RedAO= T EigKep=  2.52D-03  NBF=    80    36
 NBsUse=   116 1.00D-06 EigRej= -1.00D+00 NBFU=    80    36
 Leave Link  302 at Fri Aug 26 16:20:51 2022, MaxMem=   536870912 cpu:               0.4 elap:               0.1
 (Enter /usr/site/hpc/x86_64/glibc-2.17/broadwell/gaussian/g16_a.03/pgi-16.5/g16/l303.exe)
 DipDrv:  MaxL=1.
 Leave Link  303 at Fri Aug 26 16:20:51 2022, MaxMem=   536870912 cpu:               0.1 elap:               0.0
 (Enter /usr/site/hpc/x86_64/glibc-2.17/broadwell/gaussian/g16_a.03/pgi-16.5/g16/l401.exe)
 ExpMin= 1.03D-01 ExpMax= 1.53D+04 ExpMxC= 5.22D+02 IAcc=3 IRadAn=         5 AccDes= 0.00D+00
 Harris functional with IExCor=  205 and IRadAn=       5 diagonalized for initial guess.
 HarFok:  IExCor=  205 AccDes= 0.00D+00 IRadAn=         5 IDoV= 1 UseB2=F ITyADJ=14
 ICtDFT=  3500011 ScaDFX=  1.000000  1.000000  1.000000  1.000000
 FoFCou: FMM=F IPFlag=           0 FMFlag=      100000 FMFlg1=           0
         NFxFlg=           0 DoJE=T BraDBF=F KetDBF=T FulRan=T
         wScrn=  0.000000 ICntrl=       500 IOpCl=  0 I1Cent=   200000004 NGrid=           0
         NMat0=    1 NMatS0=      1 NMatT0=    0 NMatD0=    1 NMtDS0=    0 NMtDT0=    0
 Petite list used in FoFCou.
 Harris En= -152.299037825533    
 JPrj=0 DoOrth=F DoCkMO=F.
 Initial guess orbital symmetries:
       Occupied  (A') (A') (A') (A') (A') (A') (A') (A') (A") (A")
       Virtual   (A') (A') (A') (A') (A') (A') (A') (A') (A') (A')
                 (A") (A") (A') (A') (A') (A") (A") (A') (A") (A")
                 (A') (A') (A') (A') (A') (A') (A') (A') (A") (A")
                 (A") (A") (A') (A') (A') (A') (A') (A') (A') (A')
                 (A') (A') (A") (A") (A') (A') (A") (A") (A") (A")
                 (A') (A') (A') (A') (A') (A') (A") (A") (A') (A')
                 (A') (A") (A') (A") (A") (A") (A') (A') (A') (A')
                 (A") (A") (A') (A') (A') (A') (A') (A') (A') (A')
                 (A") (A") (A') (A') (A") (A") (A") (A") (A') (A')
                 (A") (A") (A') (A') (A') (A') (A") (A") (A') (A')
                 (A') (A') (A') (A') (A') (A')
 The electronic state of the initial guess is 1-A'.
 Leave Link  401 at Fri Aug 26 16:20:51 2022, MaxMem=   536870912 cpu:               0.8 elap:               0.2
 (Enter /usr/site/hpc/x86_64/glibc-2.17/broadwell/gaussian/g16_a.03/pgi-16.5/g16/l502.exe)
 Keep R1 ints in memory in symmetry-blocked form, NReq=34823457.
 FoFCou: FMM=F IPFlag=           0 FMFlag=           0 FMFlg1=           0
         NFxFlg=           0 DoJE=F BraDBF=F KetDBF=F FulRan=T
         wScrn=  0.000000 ICntrl=       600 IOpCl=  0 I1Cent=           0 NGrid=           0
         NMat0=    1 NMatS0=   6786 NMatT0=    0 NMatD0=    1 NMtDS0=    0 NMtDT0=    0
 Petite list used in FoFCou.
 Closed shell SCF:
 Using DIIS extrapolation, IDIIS=  1040.
 NGot=   536870912 LenX=   525040673 LenY=   525023332
 Requested convergence on RMS density matrix=1.00D-08 within 128 cycles.
 Requested convergence on MAX density matrix=1.00D-06.
 Requested convergence on             energy=1.00D-06.
 No special actions if energy rises.

 Cycle   1  Pass 1  IDiag  1:
 E= -151.931789825573    
 DIIS: error= 6.59D-02 at cycle   1 NSaved=   1.
 NSaved= 1 IEnMin= 1 EnMin= -151.931789825573     IErMin= 1 ErrMin= 6.59D-02
 ErrMax= 6.59D-02  0.00D+00 EMaxC= 1.00D-01 BMatC= 3.98D-01 BMatP= 3.98D-01
 IDIUse=3 WtCom= 3.41D-01 WtEn= 6.59D-01
 Coeff-Com:  0.100D+01
 Coeff-En:   0.100D+01
 Coeff:      0.100D+01
 Gap=     0.501 Goal=   None    Shift=    0.000
 GapD=    0.501 DampG=2.000 DampE=0.500 DampFc=1.0000 IDamp=-1.
 RMSDP=2.52D-03 MaxDP=6.72D-02              OVMax= 1.25D-01

 Cycle   2  Pass 1  IDiag  1:
 E= -152.042252352649     Delta-E=       -0.110462527076 Rises=F Damp=F
 DIIS: error= 4.13D-02 at cycle   2 NSaved=   2.
 NSaved= 2 IEnMin= 2 EnMin= -152.042252352649     IErMin= 2 ErrMin= 4.13D-02
 ErrMax= 4.13D-02  0.00D+00 EMaxC= 1.00D-01 BMatC= 1.11D-01 BMatP= 3.98D-01
 IDIUse=3 WtCom= 5.87D-01 WtEn= 4.13D-01
 Coeff-Com:  0.318D+00 0.682D+00
 Coeff-En:   0.165D+00 0.835D+00
 Coeff:      0.255D+00 0.745D+00
 Gap=     0.635 Goal=   None    Shift=    0.000
 RMSDP=1.34D-03 MaxDP=3.96D-02 DE=-1.10D-01 OVMax= 5.69D-02

 Cycle   3  Pass 1  IDiag  1:
 E= -152.106006181639     Delta-E=       -0.063753828990 Rises=F Damp=F
 DIIS: error= 8.99D-03 at cycle   3 NSaved=   3.
 NSaved= 3 IEnMin= 3 EnMin= -152.106006181639     IErMin= 3 ErrMin= 8.99D-03
 ErrMax= 8.99D-03  0.00D+00 EMaxC= 1.00D-01 BMatC= 5.95D-03 BMatP= 1.11D-01
 IDIUse=3 WtCom= 9.10D-01 WtEn= 8.99D-02
 Coeff-Com: -0.303D-01 0.156D+00 0.874D+00
 Coeff-En:   0.000D+00 0.000D+00 0.100D+01
 Coeff:     -0.276D-01 0.142D+00 0.885D+00
 Gap=     0.607 Goal=   None    Shift=    0.000
 RMSDP=2.45D-04 MaxDP=5.75D-03 DE=-6.38D-02 OVMax= 1.33D-02

 Cycle   4  Pass 1  IDiag  1:
 E= -152.109701615774     Delta-E=       -0.003695434135 Rises=F Damp=F
 DIIS: error= 8.41D-04 at cycle   4 NSaved=   4.
 NSaved= 4 IEnMin= 4 EnMin= -152.109701615774     IErMin= 4 ErrMin= 8.41D-04
 ErrMax= 8.41D-04  0.00D+00 EMaxC= 1.00D-01 BMatC= 3.64D-05 BMatP= 5.95D-03
 IDIUse=3 WtCom= 9.92D-01 WtEn= 8.41D-03
 Coeff-Com:  0.674D-02-0.610D-01-0.237D+00 0.129D+01
 Coeff-En:   0.000D+00 0.000D+00 0.000D+00 0.100D+01
 Coeff:      0.668D-02-0.604D-01-0.235D+00 0.129D+01
 Gap=     0.609 Goal=   None    Shift=    0.000
 RMSDP=5.21D-05 MaxDP=1.03D-03 DE=-3.70D-03 OVMax= 2.26D-03

 Cycle   5  Pass 1  IDiag  1:
 E= -152.109750672494     Delta-E=       -0.000049056720 Rises=F Damp=F
 DIIS: error= 1.91D-04 at cycle   5 NSaved=   5.
 NSaved= 5 IEnMin= 5 EnMin= -152.109750672494     IErMin= 5 ErrMin= 1.91D-04
 ErrMax= 1.91D-04  0.00D+00 EMaxC= 1.00D-01 BMatC= 1.37D-06 BMatP= 3.64D-05
 IDIUse=3 WtCom= 9.98D-01 WtEn= 1.91D-03
 Coeff-Com:  0.661D-03-0.638D-03-0.736D-02-0.200D+00 0.121D+01
 Coeff-En:   0.000D+00 0.000D+00 0.000D+00 0.000D+00 0.100D+01
 Coeff:      0.660D-03-0.636D-03-0.735D-02-0.200D+00 0.121D+01
 Gap=     0.610 Goal=   None    Shift=    0.000
 RMSDP=1.45D-05 MaxDP=3.17D-04 DE=-4.91D-05 OVMax= 7.02D-04

 Cycle   6  Pass 1  IDiag  1:
 E= -152.109753474099     Delta-E=       -0.000002801605 Rises=F Damp=F
 DIIS: error= 2.98D-05 at cycle   6 NSaved=   6.
 NSaved= 6 IEnMin= 6 EnMin= -152.109753474099     IErMin= 6 ErrMin= 2.98D-05
 ErrMax= 2.98D-05  0.00D+00 EMaxC= 1.00D-01 BMatC= 6.44D-08 BMatP= 1.37D-06
 IDIUse=1 WtCom= 1.00D+00 WtEn= 0.00D+00
 Coeff-Com: -0.132D-03 0.190D-02 0.676D-02-0.694D-01 0.119D+00 0.942D+00
 Coeff:     -0.132D-03 0.190D-02 0.676D-02-0.694D-01 0.119D+00 0.942D+00
 Gap=     0.610 Goal=   None    Shift=    0.000
 RMSDP=2.62D-06 MaxDP=7.25D-05 DE=-2.80D-06 OVMax= 1.47D-04

 Cycle   7  Pass 1  IDiag  1:
 E= -152.109753580371     Delta-E=       -0.000000106272 Rises=F Damp=F
 DIIS: error= 1.02D-05 at cycle   7 NSaved=   7.
 NSaved= 7 IEnMin= 7 EnMin= -152.109753580371     IErMin= 7 ErrMin= 1.02D-05
 ErrMax= 1.02D-05  0.00D+00 EMaxC= 1.00D-01 BMatC= 1.04D-08 BMatP= 6.44D-08
 IDIUse=1 WtCom= 1.00D+00 WtEn= 0.00D+00
 Coeff-Com: -0.106D-03 0.403D-03 0.190D-02 0.143D-01-0.145D+00 0.200D+00
 Coeff-Com:  0.929D+00
 Coeff:     -0.106D-03 0.403D-03 0.190D-02 0.143D-01-0.145D+00 0.200D+00
 Coeff:      0.929D+00
 Gap=     0.610 Goal=   None    Shift=    0.000
 RMSDP=9.76D-07 MaxDP=2.75D-05 DE=-1.06D-07 OVMax= 5.97D-05

 Cycle   8  Pass 1  IDiag  1:
 E= -152.109753595088     Delta-E=       -0.000000014717 Rises=F Damp=F
 DIIS: error= 2.43D-06 at cycle   8 NSaved=   8.
 NSaved= 8 IEnMin= 8 EnMin= -152.109753595088     IErMin= 8 ErrMin= 2.43D-06
 ErrMax= 2.43D-06  0.00D+00 EMaxC= 1.00D-01 BMatC= 4.40D-10 BMatP= 1.04D-08
 IDIUse=1 WtCom= 1.00D+00 WtEn= 0.00D+00
 Coeff-Com:  0.256D-04-0.219D-03-0.881D-03 0.419D-02 0.112D-01-0.932D-01
 Coeff-Com: -0.127D+00 0.121D+01
 Coeff:      0.256D-04-0.219D-03-0.881D-03 0.419D-02 0.112D-01-0.932D-01
 Coeff:     -0.127D+00 0.121D+01
 Gap=     0.610 Goal=   None    Shift=    0.000
 RMSDP=2.10D-07 MaxDP=3.80D-06 DE=-1.47D-08 OVMax= 1.46D-05

 Cycle   9  Pass 1  IDiag  1:
 E= -152.109753596030     Delta-E=       -0.000000000942 Rises=F Damp=F
 DIIS: error= 8.71D-07 at cycle   9 NSaved=   9.
 NSaved= 9 IEnMin= 9 EnMin= -152.109753596030     IErMin= 9 ErrMin= 8.71D-07
 ErrMax= 8.71D-07  0.00D+00 EMaxC= 1.00D-01 BMatC= 2.52D-11 BMatP= 4.40D-10
 IDIUse=1 WtCom= 1.00D+00 WtEn= 0.00D+00
 Coeff-Com:  0.107D-05 0.288D-04 0.118D-03-0.243D-02 0.852D-02 0.909D-02
 Coeff-Com: -0.353D-01-0.276D+00 0.130D+01
 Coeff:      0.107D-05 0.288D-04 0.118D-03-0.243D-02 0.852D-02 0.909D-02
 Coeff:     -0.353D-01-0.276D+00 0.130D+01
 Gap=     0.610 Goal=   None    Shift=    0.000
 RMSDP=5.80D-08 MaxDP=1.02D-06 DE=-9.42D-10 OVMax= 3.03D-06

 Cycle  10  Pass 1  IDiag  1:
 E= -152.109753596084     Delta-E=       -0.000000000055 Rises=F Damp=F
 DIIS: error= 9.89D-08 at cycle  10 NSaved=  10.
 NSaved=10 IEnMin=10 EnMin= -152.109753596084     IErMin=10 ErrMin= 9.89D-08
 ErrMax= 9.89D-08  0.00D+00 EMaxC= 1.00D-01 BMatC= 4.21D-13 BMatP= 2.52D-11
 IDIUse=1 WtCom= 1.00D+00 WtEn= 0.00D+00
 Coeff-Com: -0.627D-06-0.219D-05-0.112D-04 0.422D-03-0.165D-02-0.122D-02
 Coeff-Com:  0.814D-02 0.532D-01-0.337D+00 0.128D+01
 Coeff:     -0.627D-06-0.219D-05-0.112D-04 0.422D-03-0.165D-02-0.122D-02
 Coeff:      0.814D-02 0.532D-01-0.337D+00 0.128D+01
 Gap=     0.610 Goal=   None    Shift=    0.000
 RMSDP=6.90D-09 MaxDP=1.76D-07 DE=-5.45D-11 OVMax= 3.98D-07

 SCF Done:  E(RHF) =  -152.109753596     A.U. after   10 cycles
            NFock= 10  Conv=0.69D-08     -V/T= 2.0021
 KE= 1.517983459530D+02 PE=-4.225854203308D+02 EE= 8.808278422279D+01
 Leave Link  502 at Fri Aug 26 16:20:52 2022, MaxMem=   536870912 cpu:               3.9 elap:               1.1
 (Enter /usr/site/hpc/x86_64/glibc-2.17/broadwell/gaussian/g16_a.03/pgi-16.5/g16/l801.exe)
 Windowed orbitals will be sorted by symmetry type.
 ExpMin= 1.03D-01 ExpMax= 1.53D+04 ExpMxC= 5.22D+02 IAcc=3 IRadAn=         5 AccDes= 0.00D+00
 HarFok:  IExCor=  205 AccDes= 0.00D+00 IRadAn=         5 IDoV=-2 UseB2=F ITyADJ=14
 ICtDFT= 12500011 ScaDFX=  1.000000  1.000000  1.000000  1.000000
 Largest valence mixing into a core orbital is  1.12D-04
 Largest core mixing into a valence orbital is  1.77D-05
 Range of M.O.s used for correlation:     3   116
 NBasis=   116 NAE=    10 NBE=    10 NFC=     2 NFV=     0
 NROrb=    114 NOA=     8 NOB=     8 NVA=   106 NVB=   106
 Leave Link  801 at Fri Aug 26 16:20:52 2022, MaxMem=   536870912 cpu:               0.3 elap:               0.1
 (Enter /usr/site/hpc/x86_64/glibc-2.17/broadwell/gaussian/g16_a.03/pgi-16.5/g16/l804.exe)
 Closed-shell transformation, MDV=   536870912 ITran=4 ISComp=2.
 Unit  1 TFree=        834515 TCopy=        406125.
 Semi-Direct transformation.
 ModeAB=           4 MOrb=             8 LenV=     536369979
 LASXX=      2873146 LTotXX=     2873146 LenRXX=     5831278
 LTotAB=     2958132 MaxLAS=     6662160 LenRXY=           0
 NonZer=     8704424 LenScr=    13107200 LnRSAI=     6662160
 LnScr1=    10485760 LExtra=           0 Total=     36086398
 MaxDsk=          -1 SrtSym=           T ITran=            4
 DoSDTr:  NPSUse=  4
 JobTyp=0 Pass  1:  I=   1 to   8.
 (rs|ai) integrals will be sorted in core.
 Complete sort for first half transformation.
 First half transformation complete.
 Complete sort for second half transformation.
 Second half transformation complete.
 Spin components of T(2) and E(2):
     alpha-alpha T2 =       0.1558797135D-01 E2=     -0.6387647495D-01
     alpha-beta  T2 =       0.9191673864D-01 E2=     -0.3983555908D+00
     beta-beta   T2 =       0.1558797135D-01 E2=     -0.6387647495D-01
 ANorm=    0.1059760672D+01
 E2 =    -0.5261085407D+00 EUMP2 =    -0.15263586213681D+03
 Leave Link  804 at Fri Aug 26 16:20:53 2022, MaxMem=   536870912 cpu:               3.8 elap:               1.0
 (Enter /usr/site/hpc/x86_64/glibc-2.17/broadwell/gaussian/g16_a.03/pgi-16.5/g16/l913.exe)
 CIDS:  MDV=   536870912.
 Frozen-core window:  NFC=   2 NFV=   0.
 IFCWin=0 IBDFC=1 NFBD=     0     0 NFCmp=     0     0 NFFFC=     0     0
 Using DD3R+UMP44R for 1st iteration.
 Using DD4RQ for 2nd and later iterations.
 Keep R2 and R3 ints in memory in symmetry-blocked form, NReq=35357534.
 FoFCou: FMM=F IPFlag=           0 FMFlag=           0 FMFlg1=           0
         NFxFlg=           0 DoJE=F BraDBF=F KetDBF=F FulRan=T
         wScrn=  0.000000 ICntrl=       600 IOpCl=  0 I1Cent=           0 NGrid=           0
         NMat0=    1 NMatS0=   6786 NMatT0=    0 NMatD0=    1 NMtDS0=    0 NMtDT0=    0
 Petite list used in FoFCou.
 CIDS: In Core Option IDoMem=           1.
 CCSD(T)
 =======
 Iterations=  50 Convergence= 0.100D-06
 Produce multiple copies of IABC intergrals
 Iteration Nr.   1
 **********************
 DD1Dir will call FoFMem   1 times, MxPair=        72
 NAB=    36 NAA=     0 NBB=     0.
 MP4(R+Q)=  0.75546946D-02
 Maximum subspace dimension=  5
 A-vector RMS=  1.7566995D-03 Max=  6.1314497D-03 conv= 1.00D-05.
 RLE energy=       -0.5259460788
 E3=       -0.74626573D-02        EUMP3=      -0.15264332479D+03
 E4(DQ)=   -0.15441662D-02        UMP4(DQ)=   -0.15264486896D+03
 E4(SDQ)=  -0.46116843D-02        UMP4(SDQ)=  -0.15264793648D+03
 VARIATIONAL ENERGIES WITH THE FIRST-ORDER WAVEFUNCTION:
 DE(Corr)= -0.52594604     E(Corr)=     -152.63569963    
 NORM(A)=   0.10600946D+01
 Iteration Nr.   2
 **********************
 DD1Dir will call FoFMem   1 times, MxPair=        72
 NAB=    36 NAA=     0 NBB=     0.
 A-vector RMS=  2.1286400D-04 Max=  2.2701312D-03 conv= 1.00D-05.
 RLE energy=       -0.5370005939
 DE(Corr)= -0.53585180     E(CORR)=     -152.64560539     Delta=-9.91D-03
 NORM(A)=   0.10638395D+01
 Iteration Nr.   3
 **********************
 DD1Dir will call FoFMem   1 times, MxPair=        72
 NAB=    36 NAA=     0 NBB=     0.
 A-vector RMS=  1.4477874D-04 Max=  6.9885597D-04 conv= 1.00D-05.
 RLE energy=       -0.5374970273
 DE(Corr)= -0.53691064     E(CORR)=     -152.64666424     Delta=-1.06D-03
 NORM(A)=   0.10644751D+01
 Iteration Nr.   4
 **********************
 DD1Dir will call FoFMem   1 times, MxPair=        72
 NAB=    36 NAA=     0 NBB=     0.
 A-vector RMS=  2.8381560D-05 Max=  1.3627799D-04 conv= 1.00D-05.
 RLE energy=       -0.5375785321
 DE(Corr)= -0.53754392     E(CORR)=     -152.64729751     Delta=-6.33D-04
 NORM(A)=   0.10645853D+01
 Iteration Nr.   5
 **********************
 DD1Dir will call FoFMem   1 times, MxPair=        72
 NAB=    36 NAA=     0 NBB=     0.
 A-vector RMS=  1.9021502D-05 Max=  1.4308101D-04 conv= 1.00D-05.
 RLE energy=       -0.5375883213
 DE(Corr)= -0.53758131     E(CORR)=     -152.64733490     Delta=-3.74D-05
 NORM(A)=   0.10645956D+01
 Iteration Nr.   6
 **********************
 DD1Dir will call FoFMem   1 times, MxPair=        72
 NAB=    36 NAA=     0 NBB=     0.
 A-vector RMS=  5.8926629D-06 Max=  4.5245847D-05 conv= 1.00D-05.
 RLE energy=       -0.5375797238
 DE(Corr)= -0.53758466     E(CORR)=     -152.64733826     Delta=-3.35D-06
 NORM(A)=   0.10645954D+01
 Iteration Nr.   7
 **********************
 DD1Dir will call FoFMem   1 times, MxPair=        72
 NAB=    36 NAA=     0 NBB=     0.
 A-vector RMS=  2.7237912D-06 Max=  2.3060825D-05 conv= 1.00D-05.
 RLE energy=       -0.5375848010
 DE(Corr)= -0.53758484     E(CORR)=     -152.64733843     Delta=-1.78D-07
 NORM(A)=   0.10645974D+01
 Iteration Nr.   8
 **********************
 DD1Dir will call FoFMem   1 times, MxPair=        72
 NAB=    36 NAA=     0 NBB=     0.
 A-vector RMS=  9.3869847D-07 Max=  8.3034995D-06 conv= 1.00D-05.
 RLE energy=       -0.5375841787
 DE(Corr)= -0.53758438     E(CORR)=     -152.64733798     Delta= 4.55D-07
 NORM(A)=   0.10645975D+01
 Iteration Nr.   9
 **********************
 DD1Dir will call FoFMem   1 times, MxPair=        72
 NAB=    36 NAA=     0 NBB=     0.
 A-vector RMS=  1.8427883D-07 Max=  2.0905128D-06 conv= 1.00D-05.
 RLE energy=       -0.5375844545
 DE(Corr)= -0.53758452     E(CORR)=     -152.64733812     Delta=-1.41D-07
 NORM(A)=   0.10645979D+01
 Iteration Nr.  10
 **********************
 DD1Dir will call FoFMem   1 times, MxPair=        72
 NAB=    36 NAA=     0 NBB=     0.
 A-vector RMS=  7.3427750D-08 Max=  8.8601532D-07 conv= 1.00D-05.
 RLE energy=       -0.5375846406
 DE(Corr)= -0.53758463     E(CORR)=     -152.64733822     Delta=-1.02D-07
 NORM(A)=   0.10645980D+01
 Iteration Nr.  11
 **********************
 DD1Dir will call FoFMem   1 times, MxPair=        72
 NAB=    36 NAA=     0 NBB=     0.
 A-vector RMS=  2.4793398D-08 Max=  3.8658022D-07 conv= 1.00D-05.
 RLE energy=       -0.5375846915
 DE(Corr)= -0.53758468     E(CORR)=     -152.64733827     Delta=-5.10D-08
 NORM(A)=   0.10645981D+01
 CI/CC converged in   11 iterations to DelEn=-5.10D-08 Conv= 1.00D-07 ErrA1= 2.48D-08 Conv= 1.00D-05
 Wavefunction amplitudes converged. E(Corr)=     -152.64733827    
 Largest amplitude= 4.70D-02
 IPart=  4 IA=    7   11.05% done.
 IPart=  1 IA=   13   21.46% done.
 IPart=  2 IA=   19   31.21% done.
 IPart=  3 IA=   25   40.32% done.
 IPart=  4 IA=   32   50.13% done.
 IPart=  2 IA=   40   60.27% done.
 IPart=  1 IA=   49   70.30% done.
 IPart=  4 IA=   60   80.58% done.
 IPart=  3 IA=   74   90.51% done.
 Time for triples=       60.80 seconds.
 T4(CCSD)= -0.16063419D-01
 T5(CCSD)=  0.40582303D-03
 CCSD(T)= -0.15266299587D+03
 Discarding MO integrals.
 Leave Link  913 at Fri Aug 26 16:21:15 2022, MaxMem=   536870912 cpu:              88.5 elap:              22.2
 (Enter /usr/site/hpc/x86_64/glibc-2.17/broadwell/gaussian/g16_a.03/pgi-16.5/g16/l601.exe)
 Copying SCF densities to generalized density rwf, IOpCl= 0 IROHF=0.

 **********************************************************************

            Population analysis using the SCF density.

 **********************************************************************

 Orbital symmetries:
       Occupied  (A') (A') (A') (A') (A') (A') (A') (A') (A") (A")
       Virtual   (A') (A') (A') (A') (A') (A') (A') (A') (A') (A')
                 (A") (A') (A") (A') (A') (A") (A") (A') (A") (A")
                 (A') (A') (A') (A') (A') (A') (A') (A') (A") (A")
                 (A") (A") (A') (A') (A') (A') (A') (A') (A') (A')
                 (A') (A') (A") (A") (A') (A') (A") (A") (A') (A')
                 (A") (A") (A') (A') (A') (A') (A") (A") (A") (A")
                 (A') (A') (A') (A') (A") (A") (A') (A') (A') (A')
                 (A") (A") (A') (A') (A') (A') (A') (A') (A') (A')
                 (A") (A") (A') (A') (A") (A") (A") (A") (A') (A')
                 (A") (A") (A') (A') (A') (A') (A") (A") (A') (A')
                 (A') (A') (A') (A') (A') (A')
 The electronic state is 1-A'.
 Alpha  occ. eigenvalues --  -20.56842 -20.54487  -1.34117  -1.31806  -0.71533
 Alpha  occ. eigenvalues --   -0.69186  -0.57652  -0.55277  -0.51241  -0.48935
 Alpha virt. eigenvalues --    0.12087   0.16072   0.19444   0.23496   0.53526
 Alpha virt. eigenvalues --    0.55449   0.56208   0.58621   0.68811   0.69891
 Alpha virt. eigenvalues --    0.77561   0.79080   0.79922   0.80451   0.83166
 Alpha virt. eigenvalues --    0.83714   0.85959   0.88006   0.95875   0.98632
 Alpha virt. eigenvalues --    1.13708   1.15305   1.18536   1.19057   1.50295
 Alpha virt. eigenvalues --    1.50951   1.52972   1.55268   1.99317   2.01740
 Alpha virt. eigenvalues --    2.05452   2.07810   2.09585   2.10754   2.14086
 Alpha virt. eigenvalues --    2.16875   2.25936   2.28641   2.60272   2.63140
 Alpha virt. eigenvalues --    2.91678   2.95932   3.38145   3.40441   3.48713
 Alpha virt. eigenvalues --    3.51033   3.51929   3.54199   3.58319   3.60695
 Alpha virt. eigenvalues --    3.77382   3.79709   3.83839   3.86394   3.87050
 Alpha virt. eigenvalues --    3.88889   3.92370   3.94632   4.01768   4.04312
 Alpha virt. eigenvalues --    4.06478   4.10421   4.13950   4.17696   4.28880
 Alpha virt. eigenvalues --    4.31217   4.39083   4.41606   4.44555   4.47104
 Alpha virt. eigenvalues --    4.65269   4.67570   4.80572   4.82482   5.03093
 Alpha virt. eigenvalues --    5.05705   5.22889   5.25386   5.52999   5.55982
 Alpha virt. eigenvalues --    5.96593   5.98930   6.39104   6.41694   6.84858
 Alpha virt. eigenvalues --    6.87203   6.88361   6.90693   6.93351   6.96530
 Alpha virt. eigenvalues --    6.97770   7.00134   7.07324   7.08928   7.12296
 Alpha virt. eigenvalues --    7.14914   7.16940   7.19305   7.45898   7.48971
 Alpha virt. eigenvalues --    7.69426   7.71769   8.14080   8.17261  12.46642
 Alpha virt. eigenvalues --   12.61003
          Condensed to atoms (all electrons):
               1          2          3          4          5          6
     1  O    7.823847   0.348989   0.344990  -0.000224   0.000010   0.000070
     2  H    0.348989   0.420035  -0.037969   0.004799  -0.000173  -0.000393
     3  H    0.344990  -0.037969   0.444280  -0.000105   0.000003   0.000039
     4  O   -0.000224   0.004799  -0.000105   7.829705   0.338857   0.336505
     5  H    0.000010  -0.000173   0.000003   0.338857   0.433229  -0.031711
     6  H    0.000070  -0.000393   0.000039   0.336505  -0.031711   0.441529
 Mulliken charges:
               1
     1  O   -0.517683
     2  H    0.264711
     3  H    0.248762
     4  O   -0.509537
     5  H    0.259784
     6  H    0.253962
 Sum of Mulliken charges =   0.00000
 Mulliken charges with hydrogens summed into heavy atoms:
               1
     1  O   -0.004210
     4  O    0.004210
 Electronic spatial extent (au):  <R**2>=            350.7711
 Charge=              0.0000 electrons
 Dipole moment (field-independent basis, Debye):
    X=             -2.5002    Y=             -3.0370    Z=              0.0000  Tot=              3.9338
 Quadrupole moment (field-independent basis, Debye-Ang):
   XX=             -9.8204   YY=             -7.8459   ZZ=            -14.7189
   XY=             -3.4534   XZ=              0.0000   YZ=             -0.0000
 Traceless Quadrupole moment (field-independent basis, Debye-Ang):
   XX=              0.9747   YY=              2.9492   ZZ=             -3.9239
   XY=             -3.4534   XZ=              0.0000   YZ=             -0.0000
 Octapole moment (field-independent basis, Debye-Ang**2):
  XXX=             -3.4430  YYY=            -37.0231  ZZZ=              0.0000  XYY=            -10.9856
  XXY=             -2.2519  XXZ=              0.0000  XZZ=             -0.3249  YZZ=             -0.4420
  YYZ=              0.0000  XYZ=              0.0000
 Hexadecapole moment (field-independent basis, Debye-Ang**3):
 XXXX=            -11.3488 YYYY=           -264.4355 ZZZZ=            -11.3527 XXXY=              0.7134
 XXXZ=             -0.0000 YYYX=            -37.6721 YYYZ=              0.0000 ZZZX=             -0.0000
 ZZZY=              0.0000 XXYY=            -42.4987 XXZZ=             -4.4020 YYZZ=            -68.6742
 XXYZ=              0.0000 YYXZ=              0.0000 ZZXY=              0.5905
 N-N= 3.059453655890D+01 E-N=-4.225854193447D+02  KE= 1.517983459530D+02
 Symmetry A'   KE= 1.427616813360D+02
 Symmetry A"   KE= 9.036664616992D+00
 Leave Link  601 at Fri Aug 26 16:21:16 2022, MaxMem=   536870912 cpu:               0.2 elap:               0.1
 (Enter /usr/site/hpc/x86_64/glibc-2.17/broadwell/gaussian/g16_a.03/pgi-16.5/g16/l9999.exe)
 1\1\GINC-N004\SP\RCCSD(T)-FC\CC-pVTZ\H4O2\C7441284\26-Aug-2022\0\\#p C
 CSD(T)/cc-pVTZ\\H2O_H2O_2657\\0,1\O,0,0.,-0.009833,0.\H,0,-0.799571,-0
 .580965,0.\H,0,0.799571,-0.580965,0.\O,0,-3.385397,-2.423894,0.\H,0,-4
 .355116,-2.582485,0.\H,0,-2.920889,-3.289768,0.\\Version=ES64L-G16RevA
 .03\State=1-A'\HF=-152.1097536\MP2=-152.6358621\MP3=-152.6433248\MP4D=
 -152.6524237\MP4DQ=-152.644869\MP4SDQ=-152.6479365\CCSD=-152.6473383\C
 CSD(T)=-152.6629959\RMSD=6.898e-09\PG=CS [SG(H4O2)]\\@


 "WHERE SHALL I START, PLEASE YOUR MAJESTY?" HE ASKED.
 "BEGIN AT THE BEGINNING," THE KING SAID GRAVELY,
 "AND GO ON TILL YOU COME TO THE END: THEN STOP." 

                                      -- LEWIS CARROLL
 Job cpu time:       0 days  0 hours  1 minutes 39.0 seconds.
 Elapsed time:       0 days  0 hours  0 minutes 25.0 seconds.
 File lengths (MBytes):  RWF=    344 Int=      0 D2E=      0 Chk=      8 Scr=      8
 Normal termination of Gaussian 16 at Fri Aug 26 16:21:16 2022.
