 Entering Gaussian System, Link 0=g16
 Input=H2O_H2O_240.com
 Output=H2O_H2O_240.log
 Initial command:
 /usr/site/hpc/x86_64/glibc-2.17/broadwell/gaussian/g16_a.03/pgi-16.5/g16/l1.exe "/gpfs/gpfs1/scratch/c7441284/ForceFieldModel/FittingData2/Gau-4154665.inp" -scrdir="/gpfs/gpfs1/scratch/c7441284/ForceFieldModel/FittingData2/"
 Entering Link 1 = /usr/site/hpc/x86_64/glibc-2.17/broadwell/gaussian/g16_a.03/pgi-16.5/g16/l1.exe PID=   4154666.
  
 Copyright (c) 1988,1990,1992,1993,1995,1998,2003,2009,2016,
            Gaussian, Inc.  All Rights Reserved.
  
 This is part of the Gaussian(R) 16 program.  It is based on
 the Gaussian(R) 09 system (copyright 2009, Gaussian, Inc.),
 the Gaussian(R) 03 system (copyright 2003, Gaussian, Inc.),
 the Gaussian(R) 98 system (copyright 1998, Gaussian, Inc.),
 the Gaussian(R) 94 system (copyright 1995, Gaussian, Inc.),
 the Gaussian 92(TM) system (copyright 1992, Gaussian, Inc.),
 the Gaussian 90(TM) system (copyright 1990, Gaussian, Inc.),
 the Gaussian 88(TM) system (copyright 1988, Gaussian, Inc.),
 the Gaussian 86(TM) system (copyright 1986, Carnegie Mellon
 University), and the Gaussian 82(TM) system (copyright 1983,
 Carnegie Mellon University). Gaussian is a federally registered
 trademark of Gaussian, Inc.
  
 This software contains proprietary and confidential information,
 including trade secrets, belonging to Gaussian, Inc.
  
 This software is provided under written license and may be
 used, copied, transmitted, or stored only in accord with that
 written license.
  
 The following legend is applicable only to US Government
 contracts under FAR:
  
                    RESTRICTED RIGHTS LEGEND
  
 Use, reproduction and disclosure by the US Government is
 subject to restrictions as set forth in subparagraphs (a)
 and (c) of the Commercial Computer Software - Restricted
 Rights clause in FAR 52.227-19.
  
 Gaussian, Inc.
 340 Quinnipiac St., Bldg. 40, Wallingford CT 06492
  
  
 ---------------------------------------------------------------
 Warning -- This program may not be used in any manner that
 competes with the business of Gaussian, Inc. or will provide
 assistance to any competitor of Gaussian, Inc.  The licensee
 of this program is prohibited from giving any competitor of
 Gaussian, Inc. access to this program.  By using this program,
 the user acknowledges that Gaussian, Inc. is engaged in the
 business of creating and licensing software in the field of
 computational chemistry and represents and warrants to the
 licensee that it is not a competitor of Gaussian, Inc. and that
 it will not use this program in any manner prohibited above.
 ---------------------------------------------------------------
  

 Cite this work as:
 Gaussian 16, Revision A.03,
 M. J. Frisch, G. W. Trucks, H. B. Schlegel, G. E. Scuseria, 
 M. A. Robb, J. R. Cheeseman, G. Scalmani, V. Barone, 
 G. A. Petersson, H. Nakatsuji, X. Li, M. Caricato, A. V. Marenich, 
 J. Bloino, B. G. Janesko, R. Gomperts, B. Mennucci, H. P. Hratchian, 
 J. V. Ortiz, A. F. Izmaylov, J. L. Sonnenberg, D. Williams-Young, 
 F. Ding, F. Lipparini, F. Egidi, J. Goings, B. Peng, A. Petrone, 
 T. Henderson, D. Ranasinghe, V. G. Zakrzewski, J. Gao, N. Rega, 
 G. Zheng, W. Liang, M. Hada, M. Ehara, K. Toyota, R. Fukuda, 
 J. Hasegawa, M. Ishida, T. Nakajima, Y. Honda, O. Kitao, H. Nakai, 
 T. Vreven, K. Throssell, J. A. Montgomery, Jr., J. E. Peralta, 
 F. Ogliaro, M. J. Bearpark, J. J. Heyd, E. N. Brothers, K. N. Kudin, 
 V. N. Staroverov, T. A. Keith, R. Kobayashi, J. Normand, 
 K. Raghavachari, A. P. Rendell, J. C. Burant, S. S. Iyengar, 
 J. Tomasi, M. Cossi, J. M. Millam, M. Klene, C. Adamo, R. Cammi, 
 J. W. Ochterski, R. L. Martin, K. Morokuma, O. Farkas, 
 J. B. Foresman, and D. J. Fox, Gaussian, Inc., Wallingford CT, 2016.
 
 ******************************************
 Gaussian 16:  ES64L-G16RevA.03 25-Dec-2016
                26-Aug-2022 
 ******************************************
 %NProcShared=4
 Will use up to    4 processors via shared memory.
 %Mem=4GB
 %Chk=H2O_H2O_240.chk
 ------------------
 #p CCSD(T)/cc-pVTZ
 ------------------
 1/38=1,172=1/1;
 2/12=2,17=6,18=5,40=1/2;
 3/5=16,6=1,11=9,25=1,30=1/1,2,3;
 4//1;
 5/5=2,38=5/2;
 8/6=4,9=120000,10=1/1,4;
 9/5=7,14=2/13;
 6/7=2,8=2,9=2,10=2/1;
 99/5=1,9=1/99;
 Leave Link    1 at Fri Aug 26 16:50:11 2022, MaxMem=   536870912 cpu:               0.3 elap:               0.1
 (Enter /usr/site/hpc/x86_64/glibc-2.17/broadwell/gaussian/g16_a.03/pgi-16.5/g16/l101.exe)
 -----------
 H2O_H2O_240
 -----------
 Symbolic Z-matrix:
 Charge =  0 Multiplicity = 1
 O                     0.       -0.00983   0. 
 H                    -0.79957  -0.58097   0. 
 H                     0.79957  -0.58097   0. 
 O                    -1.81502  -1.29609   0. 
 H                    -2.73412  -0.94857   0. 
 H                    -1.84568  -2.27821   0. 
 
 ITRead=  0  0  0  0  0  0
 MicOpt= -1 -1 -1 -1 -1 -1
 NAtoms=      6 NQM=        6 NQMF=       0 NMMI=      0 NMMIF=      0
                NMic=       0 NMicF=      0.
                    Isotopes and Nuclear Properties:
 (Nuclear quadrupole moments (NQMom) in fm**2, nuclear magnetic moments (NMagM)
  in nuclear magnetons)

  Atom         1           2           3           4           5           6
 IAtWgt=          16           1           1          16           1           1
 AtmWgt=  15.9949146   1.0078250   1.0078250  15.9949146   1.0078250   1.0078250
 NucSpn=           0           1           1           0           1           1
 AtZEff=  -0.0000000  -0.0000000  -0.0000000  -0.0000000  -0.0000000  -0.0000000
 NQMom=    0.0000000   0.0000000   0.0000000   0.0000000   0.0000000   0.0000000
 NMagM=    0.0000000   2.7928460   2.7928460   0.0000000   2.7928460   2.7928460
 AtZNuc=   8.0000000   1.0000000   1.0000000   8.0000000   1.0000000   1.0000000
 Leave Link  101 at Fri Aug 26 16:50:11 2022, MaxMem=   536870912 cpu:               0.7 elap:               0.2
 (Enter /usr/site/hpc/x86_64/glibc-2.17/broadwell/gaussian/g16_a.03/pgi-16.5/g16/l202.exe)
                          Input orientation:                          
 ---------------------------------------------------------------------
 Center     Atomic      Atomic             Coordinates (Angstroms)
 Number     Number       Type             X           Y           Z
 ---------------------------------------------------------------------
      1          8           0        0.000000   -0.009833    0.000000
      2          1           0       -0.799571   -0.580965    0.000000
      3          1           0        0.799571   -0.580965    0.000000
      4          8           0       -1.815021   -1.296088    0.000000
      5          1           0       -2.734118   -0.948573    0.000000
      6          1           0       -1.845682   -2.278211    0.000000
 ---------------------------------------------------------------------
                    Distance matrix (angstroms):
                    1          2          3          4          5
     1  O    0.000000
     2  H    0.982601   0.000000
     3  H    0.982601   1.599142   0.000000
     4  O    2.224579   1.241990   2.710626   0.000000
     5  H    2.890784   1.969164   3.552759   0.982602   0.000000
     6  H    2.924394   1.993738   3.142930   0.982601   1.599142
                    6
     6  H    0.000000
 Stoichiometry    H4O2
 Framework group  CS[SG(H4O2)]
 Deg. of freedom     9
 Full point group                 CS      NOp   2
 Largest Abelian subgroup         CS      NOp   2
 Largest concise Abelian subgroup C1      NOp   1
                         Standard orientation:                         
 ---------------------------------------------------------------------
 Center     Atomic      Atomic             Coordinates (Angstroms)
 Number     Number       Type             X           Y           Z
 ---------------------------------------------------------------------
      1          8           0        0.045029    1.202404    0.000000
      2          1           0        0.041359    0.219810    0.000000
      3          1           0       -0.883267    1.524540    0.000000
      4          8           0        0.045029   -1.022175   -0.000000
      5          1           0        0.859988   -1.571127   -0.000000
      6          1           0       -0.738551   -1.615056   -0.000000
 ---------------------------------------------------------------------
 Rotational constants (GHZ):         241.8040481          10.6773448          10.2258038
 Leave Link  202 at Fri Aug 26 16:50:11 2022, MaxMem=   536870912 cpu:               0.0 elap:               0.0
 (Enter /usr/site/hpc/x86_64/glibc-2.17/broadwell/gaussian/g16_a.03/pgi-16.5/g16/l301.exe)
 Standard basis: CC-pVTZ (5D, 7F)
 Ernie: Thresh=  0.10000D-02 Tol=  0.10000D-05 Strict=F.
 Ernie:  6 primitive shells out of 84 were deleted.
 There are    92 symmetry adapted cartesian basis functions of A'  symmetry.
 There are    38 symmetry adapted cartesian basis functions of A"  symmetry.
 There are    80 symmetry adapted basis functions of A'  symmetry.
 There are    36 symmetry adapted basis functions of A"  symmetry.
   116 basis functions,   172 primitive gaussians,   130 cartesian basis functions
    10 alpha electrons       10 beta electrons
       nuclear repulsion energy        41.8533974626 Hartrees.
 IExCor=    0 DFT=F Ex=HF Corr=None ExCW=0 ScaHFX=  1.000000
 ScaDFX=  1.000000  1.000000  1.000000  1.000000 ScalE2=  1.000000  1.000000
 IRadAn=      5 IRanWt=     -1 IRanGd=            0 ICorTp=0 IEmpDi=  4
 NAtoms=    6 NActive=    6 NUniq=    6 SFac= 1.00D+00 NAtFMM=   60 NAOKFM=F Big=F
 Integral buffers will be    131072 words long.
 Raffenetti 1 integral format.
 Two-electron integral symmetry is turned on.
 Leave Link  301 at Fri Aug 26 16:50:12 2022, MaxMem=   536870912 cpu:               0.2 elap:               0.0
 (Enter /usr/site/hpc/x86_64/glibc-2.17/broadwell/gaussian/g16_a.03/pgi-16.5/g16/l302.exe)
 NPDir=0 NMtPBC=     1 NCelOv=     1 NCel=       1 NClECP=     1 NCelD=      1
         NCelK=      1 NCelE2=     1 NClLst=     1 CellRange=     0.0.
 One-electron integrals computed using PRISM.
 One-electron integral symmetry used in STVInt
 NBasis=   116 RedAO= T EigKep=  2.07D-03  NBF=    80    36
 NBsUse=   116 1.00D-06 EigRej= -1.00D+00 NBFU=    80    36
 Leave Link  302 at Fri Aug 26 16:50:12 2022, MaxMem=   536870912 cpu:               0.5 elap:               0.1
 (Enter /usr/site/hpc/x86_64/glibc-2.17/broadwell/gaussian/g16_a.03/pgi-16.5/g16/l303.exe)
 DipDrv:  MaxL=1.
 Leave Link  303 at Fri Aug 26 16:50:12 2022, MaxMem=   536870912 cpu:               0.1 elap:               0.0
 (Enter /usr/site/hpc/x86_64/glibc-2.17/broadwell/gaussian/g16_a.03/pgi-16.5/g16/l401.exe)
 ExpMin= 1.03D-01 ExpMax= 1.53D+04 ExpMxC= 5.22D+02 IAcc=3 IRadAn=         5 AccDes= 0.00D+00
 Harris functional with IExCor=  205 and IRadAn=       5 diagonalized for initial guess.
 HarFok:  IExCor=  205 AccDes= 0.00D+00 IRadAn=         5 IDoV= 1 UseB2=F ITyADJ=14
 ICtDFT=  3500011 ScaDFX=  1.000000  1.000000  1.000000  1.000000
 FoFCou: FMM=F IPFlag=           0 FMFlag=      100000 FMFlg1=           0
         NFxFlg=           0 DoJE=T BraDBF=F KetDBF=T FulRan=T
         wScrn=  0.000000 ICntrl=       500 IOpCl=  0 I1Cent=   200000004 NGrid=           0
         NMat0=    1 NMatS0=      1 NMatT0=    0 NMatD0=    1 NMtDS0=    0 NMtDT0=    0
 Petite list used in FoFCou.
 Harris En= -152.302154237349    
 JPrj=0 DoOrth=F DoCkMO=F.
 Initial guess orbital symmetries:
       Occupied  (A') (A') (A') (A') (A') (A') (A') (A') (A") (A")
       Virtual   (A') (A') (A') (A') (A') (A') (A') (A') (A") (A')
                 (A') (A") (A') (A') (A") (A") (A') (A") (A') (A')
                 (A") (A') (A') (A') (A') (A') (A') (A") (A") (A")
                 (A') (A') (A') (A') (A') (A') (A") (A') (A') (A')
                 (A') (A') (A") (A") (A') (A") (A") (A") (A') (A')
                 (A') (A") (A') (A") (A') (A') (A") (A") (A') (A')
                 (A') (A") (A') (A') (A") (A') (A") (A') (A") (A")
                 (A') (A') (A') (A') (A') (A') (A') (A') (A') (A')
                 (A") (A") (A') (A") (A") (A") (A') (A") (A') (A")
                 (A') (A") (A") (A') (A') (A') (A') (A') (A') (A")
                 (A') (A') (A') (A') (A') (A')
 The electronic state of the initial guess is 1-A'.
 Leave Link  401 at Fri Aug 26 16:50:12 2022, MaxMem=   536870912 cpu:               0.8 elap:               0.2
 (Enter /usr/site/hpc/x86_64/glibc-2.17/broadwell/gaussian/g16_a.03/pgi-16.5/g16/l502.exe)
 Keep R1 ints in memory in symmetry-blocked form, NReq=34823457.
 FoFCou: FMM=F IPFlag=           0 FMFlag=           0 FMFlg1=           0
         NFxFlg=           0 DoJE=F BraDBF=F KetDBF=F FulRan=T
         wScrn=  0.000000 ICntrl=       600 IOpCl=  0 I1Cent=           0 NGrid=           0
         NMat0=    1 NMatS0=   6786 NMatT0=    0 NMatD0=    1 NMtDS0=    0 NMtDT0=    0
 Petite list used in FoFCou.
 Closed shell SCF:
 Using DIIS extrapolation, IDIIS=  1040.
 NGot=   536870912 LenX=   525040673 LenY=   525023332
 Requested convergence on RMS density matrix=1.00D-08 within 128 cycles.
 Requested convergence on MAX density matrix=1.00D-06.
 Requested convergence on             energy=1.00D-06.
 No special actions if energy rises.

 Cycle   1  Pass 1  IDiag  1:
 E= -151.889397246205    
 DIIS: error= 5.88D-02 at cycle   1 NSaved=   1.
 NSaved= 1 IEnMin= 1 EnMin= -151.889397246205     IErMin= 1 ErrMin= 5.88D-02
 ErrMax= 5.88D-02  0.00D+00 EMaxC= 1.00D-01 BMatC= 4.08D-01 BMatP= 4.08D-01
 IDIUse=3 WtCom= 4.12D-01 WtEn= 5.88D-01
 Coeff-Com:  0.100D+01
 Coeff-En:   0.100D+01
 Coeff:      0.100D+01
 Gap=     0.398 Goal=   None    Shift=    0.000
 GapD=    0.398 DampG=1.000 DampE=0.500 DampFc=0.5000 IDamp=-1.
 Damping current iteration by 5.00D-01
 RMSDP=3.53D-03 MaxDP=1.10D-01              OVMax= 1.49D-01

 Cycle   2  Pass 1  IDiag  1:
 E= -151.989408004588     Delta-E=       -0.100010758383 Rises=F Damp=T
 DIIS: error= 1.79D-02 at cycle   2 NSaved=   2.
 NSaved= 2 IEnMin= 2 EnMin= -151.989408004588     IErMin= 2 ErrMin= 1.79D-02
 ErrMax= 1.79D-02  0.00D+00 EMaxC= 1.00D-01 BMatC= 5.85D-02 BMatP= 4.08D-01
 IDIUse=3 WtCom= 8.21D-01 WtEn= 1.79D-01
 Coeff-Com: -0.373D+00 0.137D+01
 Coeff-En:   0.000D+00 0.100D+01
 Coeff:     -0.306D+00 0.131D+01
 Gap=     0.529 Goal=   None    Shift=    0.000
 RMSDP=6.42D-04 MaxDP=1.25D-02 DE=-1.00D-01 OVMax= 5.86D-02

 Cycle   3  Pass 1  IDiag  1:
 E= -152.074455378219     Delta-E=       -0.085047373631 Rises=F Damp=F
 DIIS: error= 2.81D-03 at cycle   3 NSaved=   3.
 NSaved= 3 IEnMin= 3 EnMin= -152.074455378219     IErMin= 3 ErrMin= 2.81D-03
 ErrMax= 2.81D-03  0.00D+00 EMaxC= 1.00D-01 BMatC= 7.77D-04 BMatP= 5.85D-02
 IDIUse=3 WtCom= 9.72D-01 WtEn= 2.81D-02
 Coeff-Com: -0.523D-01 0.483D-01 0.100D+01
 Coeff-En:   0.000D+00 0.000D+00 0.100D+01
 Coeff:     -0.508D-01 0.470D-01 0.100D+01
 Gap=     0.526 Goal=   None    Shift=    0.000
 RMSDP=1.50D-04 MaxDP=2.54D-03 DE=-8.50D-02 OVMax= 7.81D-03

 Cycle   4  Pass 1  IDiag  1:
 E= -152.075121426244     Delta-E=       -0.000666048025 Rises=F Damp=F
 DIIS: error= 6.65D-04 at cycle   4 NSaved=   4.
 NSaved= 4 IEnMin= 4 EnMin= -152.075121426244     IErMin= 4 ErrMin= 6.65D-04
 ErrMax= 6.65D-04  0.00D+00 EMaxC= 1.00D-01 BMatC= 3.09D-05 BMatP= 7.77D-04
 IDIUse=3 WtCom= 9.93D-01 WtEn= 6.65D-03
 Coeff-Com:  0.990D-02-0.176D-01-0.121D+00 0.113D+01
 Coeff-En:   0.000D+00 0.000D+00 0.000D+00 0.100D+01
 Coeff:      0.983D-02-0.175D-01-0.120D+00 0.113D+01
 Gap=     0.530 Goal=   None    Shift=    0.000
 RMSDP=5.98D-05 MaxDP=1.16D-03 DE=-6.66D-04 OVMax= 2.27D-03

 Cycle   5  Pass 1  IDiag  1:
 E= -152.075167330845     Delta-E=       -0.000045904600 Rises=F Damp=F
 DIIS: error= 3.23D-04 at cycle   5 NSaved=   5.
 NSaved= 5 IEnMin= 5 EnMin= -152.075167330845     IErMin= 5 ErrMin= 3.23D-04
 ErrMax= 3.23D-04  0.00D+00 EMaxC= 1.00D-01 BMatC= 8.24D-06 BMatP= 3.09D-05
 IDIUse=3 WtCom= 9.97D-01 WtEn= 3.23D-03
 Coeff-Com:  0.112D-01-0.135D-01-0.186D+00 0.362D+00 0.826D+00
 Coeff-En:   0.000D+00 0.000D+00 0.000D+00 0.000D+00 0.100D+01
 Coeff:      0.112D-01-0.134D-01-0.185D+00 0.361D+00 0.827D+00
 Gap=     0.530 Goal=   None    Shift=    0.000
 RMSDP=2.45D-05 MaxDP=4.45D-04 DE=-4.59D-05 OVMax= 1.11D-03

 Cycle   6  Pass 1  IDiag  1:
 E= -152.075175770355     Delta-E=       -0.000008439510 Rises=F Damp=F
 DIIS: error= 4.22D-05 at cycle   6 NSaved=   6.
 NSaved= 6 IEnMin= 6 EnMin= -152.075175770355     IErMin= 6 ErrMin= 4.22D-05
 ErrMax= 4.22D-05  0.00D+00 EMaxC= 1.00D-01 BMatC= 1.65D-07 BMatP= 8.24D-06
 IDIUse=1 WtCom= 1.00D+00 WtEn= 0.00D+00
 Coeff-Com: -0.189D-02 0.235D-02 0.363D-01-0.113D+00-0.127D+00 0.120D+01
 Coeff:     -0.189D-02 0.235D-02 0.363D-01-0.113D+00-0.127D+00 0.120D+01
 Gap=     0.530 Goal=   None    Shift=    0.000
 RMSDP=6.52D-06 MaxDP=1.19D-04 DE=-8.44D-06 OVMax= 3.52D-04

 Cycle   7  Pass 1  IDiag  1:
 E= -152.075176169327     Delta-E=       -0.000000398972 Rises=F Damp=F
 DIIS: error= 1.09D-05 at cycle   7 NSaved=   7.
 NSaved= 7 IEnMin= 7 EnMin= -152.075176169327     IErMin= 7 ErrMin= 1.09D-05
 ErrMax= 1.09D-05  0.00D+00 EMaxC= 1.00D-01 BMatC= 8.07D-09 BMatP= 1.65D-07
 IDIUse=1 WtCom= 1.00D+00 WtEn= 0.00D+00
 Coeff-Com: -0.117D-03 0.114D-03 0.119D-02 0.234D-02-0.150D-01-0.222D+00
 Coeff-Com:  0.123D+01
 Coeff:     -0.117D-03 0.114D-03 0.119D-02 0.234D-02-0.150D-01-0.222D+00
 Coeff:      0.123D+01
 Gap=     0.530 Goal=   None    Shift=    0.000
 RMSDP=1.78D-06 MaxDP=3.52D-05 DE=-3.99D-07 OVMax= 1.11D-04

 Cycle   8  Pass 1  IDiag  1:
 E= -152.075176193743     Delta-E=       -0.000000024416 Rises=F Damp=F
 DIIS: error= 2.80D-06 at cycle   8 NSaved=   8.
 NSaved= 8 IEnMin= 8 EnMin= -152.075176193743     IErMin= 8 ErrMin= 2.80D-06
 ErrMax= 2.80D-06  0.00D+00 EMaxC= 1.00D-01 BMatC= 4.79D-10 BMatP= 8.07D-09
 IDIUse=1 WtCom= 1.00D+00 WtEn= 0.00D+00
 Coeff-Com:  0.163D-03-0.197D-03-0.282D-02 0.698D-02 0.139D-01-0.129D-01
 Coeff-Com: -0.321D+00 0.132D+01
 Coeff:      0.163D-03-0.197D-03-0.282D-02 0.698D-02 0.139D-01-0.129D-01
 Coeff:     -0.321D+00 0.132D+01
 Gap=     0.530 Goal=   None    Shift=    0.000
 RMSDP=3.58D-07 MaxDP=7.00D-06 DE=-2.44D-08 OVMax= 2.59D-05

 Cycle   9  Pass 1  IDiag  1:
 E= -152.075176195008     Delta-E=       -0.000000001265 Rises=F Damp=F
 DIIS: error= 6.74D-07 at cycle   9 NSaved=   9.
 NSaved= 9 IEnMin= 9 EnMin= -152.075176195008     IErMin= 9 ErrMin= 6.74D-07
 ErrMax= 6.74D-07  0.00D+00 EMaxC= 1.00D-01 BMatC= 2.10D-11 BMatP= 4.79D-10
 IDIUse=1 WtCom= 1.00D+00 WtEn= 0.00D+00
 Coeff-Com: -0.218D-04 0.267D-04 0.480D-03-0.150D-02-0.159D-02 0.155D-01
 Coeff-Com: -0.120D-01-0.208D+00 0.121D+01
 Coeff:     -0.218D-04 0.267D-04 0.480D-03-0.150D-02-0.159D-02 0.155D-01
 Coeff:     -0.120D-01-0.208D+00 0.121D+01
 Gap=     0.530 Goal=   None    Shift=    0.000
 RMSDP=6.82D-08 MaxDP=1.32D-06 DE=-1.27D-09 OVMax= 4.72D-06

 Cycle  10  Pass 1  IDiag  1:
 E= -152.075176195061     Delta-E=       -0.000000000053 Rises=F Damp=F
 DIIS: error= 1.48D-07 at cycle  10 NSaved=  10.
 NSaved=10 IEnMin=10 EnMin= -152.075176195061     IErMin=10 ErrMin= 1.48D-07
 ErrMax= 1.48D-07  0.00D+00 EMaxC= 1.00D-01 BMatC= 1.19D-12 BMatP= 2.10D-11
 IDIUse=1 WtCom= 1.00D+00 WtEn= 0.00D+00
 Coeff-Com: -0.559D-05 0.672D-05 0.877D-04-0.199D-03-0.513D-03-0.789D-03
 Coeff-Com:  0.141D-01-0.336D-01-0.192D+00 0.121D+01
 Coeff:     -0.559D-05 0.672D-05 0.877D-04-0.199D-03-0.513D-03-0.789D-03
 Coeff:      0.141D-01-0.336D-01-0.192D+00 0.121D+01
 Gap=     0.530 Goal=   None    Shift=    0.000
 RMSDP=1.62D-08 MaxDP=3.37D-07 DE=-5.33D-11 OVMax= 1.18D-06

 Cycle  11  Pass 1  IDiag  1:
 E= -152.075176195064     Delta-E=       -0.000000000002 Rises=F Damp=F
 DIIS: error= 2.85D-08 at cycle  11 NSaved=  11.
 NSaved=11 IEnMin=11 EnMin= -152.075176195064     IErMin=11 ErrMin= 2.85D-08
 ErrMax= 2.85D-08  0.00D+00 EMaxC= 1.00D-01 BMatC= 4.49D-14 BMatP= 1.19D-12
 IDIUse=1 WtCom= 1.00D+00 WtEn= 0.00D+00
 Coeff-Com:  0.137D-05-0.161D-05-0.301D-04 0.843D-04 0.131D-03-0.527D-03
 Coeff-Com: -0.115D-02 0.156D-01-0.384D-01-0.150D+00 0.117D+01
 Coeff:      0.137D-05-0.161D-05-0.301D-04 0.843D-04 0.131D-03-0.527D-03
 Coeff:     -0.115D-02 0.156D-01-0.384D-01-0.150D+00 0.117D+01
 Gap=     0.530 Goal=   None    Shift=    0.000
 RMSDP=2.83D-09 MaxDP=6.57D-08 DE=-2.30D-12 OVMax= 1.51D-07

 SCF Done:  E(RHF) =  -152.075176195     A.U. after   11 cycles
            NFock= 11  Conv=0.28D-08     -V/T= 1.9997
 KE= 1.521174441964D+02 PE=-4.454006584165D+02 EE= 9.935464056244D+01
 Leave Link  502 at Fri Aug 26 16:50:13 2022, MaxMem=   536870912 cpu:               4.6 elap:               1.2
 (Enter /usr/site/hpc/x86_64/glibc-2.17/broadwell/gaussian/g16_a.03/pgi-16.5/g16/l801.exe)
 Windowed orbitals will be sorted by symmetry type.
 ExpMin= 1.03D-01 ExpMax= 1.53D+04 ExpMxC= 5.22D+02 IAcc=3 IRadAn=         5 AccDes= 0.00D+00
 HarFok:  IExCor=  205 AccDes= 0.00D+00 IRadAn=         5 IDoV=-2 UseB2=F ITyADJ=14
 ICtDFT= 12500011 ScaDFX=  1.000000  1.000000  1.000000  1.000000
 Largest valence mixing into a core orbital is  1.09D-04
 Largest core mixing into a valence orbital is  1.78D-05
 Range of M.O.s used for correlation:     3   116
 NBasis=   116 NAE=    10 NBE=    10 NFC=     2 NFV=     0
 NROrb=    114 NOA=     8 NOB=     8 NVA=   106 NVB=   106
 Leave Link  801 at Fri Aug 26 16:50:13 2022, MaxMem=   536870912 cpu:               0.3 elap:               0.1
 (Enter /usr/site/hpc/x86_64/glibc-2.17/broadwell/gaussian/g16_a.03/pgi-16.5/g16/l804.exe)
 Closed-shell transformation, MDV=   536870912 ITran=4 ISComp=2.
 Unit  1 TFree=        834515 TCopy=        406125.
 Semi-Direct transformation.
 ModeAB=           2 MOrb=             8 LenV=     536359830
 LASXX=      2873146 LTotXX=     2873146 LenRXX=     2873146
 LTotAB=     2958132 MaxLAS=     7765680 LenRXY=     7765680
 NonZer=     7989120 LenScr=    12058624 LnRSAI=           0
 LnScr1=           0 LExtra=           0 Total=     22697450
 MaxDsk=          -1 SrtSym=           F ITran=            4
 DoSDTr:  NPSUse=  4
 JobTyp=0 Pass  1:  I=   1 to   8.
 (rs|ai) integrals will be sorted in core.
 Complete sort for first half transformation.
 First half transformation complete.
 Complete sort for second half transformation.
 Second half transformation complete.
 Spin components of T(2) and E(2):
     alpha-alpha T2 =       0.1602465454D-01 E2=     -0.6628610407D-01
     alpha-beta  T2 =       0.9086902324D-01 E2=     -0.4014523728D+00
     beta-beta   T2 =       0.1602465454D-01 E2=     -0.6628610407D-01
 ANorm=    0.1059678410D+01
 E2 =    -0.5340245809D+00 EUMP2 =    -0.15260920077598D+03
 Leave Link  804 at Fri Aug 26 16:50:15 2022, MaxMem=   536870912 cpu:               5.2 elap:               1.3
 (Enter /usr/site/hpc/x86_64/glibc-2.17/broadwell/gaussian/g16_a.03/pgi-16.5/g16/l913.exe)
 CIDS:  MDV=   536870912.
 Frozen-core window:  NFC=   2 NFV=   0.
 IFCWin=0 IBDFC=1 NFBD=     0     0 NFCmp=     0     0 NFFFC=     0     0
 Using DD3R+UMP44R for 1st iteration.
 Using DD4RQ for 2nd and later iterations.
 Keep R2 and R3 ints in memory in symmetry-blocked form, NReq=35357534.
 FoFCou: FMM=F IPFlag=           0 FMFlag=           0 FMFlg1=           0
         NFxFlg=           0 DoJE=F BraDBF=F KetDBF=F FulRan=T
         wScrn=  0.000000 ICntrl=       600 IOpCl=  0 I1Cent=           0 NGrid=           0
         NMat0=    1 NMatS0=   6786 NMatT0=    0 NMatD0=    1 NMtDS0=    0 NMtDT0=    0
 Petite list used in FoFCou.
 CIDS: In Core Option IDoMem=           1.
 CCSD(T)
 =======
 Iterations=  50 Convergence= 0.100D-06
 Produce multiple copies of IABC intergrals
 Iteration Nr.   1
 **********************
 DD1Dir will call FoFMem   1 times, MxPair=        72
 NAB=    36 NAA=     0 NBB=     0.
 MP4(R+Q)=  0.81800002D-02
 Maximum subspace dimension=  5
 A-vector RMS=  1.9533051D-03 Max=  8.9880208D-03 conv= 1.00D-05.
 RLE energy=       -0.5317845436
 E3=       -0.59857818D-02        EUMP3=      -0.15261518656D+03
 E4(DQ)=   -0.63795734D-03        UMP4(DQ)=   -0.15261582452D+03
 E4(SDQ)=  -0.39184209D-02        UMP4(SDQ)=  -0.15261910498D+03
 VARIATIONAL ENERGIES WITH THE FIRST-ORDER WAVEFUNCTION:
 DE(Corr)= -0.53177511     E(Corr)=     -152.60695131    
 NORM(A)=   0.10593755D+01
 Iteration Nr.   2
 **********************
 DD1Dir will call FoFMem   1 times, MxPair=        72
 NAB=    36 NAA=     0 NBB=     0.
 A-vector RMS=  2.1092184D-04 Max=  1.9412824D-03 conv= 1.00D-05.
 RLE energy=       -0.5426599375
 DE(Corr)= -0.54174740     E(CORR)=     -152.61692359     Delta=-9.97D-03
 NORM(A)=   0.10629722D+01
 Iteration Nr.   3
 **********************
 DD1Dir will call FoFMem   1 times, MxPair=        72
 NAB=    36 NAA=     0 NBB=     0.
 A-vector RMS=  2.3816239D-04 Max=  2.5038525D-03 conv= 1.00D-05.
 RLE energy=       -0.5431267975
 DE(Corr)= -0.54254282     E(CORR)=     -152.61771902     Delta=-7.95D-04
 NORM(A)=   0.10635755D+01
 Iteration Nr.   4
 **********************
 DD1Dir will call FoFMem   1 times, MxPair=        72
 NAB=    36 NAA=     0 NBB=     0.
 A-vector RMS=  4.5880166D-05 Max=  6.2634543D-04 conv= 1.00D-05.
 RLE energy=       -0.5431918717
 DE(Corr)= -0.54315873     E(CORR)=     -152.61833493     Delta=-6.16D-04
 NORM(A)=   0.10636962D+01
 Iteration Nr.   5
 **********************
 DD1Dir will call FoFMem   1 times, MxPair=        72
 NAB=    36 NAA=     0 NBB=     0.
 A-vector RMS=  4.0018869D-05 Max=  5.3201248D-04 conv= 1.00D-05.
 RLE energy=       -0.5432129290
 DE(Corr)= -0.54320386     E(CORR)=     -152.61838005     Delta=-4.51D-05
 NORM(A)=   0.10637262D+01
 Iteration Nr.   6
 **********************
 DD1Dir will call FoFMem   1 times, MxPair=        72
 NAB=    36 NAA=     0 NBB=     0.
 A-vector RMS=  9.5709565D-06 Max=  1.1173545D-04 conv= 1.00D-05.
 RLE energy=       -0.5432090257
 DE(Corr)= -0.54320928     E(CORR)=     -152.61838548     Delta=-5.43D-06
 NORM(A)=   0.10637299D+01
 Iteration Nr.   7
 **********************
 DD1Dir will call FoFMem   1 times, MxPair=        72
 NAB=    36 NAA=     0 NBB=     0.
 A-vector RMS=  4.8971189D-06 Max=  5.9209500D-05 conv= 1.00D-05.
 RLE energy=       -0.5432057263
 DE(Corr)= -0.54320974     E(CORR)=     -152.61838593     Delta=-4.53D-07
 NORM(A)=   0.10637315D+01
 Iteration Nr.   8
 **********************
 DD1Dir will call FoFMem   1 times, MxPair=        72
 NAB=    36 NAA=     0 NBB=     0.
 A-vector RMS=  2.2620298D-06 Max=  2.8811431D-05 conv= 1.00D-05.
 RLE energy=       -0.5432088722
 DE(Corr)= -0.54320931     E(CORR)=     -152.61838550     Delta= 4.30D-07
 NORM(A)=   0.10637333D+01
 Iteration Nr.   9
 **********************
 DD1Dir will call FoFMem   1 times, MxPair=        72
 NAB=    36 NAA=     0 NBB=     0.
 A-vector RMS=  3.8823756D-07 Max=  6.6377915D-06 conv= 1.00D-05.
 RLE energy=       -0.5432090655
 DE(Corr)= -0.54320915     E(CORR)=     -152.61838534     Delta= 1.59D-07
 NORM(A)=   0.10637338D+01
 Iteration Nr.  10
 **********************
 DD1Dir will call FoFMem   1 times, MxPair=        72
 NAB=    36 NAA=     0 NBB=     0.
 A-vector RMS=  1.5080365D-07 Max=  2.1146242D-06 conv= 1.00D-05.
 RLE energy=       -0.5432094226
 DE(Corr)= -0.54320942     E(CORR)=     -152.61838562     Delta=-2.77D-07
 NORM(A)=   0.10637340D+01
 Iteration Nr.  11
 **********************
 DD1Dir will call FoFMem   1 times, MxPair=        72
 NAB=    36 NAA=     0 NBB=     0.
 A-vector RMS=  7.0108508D-08 Max=  6.5592990D-07 conv= 1.00D-05.
 RLE energy=       -0.5432095199
 DE(Corr)= -0.54320949     E(CORR)=     -152.61838569     Delta=-6.74D-08
 NORM(A)=   0.10637341D+01
 CI/CC converged in   11 iterations to DelEn=-6.74D-08 Conv= 1.00D-07 ErrA1= 7.01D-08 Conv= 1.00D-05
 Wavefunction amplitudes converged. E(Corr)=     -152.61838569    
 Largest amplitude= 3.89D-02
 IPart=  2 IA=    7   11.05% done.
 IPart=  4 IA=   13   21.46% done.
 IPart=  2 IA=   19   31.21% done.
 IPart=  1 IA=   25   40.32% done.
 IPart=  1 IA=   32   50.13% done.
 IPart=  3 IA=   40   60.27% done.
 IPart=  2 IA=   49   70.30% done.
 IPart=  4 IA=   60   80.58% done.
 IPart=  3 IA=   74   90.51% done.
 Time for triples=       54.03 seconds.
 T4(CCSD)= -0.17156111D-01
 T5(CCSD)=  0.44035372D-03
 CCSD(T)= -0.15263510144D+03
 Discarding MO integrals.
 Leave Link  913 at Fri Aug 26 16:50:35 2022, MaxMem=   536870912 cpu:              80.1 elap:              20.1
 (Enter /usr/site/hpc/x86_64/glibc-2.17/broadwell/gaussian/g16_a.03/pgi-16.5/g16/l601.exe)
 Copying SCF densities to generalized density rwf, IOpCl= 0 IROHF=0.

 **********************************************************************

            Population analysis using the SCF density.

 **********************************************************************

 Orbital symmetries:
       Occupied  (A') (A') (A') (A') (A') (A') (A") (A') (A') (A")
       Virtual   (A') (A') (A') (A') (A') (A') (A') (A') (A') (A")
                 (A') (A') (A") (A") (A') (A") (A') (A") (A') (A')
                 (A") (A') (A') (A') (A') (A') (A') (A") (A") (A")
                 (A') (A') (A') (A') (A') (A') (A") (A') (A') (A')
                 (A') (A') (A") (A") (A') (A") (A') (A") (A') (A')
                 (A") (A') (A") (A") (A") (A') (A') (A') (A") (A")
                 (A') (A') (A') (A') (A") (A') (A") (A') (A") (A')
                 (A") (A') (A') (A') (A') (A') (A') (A') (A') (A')
                 (A") (A") (A') (A") (A") (A') (A") (A") (A') (A")
                 (A") (A') (A') (A") (A') (A') (A') (A') (A') (A")
                 (A') (A') (A') (A') (A') (A')
 The electronic state is 1-A'.
 Alpha  occ. eigenvalues --  -20.61288 -20.46125  -1.41219  -1.25574  -0.76852
 Alpha  occ. eigenvalues --   -0.75354  -0.57105  -0.56367  -0.46528  -0.42284
 Alpha virt. eigenvalues --    0.10751   0.16988   0.20601   0.33438   0.46963
 Alpha virt. eigenvalues --    0.52684   0.62522   0.65343   0.70483   0.71678
 Alpha virt. eigenvalues --    0.78449   0.80108   0.80306   0.82103   0.84483
 Alpha virt. eigenvalues --    0.87705   0.95625   0.99537   1.04836   1.19507
 Alpha virt. eigenvalues --    1.23725   1.28366   1.32438   1.37157   1.54225
 Alpha virt. eigenvalues --    1.57722   1.62473   1.91096   1.98757   2.09828
 Alpha virt. eigenvalues --    2.10107   2.10954   2.22581   2.25537   2.34050
 Alpha virt. eigenvalues --    2.36666   2.39657   2.48947   2.67581   2.80744
 Alpha virt. eigenvalues --    3.05002   3.12719   3.32765   3.43111   3.44898
 Alpha virt. eigenvalues --    3.48940   3.53827   3.58795   3.60517   3.63838
 Alpha virt. eigenvalues --    3.69825   3.72731   3.86660   3.90125   3.97760
 Alpha virt. eigenvalues --    4.01746   4.05509   4.08428   4.11886   4.16228
 Alpha virt. eigenvalues --    4.18683   4.20827   4.29437   4.33382   4.35125
 Alpha virt. eigenvalues --    4.42269   4.50473   4.58010   4.67178   4.80777
 Alpha virt. eigenvalues --    4.82392   4.88250   4.91833   4.98910   5.21743
 Alpha virt. eigenvalues --    5.39712   5.56168   5.57098   5.65723   5.88433
 Alpha virt. eigenvalues --    6.05267   6.22968   6.58636   6.81276   6.85940
 Alpha virt. eigenvalues --    6.89458   6.91725   6.96771   7.07941   7.09946
 Alpha virt. eigenvalues --    7.12960   7.17301   7.21780   7.31161   7.32877
 Alpha virt. eigenvalues --    7.41107   7.52755   7.55496   7.62867   7.65718
 Alpha virt. eigenvalues --    7.98022   8.19973   8.41115   8.50137  13.01195
 Alpha virt. eigenvalues --   13.10437
          Condensed to atoms (all electrons):
               1          2          3          4          5          6
     1  O    8.025399   0.391809   0.342791  -0.125369   0.006540   0.007342
     2  H    0.391809   0.318391  -0.050657   0.042790  -0.003726  -0.003030
     3  H    0.342791  -0.050657   0.482854   0.011118  -0.000081  -0.000321
     4  O   -0.125369   0.042790   0.011118   7.832202   0.302930   0.308029
     5  H    0.006540  -0.003726  -0.000081   0.302930   0.451489  -0.013993
     6  H    0.007342  -0.003030  -0.000321   0.308029  -0.013993   0.457317
 Mulliken charges:
               1
     1  O   -0.648513
     2  H    0.304423
     3  H    0.214295
     4  O   -0.371701
     5  H    0.256841
     6  H    0.244655
 Sum of Mulliken charges =  -0.00000
 Mulliken charges with hydrogens summed into heavy atoms:
               1
     1  O   -0.129795
     4  O    0.129795
 Electronic spatial extent (au):  <R**2>=            130.2546
 Charge=              0.0000 electrons
 Dipole moment (field-independent basis, Debye):
    X=             -1.3948    Y=             -4.7465    Z=             -0.0000  Tot=              4.9472
 Quadrupole moment (field-independent basis, Debye-Ang):
   XX=             -9.1130   YY=             -9.9010   ZZ=            -14.6148
   XY=             -2.8260   XZ=             -0.0000   YZ=             -0.0000
 Traceless Quadrupole moment (field-independent basis, Debye-Ang):
   XX=              2.0966   YY=              1.3086   ZZ=             -3.4052
   XY=             -2.8260   XZ=             -0.0000   YZ=             -0.0000
 Octapole moment (field-independent basis, Debye-Ang**2):
  XXX=             -1.1169  YYY=            -15.9418  ZZZ=             -0.0000  XYY=             -4.2505
  XXY=             -3.7040  XXZ=             -0.0000  XZZ=             -0.1632  YZZ=             -1.1446
  YYZ=             -0.0000  XYZ=             -0.0000
 Hexadecapole moment (field-independent basis, Debye-Ang**3):
 XXXX=            -11.3635 YYYY=            -99.2507 ZZZZ=            -11.2984 XXXY=             -1.0710
 XXXZ=             -0.0000 YYYX=             -5.1364 YYYZ=             -0.0000 ZZZX=              0.0000
 ZZZY=             -0.0000 XXYY=            -11.5482 XXZZ=             -4.4635 YYZZ=            -23.4478
 XXYZ=             -0.0000 YYXZ=             -0.0000 ZZXY=              0.6537
 N-N= 4.185339746257D+01 E-N=-4.454006579349D+02  KE= 1.521174441964D+02
 Symmetry A'   KE= 1.431567038405D+02
 Symmetry A"   KE= 8.960740355976D+00
 Leave Link  601 at Fri Aug 26 16:50:35 2022, MaxMem=   536870912 cpu:               0.2 elap:               0.1
 (Enter /usr/site/hpc/x86_64/glibc-2.17/broadwell/gaussian/g16_a.03/pgi-16.5/g16/l9999.exe)
 1\1\GINC-N041\SP\RCCSD(T)-FC\CC-pVTZ\H4O2\C7441284\26-Aug-2022\0\\#p C
 CSD(T)/cc-pVTZ\\H2O_H2O_240\\0,1\O,0,0.,-0.009833,0.\H,0,-0.799571,-0.
 580965,0.\H,0,0.799571,-0.580965,0.\O,0,-1.815021,-1.296088,0.\H,0,-2.
 734118,-0.948573,0.\H,0,-1.845682,-2.278211,0.\\Version=ES64L-G16RevA.
 03\State=1-A'\HF=-152.0751762\MP2=-152.6092008\MP3=-152.6151866\MP4D=-
 152.6240045\MP4DQ=-152.6158245\MP4SDQ=-152.619105\CCSD=-152.6183857\CC
 SD(T)=-152.6351014\RMSD=2.835e-09\PG=CS [SG(H4O2)]\\@


 Democracy is the recurrent suspicion that more than half of the people
 are right more than half of the time.
 -- E. B. White
 Job cpu time:       0 days  0 hours  1 minutes 33.2 seconds.
 Elapsed time:       0 days  0 hours  0 minutes 23.5 seconds.
 File lengths (MBytes):  RWF=    572 Int=      0 D2E=      0 Chk=      8 Scr=      8
 Normal termination of Gaussian 16 at Fri Aug 26 16:50:35 2022.
