 Entering Gaussian System, Link 0=g16
 Input=H2O_H2O_4930.com
 Output=H2O_H2O_4930.log
 Initial command:
 /usr/site/hpc/x86_64/glibc-2.17/broadwell/gaussian/g16_a.03/pgi-16.5/g16/l1.exe "/gpfs/gpfs1/scratch/c7441284/ForceFieldModel/FittingData2/Gau-1074837.inp" -scrdir="/gpfs/gpfs1/scratch/c7441284/ForceFieldModel/FittingData2/"
 Entering Link 1 = /usr/site/hpc/x86_64/glibc-2.17/broadwell/gaussian/g16_a.03/pgi-16.5/g16/l1.exe PID=   1074839.
  
 Copyright (c) 1988,1990,1992,1993,1995,1998,2003,2009,2016,
            Gaussian, Inc.  All Rights Reserved.
  
 This is part of the Gaussian(R) 16 program.  It is based on
 the Gaussian(R) 09 system (copyright 2009, Gaussian, Inc.),
 the Gaussian(R) 03 system (copyright 2003, Gaussian, Inc.),
 the Gaussian(R) 98 system (copyright 1998, Gaussian, Inc.),
 the Gaussian(R) 94 system (copyright 1995, Gaussian, Inc.),
 the Gaussian 92(TM) system (copyright 1992, Gaussian, Inc.),
 the Gaussian 90(TM) system (copyright 1990, Gaussian, Inc.),
 the Gaussian 88(TM) system (copyright 1988, Gaussian, Inc.),
 the Gaussian 86(TM) system (copyright 1986, Carnegie Mellon
 University), and the Gaussian 82(TM) system (copyright 1983,
 Carnegie Mellon University). Gaussian is a federally registered
 trademark of Gaussian, Inc.
  
 This software contains proprietary and confidential information,
 including trade secrets, belonging to Gaussian, Inc.
  
 This software is provided under written license and may be
 used, copied, transmitted, or stored only in accord with that
 written license.
  
 The following legend is applicable only to US Government
 contracts under FAR:
  
                    RESTRICTED RIGHTS LEGEND
  
 Use, reproduction and disclosure by the US Government is
 subject to restrictions as set forth in subparagraphs (a)
 and (c) of the Commercial Computer Software - Restricted
 Rights clause in FAR 52.227-19.
  
 Gaussian, Inc.
 340 Quinnipiac St., Bldg. 40, Wallingford CT 06492
  
  
 ---------------------------------------------------------------
 Warning -- This program may not be used in any manner that
 competes with the business of Gaussian, Inc. or will provide
 assistance to any competitor of Gaussian, Inc.  The licensee
 of this program is prohibited from giving any competitor of
 Gaussian, Inc. access to this program.  By using this program,
 the user acknowledges that Gaussian, Inc. is engaged in the
 business of creating and licensing software in the field of
 computational chemistry and represents and warrants to the
 licensee that it is not a competitor of Gaussian, Inc. and that
 it will not use this program in any manner prohibited above.
 ---------------------------------------------------------------
  

 Cite this work as:
 Gaussian 16, Revision A.03,
 M. J. Frisch, G. W. Trucks, H. B. Schlegel, G. E. Scuseria, 
 M. A. Robb, J. R. Cheeseman, G. Scalmani, V. Barone, 
 G. A. Petersson, H. Nakatsuji, X. Li, M. Caricato, A. V. Marenich, 
 J. Bloino, B. G. Janesko, R. Gomperts, B. Mennucci, H. P. Hratchian, 
 J. V. Ortiz, A. F. Izmaylov, J. L. Sonnenberg, D. Williams-Young, 
 F. Ding, F. Lipparini, F. Egidi, J. Goings, B. Peng, A. Petrone, 
 T. Henderson, D. Ranasinghe, V. G. Zakrzewski, J. Gao, N. Rega, 
 G. Zheng, W. Liang, M. Hada, M. Ehara, K. Toyota, R. Fukuda, 
 J. Hasegawa, M. Ishida, T. Nakajima, Y. Honda, O. Kitao, H. Nakai, 
 T. Vreven, K. Throssell, J. A. Montgomery, Jr., J. E. Peralta, 
 F. Ogliaro, M. J. Bearpark, J. J. Heyd, E. N. Brothers, K. N. Kudin, 
 V. N. Staroverov, T. A. Keith, R. Kobayashi, J. Normand, 
 K. Raghavachari, A. P. Rendell, J. C. Burant, S. S. Iyengar, 
 J. Tomasi, M. Cossi, J. M. Millam, M. Klene, C. Adamo, R. Cammi, 
 J. W. Ochterski, R. L. Martin, K. Morokuma, O. Farkas, 
 J. B. Foresman, and D. J. Fox, Gaussian, Inc., Wallingford CT, 2016.
 
 ******************************************
 Gaussian 16:  ES64L-G16RevA.03 25-Dec-2016
                28-Aug-2022 
 ******************************************
 %NProcShared=4
 Will use up to    4 processors via shared memory.
 %Mem=4GB
 %Chk=H2O_H2O_4930.chk
 ------------------
 #p CCSD(T)/cc-pVTZ
 ------------------
 1/38=1,172=1/1;
 2/12=2,17=6,18=5,40=1/2;
 3/5=16,6=1,11=9,25=1,30=1/1,2,3;
 4//1;
 5/5=2,38=5/2;
 8/6=4,9=120000,10=1/1,4;
 9/5=7,14=2/13;
 6/7=2,8=2,9=2,10=2/1;
 99/5=1,9=1/99;
 Leave Link    1 at Sun Aug 28 06:59:26 2022, MaxMem=   536870912 cpu:               1.0 elap:               0.3
 (Enter /usr/site/hpc/x86_64/glibc-2.17/broadwell/gaussian/g16_a.03/pgi-16.5/g16/l101.exe)
 ------------
 H2O_H2O_4930
 ------------
 Symbolic Z-matrix:
 Charge =  0 Multiplicity = 1
 O                     0.       -0.00983   0. 
 H                    -0.79957  -0.58097   0. 
 H                     0.79957  -0.58097   0. 
 O                    -4.86104  -3.47928   0. 
 H                    -5.80176  -3.76309   0. 
 H                    -4.28749  -4.27712   0. 
 
 ITRead=  0  0  0  0  0  0
 MicOpt= -1 -1 -1 -1 -1 -1
 NAtoms=      6 NQM=        6 NQMF=       0 NMMI=      0 NMMIF=      0
                NMic=       0 NMicF=      0.
                    Isotopes and Nuclear Properties:
 (Nuclear quadrupole moments (NQMom) in fm**2, nuclear magnetic moments (NMagM)
  in nuclear magnetons)

  Atom         1           2           3           4           5           6
 IAtWgt=          16           1           1          16           1           1
 AtmWgt=  15.9949146   1.0078250   1.0078250  15.9949146   1.0078250   1.0078250
 NucSpn=           0           1           1           0           1           1
 AtZEff=  -0.0000000  -0.0000000  -0.0000000  -0.0000000  -0.0000000  -0.0000000
 NQMom=    0.0000000   0.0000000   0.0000000   0.0000000   0.0000000   0.0000000
 NMagM=    0.0000000   2.7928460   2.7928460   0.0000000   2.7928460   2.7928460
 AtZNuc=   8.0000000   1.0000000   1.0000000   8.0000000   1.0000000   1.0000000
 Leave Link  101 at Sun Aug 28 06:59:26 2022, MaxMem=   536870912 cpu:               0.6 elap:               0.2
 (Enter /usr/site/hpc/x86_64/glibc-2.17/broadwell/gaussian/g16_a.03/pgi-16.5/g16/l202.exe)
                          Input orientation:                          
 ---------------------------------------------------------------------
 Center     Atomic      Atomic             Coordinates (Angstroms)
 Number     Number       Type             X           Y           Z
 ---------------------------------------------------------------------
      1          8           0        0.000000   -0.009833    0.000000
      2          1           0       -0.799571   -0.580965    0.000000
      3          1           0        0.799571   -0.580965    0.000000
      4          8           0       -4.861039   -3.479282    0.000000
      5          1           0       -5.801761   -3.763091    0.000000
      6          1           0       -4.287485   -4.277118    0.000000
 ---------------------------------------------------------------------
                    Distance matrix (angstroms):
                    1          2          3          4          5
     1  O    0.000000
     2  H    0.982601   0.000000
     3  H    0.982601   1.599142   0.000000
     4  O    5.972167   4.989565   6.359461   0.000000
     5  H    6.909948   5.928561   7.328268   0.982601   0.000000
     6  H    6.049153   5.082036   6.288059   0.982602   1.599142
                    6
     6  H    0.000000
 Stoichiometry    H4O2
 Framework group  CS[SG(H4O2)]
 Deg. of freedom     9
 Full point group                 CS      NOp   2
 Largest Abelian subgroup         CS      NOp   2
 Largest concise Abelian subgroup C1      NOp   1
                         Standard orientation:                         
 ---------------------------------------------------------------------
 Center     Atomic      Atomic             Coordinates (Angstroms)
 Number     Number       Type             X           Y           Z
 ---------------------------------------------------------------------
      1          8           0        0.079842    3.065624    0.000000
      2          1           0        0.079470    2.083022    0.000000
      3          1           0       -0.849530    3.384642    0.000000
      4          8           0        0.079842   -2.906543   -0.000000
      5          1           0        0.395336   -3.837118   -0.000000
      6          1           0       -0.902754   -2.903191   -0.000000
 ---------------------------------------------------------------------
 Rotational constants (GHZ):         270.9292376           1.5566416           1.5477489
 Leave Link  202 at Sun Aug 28 06:59:26 2022, MaxMem=   536870912 cpu:               0.0 elap:               0.0
 (Enter /usr/site/hpc/x86_64/glibc-2.17/broadwell/gaussian/g16_a.03/pgi-16.5/g16/l301.exe)
 Standard basis: CC-pVTZ (5D, 7F)
 Ernie: Thresh=  0.10000D-02 Tol=  0.10000D-05 Strict=F.
 Ernie:  6 primitive shells out of 84 were deleted.
 There are    92 symmetry adapted cartesian basis functions of A'  symmetry.
 There are    38 symmetry adapted cartesian basis functions of A"  symmetry.
 There are    80 symmetry adapted basis functions of A'  symmetry.
 There are    36 symmetry adapted basis functions of A"  symmetry.
   116 basis functions,   172 primitive gaussians,   130 cartesian basis functions
    10 alpha electrons       10 beta electrons
       nuclear repulsion energy        26.7425838059 Hartrees.
 IExCor=    0 DFT=F Ex=HF Corr=None ExCW=0 ScaHFX=  1.000000
 ScaDFX=  1.000000  1.000000  1.000000  1.000000 ScalE2=  1.000000  1.000000
 IRadAn=      5 IRanWt=     -1 IRanGd=            0 ICorTp=0 IEmpDi=  4
 NAtoms=    6 NActive=    6 NUniq=    6 SFac= 1.00D+00 NAtFMM=   60 NAOKFM=F Big=F
 Integral buffers will be    131072 words long.
 Raffenetti 1 integral format.
 Two-electron integral symmetry is turned on.
 Leave Link  301 at Sun Aug 28 06:59:27 2022, MaxMem=   536870912 cpu:               0.2 elap:               0.0
 (Enter /usr/site/hpc/x86_64/glibc-2.17/broadwell/gaussian/g16_a.03/pgi-16.5/g16/l302.exe)
 NPDir=0 NMtPBC=     1 NCelOv=     1 NCel=       1 NClECP=     1 NCelD=      1
         NCelK=      1 NCelE2=     1 NClLst=     1 CellRange=     0.0.
 One-electron integrals computed using PRISM.
 One-electron integral symmetry used in STVInt
 NBasis=   116 RedAO= T EigKep=  2.67D-03  NBF=    80    36
 NBsUse=   116 1.00D-06 EigRej= -1.00D+00 NBFU=    80    36
 Leave Link  302 at Sun Aug 28 06:59:27 2022, MaxMem=   536870912 cpu:               0.5 elap:               0.1
 (Enter /usr/site/hpc/x86_64/glibc-2.17/broadwell/gaussian/g16_a.03/pgi-16.5/g16/l303.exe)
 DipDrv:  MaxL=1.
 Leave Link  303 at Sun Aug 28 06:59:27 2022, MaxMem=   536870912 cpu:               0.1 elap:               0.0
 (Enter /usr/site/hpc/x86_64/glibc-2.17/broadwell/gaussian/g16_a.03/pgi-16.5/g16/l401.exe)
 ExpMin= 1.03D-01 ExpMax= 1.53D+04 ExpMxC= 5.22D+02 IAcc=3 IRadAn=         5 AccDes= 0.00D+00
 Harris functional with IExCor=  205 and IRadAn=       5 diagonalized for initial guess.
 HarFok:  IExCor=  205 AccDes= 0.00D+00 IRadAn=         5 IDoV= 1 UseB2=F ITyADJ=14
 ICtDFT=  3500011 ScaDFX=  1.000000  1.000000  1.000000  1.000000
 FoFCou: FMM=F IPFlag=           0 FMFlag=      100000 FMFlg1=           0
         NFxFlg=           0 DoJE=T BraDBF=F KetDBF=T FulRan=T
         wScrn=  0.000000 ICntrl=       500 IOpCl=  0 I1Cent=   200000004 NGrid=           0
         NMat0=    1 NMatS0=      1 NMatT0=    0 NMatD0=    1 NMtDS0=    0 NMtDT0=    0
 Petite list used in FoFCou.
 Harris En= -152.298677054943    
 JPrj=0 DoOrth=F DoCkMO=F.
 Initial guess orbital symmetries:
       Occupied  (A') (A') (A') (A') (A') (A') (A') (A') (A") (A")
       Virtual   (A') (A') (A') (A') (A') (A') (A') (A') (A') (A')
                 (A") (A") (A') (A') (A') (A') (A") (A") (A") (A")
                 (A') (A') (A') (A') (A') (A') (A') (A') (A") (A")
                 (A") (A") (A') (A') (A') (A') (A') (A') (A') (A')
                 (A') (A') (A") (A") (A') (A') (A") (A") (A") (A")
                 (A') (A') (A') (A') (A') (A') (A") (A") (A') (A')
                 (A') (A') (A") (A") (A") (A") (A') (A') (A') (A')
                 (A") (A") (A') (A') (A') (A') (A') (A') (A') (A')
                 (A") (A") (A') (A') (A") (A") (A") (A") (A') (A')
                 (A") (A") (A') (A') (A') (A') (A") (A") (A') (A')
                 (A') (A') (A') (A') (A') (A')
 The electronic state of the initial guess is 1-A'.
 Leave Link  401 at Sun Aug 28 06:59:27 2022, MaxMem=   536870912 cpu:               0.9 elap:               0.2
 (Enter /usr/site/hpc/x86_64/glibc-2.17/broadwell/gaussian/g16_a.03/pgi-16.5/g16/l502.exe)
 Keep R1 ints in memory in symmetry-blocked form, NReq=34823457.
 FoFCou: FMM=F IPFlag=           0 FMFlag=           0 FMFlg1=           0
         NFxFlg=           0 DoJE=F BraDBF=F KetDBF=F FulRan=T
         wScrn=  0.000000 ICntrl=       600 IOpCl=  0 I1Cent=           0 NGrid=           0
         NMat0=    1 NMatS0=   6786 NMatT0=    0 NMatD0=    1 NMtDS0=    0 NMtDT0=    0
 Petite list used in FoFCou.
 Closed shell SCF:
 Using DIIS extrapolation, IDIIS=  1040.
 NGot=   536870912 LenX=   525040673 LenY=   525023332
 Requested convergence on RMS density matrix=1.00D-08 within 128 cycles.
 Requested convergence on MAX density matrix=1.00D-06.
 Requested convergence on             energy=1.00D-06.
 No special actions if energy rises.

 Cycle   1  Pass 1  IDiag  1:
 E= -151.927847491184    
 DIIS: error= 6.53D-02 at cycle   1 NSaved=   1.
 NSaved= 1 IEnMin= 1 EnMin= -151.927847491184     IErMin= 1 ErrMin= 6.53D-02
 ErrMax= 6.53D-02  0.00D+00 EMaxC= 1.00D-01 BMatC= 4.00D-01 BMatP= 4.00D-01
 IDIUse=3 WtCom= 3.47D-01 WtEn= 6.53D-01
 Coeff-Com:  0.100D+01
 Coeff-En:   0.100D+01
 Coeff:      0.100D+01
 Gap=     0.515 Goal=   None    Shift=    0.000
 GapD=    0.515 DampG=2.000 DampE=0.500 DampFc=1.0000 IDamp=-1.
 RMSDP=2.50D-03 MaxDP=6.66D-02              OVMax= 1.27D-01

 Cycle   2  Pass 1  IDiag  1:
 E= -152.039528769893     Delta-E=       -0.111681278710 Rises=F Damp=F
 DIIS: error= 4.10D-02 at cycle   2 NSaved=   2.
 NSaved= 2 IEnMin= 2 EnMin= -152.039528769893     IErMin= 2 ErrMin= 4.10D-02
 ErrMax= 4.10D-02  0.00D+00 EMaxC= 1.00D-01 BMatC= 1.13D-01 BMatP= 4.00D-01
 IDIUse=3 WtCom= 5.90D-01 WtEn= 4.10D-01
 Coeff-Com:  0.319D+00 0.681D+00
 Coeff-En:   0.166D+00 0.834D+00
 Coeff:      0.256D+00 0.744D+00
 Gap=     0.654 Goal=   None    Shift=    0.000
 RMSDP=1.32D-03 MaxDP=3.96D-02 DE=-1.12D-01 OVMax= 5.71D-02

 Cycle   3  Pass 1  IDiag  1:
 E= -152.104143167675     Delta-E=       -0.064614397782 Rises=F Damp=F
 DIIS: error= 8.84D-03 at cycle   3 NSaved=   3.
 NSaved= 3 IEnMin= 3 EnMin= -152.104143167675     IErMin= 3 ErrMin= 8.84D-03
 ErrMax= 8.84D-03  0.00D+00 EMaxC= 1.00D-01 BMatC= 5.91D-03 BMatP= 1.13D-01
 IDIUse=3 WtCom= 9.12D-01 WtEn= 8.84D-02
 Coeff-Com: -0.304D-01 0.155D+00 0.876D+00
 Coeff-En:   0.000D+00 0.000D+00 0.100D+01
 Coeff:     -0.277D-01 0.141D+00 0.887D+00
 Gap=     0.626 Goal=   None    Shift=    0.000
 RMSDP=2.42D-04 MaxDP=5.67D-03 DE=-6.46D-02 OVMax= 1.33D-02

 Cycle   4  Pass 1  IDiag  1:
 E= -152.107829643232     Delta-E=       -0.003686475556 Rises=F Damp=F
 DIIS: error= 8.37D-04 at cycle   4 NSaved=   4.
 NSaved= 4 IEnMin= 4 EnMin= -152.107829643232     IErMin= 4 ErrMin= 8.37D-04
 ErrMax= 8.37D-04  0.00D+00 EMaxC= 1.00D-01 BMatC= 3.66D-05 BMatP= 5.91D-03
 IDIUse=3 WtCom= 9.92D-01 WtEn= 8.37D-03
 Coeff-Com:  0.681D-02-0.610D-01-0.240D+00 0.129D+01
 Coeff-En:   0.000D+00 0.000D+00 0.000D+00 0.100D+01
 Coeff:      0.675D-02-0.605D-01-0.238D+00 0.129D+01
 Gap=     0.629 Goal=   None    Shift=    0.000
 RMSDP=5.16D-05 MaxDP=1.03D-03 DE=-3.69D-03 OVMax= 2.23D-03

 Cycle   5  Pass 1  IDiag  1:
 E= -152.107879314916     Delta-E=       -0.000049671684 Rises=F Damp=F
 DIIS: error= 1.92D-04 at cycle   5 NSaved=   5.
 NSaved= 5 IEnMin= 5 EnMin= -152.107879314916     IErMin= 5 ErrMin= 1.92D-04
 ErrMax= 1.92D-04  0.00D+00 EMaxC= 1.00D-01 BMatC= 1.35D-06 BMatP= 3.66D-05
 IDIUse=3 WtCom= 9.98D-01 WtEn= 1.92D-03
 Coeff-Com:  0.530D-03 0.502D-03-0.249D-02-0.222D+00 0.122D+01
 Coeff-En:   0.000D+00 0.000D+00 0.000D+00 0.000D+00 0.100D+01
 Coeff:      0.529D-03 0.501D-03-0.249D-02-0.222D+00 0.122D+01
 Gap=     0.630 Goal=   None    Shift=    0.000
 RMSDP=1.42D-05 MaxDP=2.89D-04 DE=-4.97D-05 OVMax= 6.87D-04

 Cycle   6  Pass 1  IDiag  1:
 E= -152.107882127186     Delta-E=       -0.000002812271 Rises=F Damp=F
 DIIS: error= 2.80D-05 at cycle   6 NSaved=   6.
 NSaved= 6 IEnMin= 6 EnMin= -152.107882127186     IErMin= 6 ErrMin= 2.80D-05
 ErrMax= 2.80D-05  0.00D+00 EMaxC= 1.00D-01 BMatC= 3.31D-08 BMatP= 1.35D-06
 IDIUse=1 WtCom= 1.00D+00 WtEn= 0.00D+00
 Coeff-Com: -0.269D-03 0.154D-02 0.665D-02 0.223D-02-0.262D+00 0.125D+01
 Coeff:     -0.269D-03 0.154D-02 0.665D-02 0.223D-02-0.262D+00 0.125D+01
 Gap=     0.630 Goal=   None    Shift=    0.000
 RMSDP=3.00D-06 MaxDP=6.54D-05 DE=-2.81D-06 OVMax= 1.52D-04

 Cycle   7  Pass 1  IDiag  1:
 E= -152.107882221481     Delta-E=       -0.000000094295 Rises=F Damp=F
 DIIS: error= 5.33D-06 at cycle   7 NSaved=   7.
 NSaved= 7 IEnMin= 7 EnMin= -152.107882221481     IErMin= 7 ErrMin= 5.33D-06
 ErrMax= 5.33D-06  0.00D+00 EMaxC= 1.00D-01 BMatC= 1.72D-09 BMatP= 3.31D-08
 IDIUse=1 WtCom= 1.00D+00 WtEn= 0.00D+00
 Coeff-Com:  0.294D-04-0.378D-03-0.153D-02 0.134D-01-0.136D-01-0.219D+00
 Coeff-Com:  0.122D+01
 Coeff:      0.294D-04-0.378D-03-0.153D-02 0.134D-01-0.136D-01-0.219D+00
 Coeff:      0.122D+01
 Gap=     0.630 Goal=   None    Shift=    0.000
 RMSDP=4.32D-07 MaxDP=8.80D-06 DE=-9.43D-08 OVMax= 2.97D-05

 Cycle   8  Pass 1  IDiag  1:
 E= -152.107882225136     Delta-E=       -0.000000003655 Rises=F Damp=F
 DIIS: error= 1.58D-06 at cycle   8 NSaved=   8.
 NSaved= 8 IEnMin= 8 EnMin= -152.107882225136     IErMin= 8 ErrMin= 1.58D-06
 ErrMax= 1.58D-06  0.00D+00 EMaxC= 1.00D-01 BMatC= 1.10D-10 BMatP= 1.72D-09
 IDIUse=1 WtCom= 1.00D+00 WtEn= 0.00D+00
 Coeff-Com:  0.933D-05-0.146D-04-0.481D-04-0.296D-02 0.179D-01-0.280D-01
 Coeff-Com: -0.213D+00 0.123D+01
 Coeff:      0.933D-05-0.146D-04-0.481D-04-0.296D-02 0.179D-01-0.280D-01
 Coeff:     -0.213D+00 0.123D+01
 Gap=     0.630 Goal=   None    Shift=    0.000
 RMSDP=1.05D-07 MaxDP=2.05D-06 DE=-3.66D-09 OVMax= 6.74D-06

 Cycle   9  Pass 1  IDiag  1:
 E= -152.107882225354     Delta-E=       -0.000000000218 Rises=F Damp=F
 DIIS: error= 4.62D-07 at cycle   9 NSaved=   9.
 NSaved= 9 IEnMin= 9 EnMin= -152.107882225354     IErMin= 9 ErrMin= 4.62D-07
 ErrMax= 4.62D-07  0.00D+00 EMaxC= 1.00D-01 BMatC= 1.77D-11 BMatP= 1.10D-10
 IDIUse=1 WtCom= 1.00D+00 WtEn= 0.00D+00
 Coeff-Com:  0.648D-06 0.292D-04 0.123D-03-0.230D-02 0.795D-02 0.799D-02
 Coeff-Com: -0.174D+00 0.401D+00 0.759D+00
 Coeff:      0.648D-06 0.292D-04 0.123D-03-0.230D-02 0.795D-02 0.799D-02
 Coeff:     -0.174D+00 0.401D+00 0.759D+00
 Gap=     0.630 Goal=   None    Shift=    0.000
 RMSDP=2.29D-08 MaxDP=5.13D-07 DE=-2.18D-10 OVMax= 1.53D-06

 Cycle  10  Pass 1  IDiag  1:
 E= -152.107882225371     Delta-E=       -0.000000000017 Rises=F Damp=F
 DIIS: error= 9.78D-08 at cycle  10 NSaved=  10.
 NSaved=10 IEnMin=10 EnMin= -152.107882225371     IErMin=10 ErrMin= 9.78D-08
 ErrMax= 9.78D-08  0.00D+00 EMaxC= 1.00D-01 BMatC= 4.74D-13 BMatP= 1.77D-11
 IDIUse=1 WtCom= 1.00D+00 WtEn= 0.00D+00
 Coeff-Com: -0.578D-06-0.434D-05-0.213D-04 0.554D-03-0.203D-02-0.165D-02
 Coeff-Com:  0.505D-01-0.162D+00-0.158D+00 0.127D+01
 Coeff:     -0.578D-06-0.434D-05-0.213D-04 0.554D-03-0.203D-02-0.165D-02
 Coeff:      0.505D-01-0.162D+00-0.158D+00 0.127D+01
 Gap=     0.630 Goal=   None    Shift=    0.000
 RMSDP=7.06D-09 MaxDP=2.06D-07 DE=-1.69D-11 OVMax= 4.21D-07

 SCF Done:  E(RHF) =  -152.107882225     A.U. after   10 cycles
            NFock= 10  Conv=0.71D-08     -V/T= 2.0020
 KE= 1.518040421128D+02 PE=-4.148846501960D+02 EE= 8.423014205200D+01
 Leave Link  502 at Sun Aug 28 06:59:28 2022, MaxMem=   536870912 cpu:               4.0 elap:               1.1
 (Enter /usr/site/hpc/x86_64/glibc-2.17/broadwell/gaussian/g16_a.03/pgi-16.5/g16/l801.exe)
 Windowed orbitals will be sorted by symmetry type.
 ExpMin= 1.03D-01 ExpMax= 1.53D+04 ExpMxC= 5.22D+02 IAcc=3 IRadAn=         5 AccDes= 0.00D+00
 HarFok:  IExCor=  205 AccDes= 0.00D+00 IRadAn=         5 IDoV=-2 UseB2=F ITyADJ=14
 ICtDFT= 12500011 ScaDFX=  1.000000  1.000000  1.000000  1.000000
 Largest valence mixing into a core orbital is  1.12D-04
 Largest core mixing into a valence orbital is  1.76D-05
 Range of M.O.s used for correlation:     3   116
 NBasis=   116 NAE=    10 NBE=    10 NFC=     2 NFV=     0
 NROrb=    114 NOA=     8 NOB=     8 NVA=   106 NVB=   106
 Leave Link  801 at Sun Aug 28 06:59:28 2022, MaxMem=   536870912 cpu:               0.4 elap:               0.1
 (Enter /usr/site/hpc/x86_64/glibc-2.17/broadwell/gaussian/g16_a.03/pgi-16.5/g16/l804.exe)
 Closed-shell transformation, MDV=   536870912 ITran=4 ISComp=2.
 Unit  1 TFree=        834515 TCopy=        406125.
 Semi-Direct transformation.
 ModeAB=           4 MOrb=             8 LenV=     536379374
 LASXX=      2873146 LTotXX=     2873146 LenRXX=     5831278
 LTotAB=     2958132 MaxLAS=     5109024 LenRXY=           0
 NonZer=     8704424 LenScr=    13107200 LnRSAI=     5109024
 LnScr1=     7864320 LExtra=           0 Total=     31911822
 MaxDsk=          -1 SrtSym=           T ITran=            4
 DoSDTr:  NPSUse=  4
 JobTyp=0 Pass  1:  I=   1 to   8.
 (rs|ai) integrals will be sorted in core.
 Complete sort for first half transformation.
 First half transformation complete.
 Complete sort for second half transformation.
 Second half transformation complete.
 Spin components of T(2) and E(2):
     alpha-alpha T2 =       0.1555473702D-01 E2=     -0.6379592636D-01
     alpha-beta  T2 =       0.9187307847D-01 E2=     -0.3982488699D+00
     beta-beta   T2 =       0.1555473702D-01 E2=     -0.6379592636D-01
 ANorm=    0.1059708711D+01
 E2 =    -0.5258407226D+00 EUMP2 =    -0.15263372294796D+03
 Leave Link  804 at Sun Aug 28 06:59:29 2022, MaxMem=   536870912 cpu:               3.1 elap:               0.8
 (Enter /usr/site/hpc/x86_64/glibc-2.17/broadwell/gaussian/g16_a.03/pgi-16.5/g16/l913.exe)
 CIDS:  MDV=   536870912.
 Frozen-core window:  NFC=   2 NFV=   0.
 IFCWin=0 IBDFC=1 NFBD=     0     0 NFCmp=     0     0 NFFFC=     0     0
 Using DD3R+UMP44R for 1st iteration.
 Using DD4RQ for 2nd and later iterations.
 Keep R2 and R3 ints in memory in symmetry-blocked form, NReq=35357534.
 FoFCou: FMM=F IPFlag=           0 FMFlag=           0 FMFlg1=           0
         NFxFlg=           0 DoJE=F BraDBF=F KetDBF=F FulRan=T
         wScrn=  0.000000 ICntrl=       600 IOpCl=  0 I1Cent=           0 NGrid=           0
         NMat0=    1 NMatS0=   6786 NMatT0=    0 NMatD0=    1 NMtDS0=    0 NMtDT0=    0
 Petite list used in FoFCou.
 CIDS: In Core Option IDoMem=           1.
 CCSD(T)
 =======
 Iterations=  50 Convergence= 0.100D-06
 Produce multiple copies of IABC intergrals
 Iteration Nr.   1
 **********************
 DD1Dir will call FoFMem   1 times, MxPair=        72
 NAB=    36 NAA=     0 NBB=     0.
 MP4(R+Q)=  0.75487671D-02
 Maximum subspace dimension=  5
 A-vector RMS=  1.7394149D-03 Max=  6.1878568D-03 conv= 1.00D-05.
 RLE energy=       -0.5257952685
 E3=       -0.75742984D-02        EUMP3=      -0.15264129725D+03
 E4(DQ)=   -0.15501203D-02        UMP4(DQ)=   -0.15264284737D+03
 E4(SDQ)=  -0.46010452D-02        UMP4(SDQ)=  -0.15264589829D+03
 VARIATIONAL ENERGIES WITH THE FIRST-ORDER WAVEFUNCTION:
 DE(Corr)= -0.52579527     E(Corr)=     -152.63367750    
 NORM(A)=   0.10600783D+01
 Iteration Nr.   2
 **********************
 DD1Dir will call FoFMem   1 times, MxPair=        72
 NAB=    36 NAA=     0 NBB=     0.
 A-vector RMS=  2.1240612D-04 Max=  2.3206632D-03 conv= 1.00D-05.
 RLE energy=       -0.5368475930
 DE(Corr)= -0.53568735     E(CORR)=     -152.64356958     Delta=-9.89D-03
 NORM(A)=   0.10638221D+01
 Iteration Nr.   3
 **********************
 DD1Dir will call FoFMem   1 times, MxPair=        72
 NAB=    36 NAA=     0 NBB=     0.
 A-vector RMS=  1.4061101D-04 Max=  8.5784395D-04 conv= 1.00D-05.
 RLE energy=       -0.5373427290
 DE(Corr)= -0.53675781     E(CORR)=     -152.64464003     Delta=-1.07D-03
 NORM(A)=   0.10644592D+01
 Iteration Nr.   4
 **********************
 DD1Dir will call FoFMem   1 times, MxPair=        72
 NAB=    36 NAA=     0 NBB=     0.
 A-vector RMS=  2.5771724D-05 Max=  1.3900004D-04 conv= 1.00D-05.
 RLE energy=       -0.5374259072
 DE(Corr)= -0.53739062     E(CORR)=     -152.64527284     Delta=-6.33D-04
 NORM(A)=   0.10645697D+01
 Iteration Nr.   5
 **********************
 DD1Dir will call FoFMem   1 times, MxPair=        72
 NAB=    36 NAA=     0 NBB=     0.
 A-vector RMS=  1.8651159D-05 Max=  1.5937497D-04 conv= 1.00D-05.
 RLE energy=       -0.5374341621
 DE(Corr)= -0.53742744     E(CORR)=     -152.64530966     Delta=-3.68D-05
 NORM(A)=   0.10645791D+01
 Iteration Nr.   6
 **********************
 DD1Dir will call FoFMem   1 times, MxPair=        72
 NAB=    36 NAA=     0 NBB=     0.
 A-vector RMS=  5.5122512D-06 Max=  4.2500991D-05 conv= 1.00D-05.
 RLE energy=       -0.5374250424
 DE(Corr)= -0.53743060     E(CORR)=     -152.64531282     Delta=-3.16D-06
 NORM(A)=   0.10645792D+01
 Iteration Nr.   7
 **********************
 DD1Dir will call FoFMem   1 times, MxPair=        72
 NAB=    36 NAA=     0 NBB=     0.
 A-vector RMS=  2.6495353D-06 Max=  2.2886443D-05 conv= 1.00D-05.
 RLE energy=       -0.5374317610
 DE(Corr)= -0.53743074     E(CORR)=     -152.64531297     Delta=-1.45D-07
 NORM(A)=   0.10645815D+01
 Iteration Nr.   8
 **********************
 DD1Dir will call FoFMem   1 times, MxPair=        72
 NAB=    36 NAA=     0 NBB=     0.
 A-vector RMS=  5.2683739D-07 Max=  4.4375639D-06 conv= 1.00D-05.
 RLE energy=       -0.5374301511
 DE(Corr)= -0.53743032     E(CORR)=     -152.64531254     Delta= 4.28D-07
 NORM(A)=   0.10645817D+01
 Iteration Nr.   9
 **********************
 DD1Dir will call FoFMem   1 times, MxPair=        72
 NAB=    36 NAA=     0 NBB=     0.
 A-vector RMS=  1.2734532D-07 Max=  8.2629115D-07 conv= 1.00D-05.
 RLE energy=       -0.5374306203
 DE(Corr)= -0.53743060     E(CORR)=     -152.64531283     Delta=-2.84D-07
 NORM(A)=   0.10645819D+01
 Iteration Nr.  10
 **********************
 DD1Dir will call FoFMem   1 times, MxPair=        72
 NAB=    36 NAA=     0 NBB=     0.
 A-vector RMS=  4.7103512D-08 Max=  3.6118253D-07 conv= 1.00D-05.
 RLE energy=       -0.5374306049
 DE(Corr)= -0.53743058     E(CORR)=     -152.64531281     Delta= 1.91D-08
 NORM(A)=   0.10645819D+01
 CI/CC converged in   10 iterations to DelEn= 1.91D-08 Conv= 1.00D-07 ErrA1= 4.71D-08 Conv= 1.00D-05
 Wavefunction amplitudes converged. E(Corr)=     -152.64531281    
 Largest amplitude= 4.79D-02
 IPart=  2 IA=    7   11.05% done.
 IPart=  2 IA=   13   21.46% done.
 IPart=  4 IA=   19   31.21% done.
 IPart=  1 IA=   25   40.32% done.
 IPart=  1 IA=   32   50.13% done.
 IPart=  1 IA=   40   60.27% done.
 IPart=  3 IA=   49   70.30% done.
 IPart=  2 IA=   60   80.58% done.
 IPart=  3 IA=   74   90.51% done.
 Time for triples=       49.96 seconds.
 T4(CCSD)= -0.16022252D-01
 T5(CCSD)=  0.40201017D-03
 CCSD(T)= -0.15266093305D+03
 Discarding MO integrals.
 Leave Link  913 at Sun Aug 28 06:59:48 2022, MaxMem=   536870912 cpu:              74.4 elap:              19.0
 (Enter /usr/site/hpc/x86_64/glibc-2.17/broadwell/gaussian/g16_a.03/pgi-16.5/g16/l601.exe)
 Copying SCF densities to generalized density rwf, IOpCl= 0 IROHF=0.

 **********************************************************************

            Population analysis using the SCF density.

 **********************************************************************

 Orbital symmetries:
       Occupied  (A') (A') (A') (A') (A') (A') (A') (A') (A") (A")
       Virtual   (A') (A') (A') (A') (A') (A') (A') (A') (A') (A')
                 (A") (A") (A') (A') (A') (A') (A") (A") (A") (A")
                 (A') (A') (A') (A') (A') (A') (A') (A') (A") (A")
                 (A") (A") (A') (A') (A') (A') (A') (A') (A') (A')
                 (A') (A') (A") (A") (A') (A') (A") (A") (A') (A')
                 (A") (A") (A') (A') (A') (A') (A") (A") (A") (A")
                 (A') (A') (A') (A') (A") (A") (A') (A') (A') (A')
                 (A") (A") (A') (A') (A') (A') (A') (A') (A') (A')
                 (A") (A") (A') (A') (A") (A") (A") (A") (A') (A')
                 (A") (A") (A') (A') (A') (A') (A") (A") (A') (A')
                 (A') (A') (A') (A') (A') (A')
 The electronic state is 1-A'.
 Alpha  occ. eigenvalues --  -20.56131 -20.55195  -1.33433  -1.32498  -0.70842
 Alpha  occ. eigenvalues --   -0.69897  -0.56902  -0.55956  -0.50547  -0.49614
 Alpha virt. eigenvalues --    0.13375   0.14636   0.19477   0.20958   0.53582
 Alpha virt. eigenvalues --    0.54744   0.56663   0.57649   0.67091   0.68387
 Alpha virt. eigenvalues --    0.78339   0.79253   0.79716   0.80760   0.81879
 Alpha virt. eigenvalues --    0.82642   0.84247   0.85173   0.96667   0.97591
 Alpha virt. eigenvalues --    1.14019   1.15239   1.16613   1.17488   1.51080
 Alpha virt. eigenvalues --    1.51382   1.52082   1.52427   2.00066   2.01002
 Alpha virt. eigenvalues --    2.06130   2.07071   2.08751   2.09797   2.14248
 Alpha virt. eigenvalues --    2.15195   2.24397   2.25365   2.60884   2.61876
 Alpha virt. eigenvalues --    2.92185   2.93361   3.38767   3.39704   3.49325
 Alpha virt. eigenvalues --    3.50266   3.52527   3.53456   3.58900   3.59851
 Alpha virt. eigenvalues --    3.78057   3.78992   3.84818   3.85765   3.87022
 Alpha virt. eigenvalues --    3.87959   3.92974   3.93915   4.02433   4.03369
 Alpha virt. eigenvalues --    4.07586   4.08543   4.14648   4.15636   4.29510
 Alpha virt. eigenvalues --    4.30450   4.39289   4.40241   4.44968   4.45914
 Alpha virt. eigenvalues --    4.65913   4.66845   4.80259   4.81256   5.03616
 Alpha virt. eigenvalues --    5.04560   5.23464   5.24406   5.53435   5.54361
 Alpha virt. eigenvalues --    5.97304   5.98241   6.39773   6.40709   6.85557
 Alpha virt. eigenvalues --    6.86497   6.89041   6.89979   6.93972   6.94916
 Alpha virt. eigenvalues --    6.98499   6.99437   7.07268   7.08209   7.11886
 Alpha virt. eigenvalues --    7.12811   7.17665   7.18608   7.46561   7.47516
 Alpha virt. eigenvalues --    7.69695   7.70636   8.14450   8.15401  12.48668
 Alpha virt. eigenvalues --   12.49627
          Condensed to atoms (all electrons):
               1          2          3          4          5          6
     1  O    7.819044   0.346486   0.345513  -0.000000   0.000000   0.000000
     2  H    0.346486   0.431718  -0.036564   0.000021  -0.000001  -0.000002
     3  H    0.345513  -0.036564   0.438377  -0.000000   0.000000   0.000000
     4  O   -0.000000   0.000021  -0.000000   7.818866   0.347559   0.345419
     5  H    0.000000  -0.000001   0.000000   0.347559   0.431155  -0.036547
     6  H    0.000000  -0.000002   0.000000   0.345419  -0.036547   0.437070
 Mulliken charges:
               1
     1  O   -0.511042
     2  H    0.258341
     3  H    0.252674
     4  O   -0.511865
     5  H    0.257833
     6  H    0.254059
 Sum of Mulliken charges =  -0.00000
 Mulliken charges with hydrogens summed into heavy atoms:
               1
     1  O   -0.000027
     4  O    0.000027
 Electronic spatial extent (au):  <R**2>=            679.2594
 Charge=             -0.0000 electrons
 Dipole moment (field-independent basis, Debye):
    X=             -2.7408    Y=             -2.7833    Z=              0.0000  Tot=              3.9063
 Quadrupole moment (field-independent basis, Debye-Ang):
   XX=            -10.0928   YY=             -7.3548   ZZ=            -14.7129
   XY=             -3.5346   XZ=             -0.0000   YZ=              0.0000
 Traceless Quadrupole moment (field-independent basis, Debye-Ang):
   XX=              0.6274   YY=              3.3654   ZZ=             -3.9928
   XY=             -3.5346   XZ=             -0.0000   YZ=              0.0000
 Octapole moment (field-independent basis, Debye-Ang**2):
  XXX=             -3.6835  YYY=            -72.1890  ZZZ=              0.0000  XYY=            -24.2815
  XXY=             -1.8907  XXZ=              0.0000  XZZ=             -0.3591  YZZ=             -0.3771
  YYZ=             -0.0000  XYZ=             -0.0000
 Hexadecapole moment (field-independent basis, Debye-Ang**3):
 XXXX=            -11.3091 YYYY=           -507.2415 ZZZZ=            -11.3377 XXXY=              1.0933
 XXXZ=              0.0000 YYYX=            -76.6701 YYYZ=             -0.0000 ZZZX=              0.0000
 ZZZY=             -0.0000 XXYY=            -90.5224 XXZZ=             -4.3687 YYZZ=           -136.3583
 XXYZ=             -0.0000 YYXZ=             -0.0000 ZZXY=              0.5905
 N-N= 2.674258380590D+01 E-N=-4.148846489948D+02  KE= 1.518040421128D+02
 Symmetry A'   KE= 1.427674770907D+02
 Symmetry A"   KE= 9.036565022041D+00
 Leave Link  601 at Sun Aug 28 06:59:48 2022, MaxMem=   536870912 cpu:               0.7 elap:               0.2
 (Enter /usr/site/hpc/x86_64/glibc-2.17/broadwell/gaussian/g16_a.03/pgi-16.5/g16/l9999.exe)
 1\1\GINC-N002\SP\RCCSD(T)-FC\CC-pVTZ\H4O2\ROOT\28-Aug-2022\0\\#p CCSD(
 T)/cc-pVTZ\\H2O_H2O_4930\\0,1\O,0,0.,-0.009833,0.\H,0,-0.799571,-0.580
 965,0.\H,0,0.799571,-0.580965,0.\O,0,-4.861039,-3.479282,0.\H,0,-5.801
 761,-3.763091,0.\H,0,-4.287485,-4.277118,0.\\Version=ES64L-G16RevA.03\
 State=1-A'\HF=-152.1078822\MP2=-152.6337229\MP3=-152.6412972\MP4D=-152
 .6503961\MP4DQ=-152.6428474\MP4SDQ=-152.6458983\CCSD=-152.6453128\CCSD
 (T)=-152.660933\RMSD=7.063e-09\PG=CS [SG(H4O2)]\\@


 ACHIEVEMENT--  THE MAN WHO ROWS THE BOAT GENERALLY 
                DOESN'T HAVE TIME TO ROCK IT.

                   -- FROM THE BACK OF A SUGAR PACKET
 Job cpu time:       0 days  0 hours  1 minutes 26.2 seconds.
 Elapsed time:       0 days  0 hours  0 minutes 22.3 seconds.
 File lengths (MBytes):  RWF=    312 Int=      0 D2E=      0 Chk=      8 Scr=      8
 Normal termination of Gaussian 16 at Sun Aug 28 06:59:48 2022.
