 Entering Gaussian System, Link 0=g16
 Input=H2O_H2O_3523.com
 Output=H2O_H2O_3523.log
 Initial command:
 /usr/site/hpc/x86_64/glibc-2.17/broadwell/gaussian/g16_a.03/pgi-16.5/g16/l1.exe "/gpfs/gpfs1/scratch/c7441284/ForceFieldModel/FittingData2/Gau-539513.inp" -scrdir="/gpfs/gpfs1/scratch/c7441284/ForceFieldModel/FittingData2/"
 Entering Link 1 = /usr/site/hpc/x86_64/glibc-2.17/broadwell/gaussian/g16_a.03/pgi-16.5/g16/l1.exe PID=    539514.
  
 Copyright (c) 1988,1990,1992,1993,1995,1998,2003,2009,2016,
            Gaussian, Inc.  All Rights Reserved.
  
 This is part of the Gaussian(R) 16 program.  It is based on
 the Gaussian(R) 09 system (copyright 2009, Gaussian, Inc.),
 the Gaussian(R) 03 system (copyright 2003, Gaussian, Inc.),
 the Gaussian(R) 98 system (copyright 1998, Gaussian, Inc.),
 the Gaussian(R) 94 system (copyright 1995, Gaussian, Inc.),
 the Gaussian 92(TM) system (copyright 1992, Gaussian, Inc.),
 the Gaussian 90(TM) system (copyright 1990, Gaussian, Inc.),
 the Gaussian 88(TM) system (copyright 1988, Gaussian, Inc.),
 the Gaussian 86(TM) system (copyright 1986, Carnegie Mellon
 University), and the Gaussian 82(TM) system (copyright 1983,
 Carnegie Mellon University). Gaussian is a federally registered
 trademark of Gaussian, Inc.
  
 This software contains proprietary and confidential information,
 including trade secrets, belonging to Gaussian, Inc.
  
 This software is provided under written license and may be
 used, copied, transmitted, or stored only in accord with that
 written license.
  
 The following legend is applicable only to US Government
 contracts under FAR:
  
                    RESTRICTED RIGHTS LEGEND
  
 Use, reproduction and disclosure by the US Government is
 subject to restrictions as set forth in subparagraphs (a)
 and (c) of the Commercial Computer Software - Restricted
 Rights clause in FAR 52.227-19.
  
 Gaussian, Inc.
 340 Quinnipiac St., Bldg. 40, Wallingford CT 06492
  
  
 ---------------------------------------------------------------
 Warning -- This program may not be used in any manner that
 competes with the business of Gaussian, Inc. or will provide
 assistance to any competitor of Gaussian, Inc.  The licensee
 of this program is prohibited from giving any competitor of
 Gaussian, Inc. access to this program.  By using this program,
 the user acknowledges that Gaussian, Inc. is engaged in the
 business of creating and licensing software in the field of
 computational chemistry and represents and warrants to the
 licensee that it is not a competitor of Gaussian, Inc. and that
 it will not use this program in any manner prohibited above.
 ---------------------------------------------------------------
  

 Cite this work as:
 Gaussian 16, Revision A.03,
 M. J. Frisch, G. W. Trucks, H. B. Schlegel, G. E. Scuseria, 
 M. A. Robb, J. R. Cheeseman, G. Scalmani, V. Barone, 
 G. A. Petersson, H. Nakatsuji, X. Li, M. Caricato, A. V. Marenich, 
 J. Bloino, B. G. Janesko, R. Gomperts, B. Mennucci, H. P. Hratchian, 
 J. V. Ortiz, A. F. Izmaylov, J. L. Sonnenberg, D. Williams-Young, 
 F. Ding, F. Lipparini, F. Egidi, J. Goings, B. Peng, A. Petrone, 
 T. Henderson, D. Ranasinghe, V. G. Zakrzewski, J. Gao, N. Rega, 
 G. Zheng, W. Liang, M. Hada, M. Ehara, K. Toyota, R. Fukuda, 
 J. Hasegawa, M. Ishida, T. Nakajima, Y. Honda, O. Kitao, H. Nakai, 
 T. Vreven, K. Throssell, J. A. Montgomery, Jr., J. E. Peralta, 
 F. Ogliaro, M. J. Bearpark, J. J. Heyd, E. N. Brothers, K. N. Kudin, 
 V. N. Staroverov, T. A. Keith, R. Kobayashi, J. Normand, 
 K. Raghavachari, A. P. Rendell, J. C. Burant, S. S. Iyengar, 
 J. Tomasi, M. Cossi, J. M. Millam, M. Klene, C. Adamo, R. Cammi, 
 J. W. Ochterski, R. L. Martin, K. Morokuma, O. Farkas, 
 J. B. Foresman, and D. J. Fox, Gaussian, Inc., Wallingford CT, 2016.
 
 ******************************************
 Gaussian 16:  ES64L-G16RevA.03 25-Dec-2016
                26-Aug-2022 
 ******************************************
 %NProcShared=4
 Will use up to    4 processors via shared memory.
 %Mem=4GB
 %Chk=H2O_H2O_3523.chk
 ------------------
 #p CCSD(T)/cc-pVTZ
 ------------------
 1/38=1,172=1/1;
 2/12=2,17=6,18=5,40=1/2;
 3/5=16,6=1,11=9,25=1,30=1/1,2,3;
 4//1;
 5/5=2,38=5/2;
 8/6=4,9=120000,10=1/1,4;
 9/5=7,14=2/13;
 6/7=2,8=2,9=2,10=2/1;
 99/5=1,9=1/99;
 Leave Link    1 at Fri Aug 26 22:11:02 2022, MaxMem=   536870912 cpu:               0.2 elap:               0.1
 (Enter /usr/site/hpc/x86_64/glibc-2.17/broadwell/gaussian/g16_a.03/pgi-16.5/g16/l101.exe)
 ------------
 H2O_H2O_3523
 ------------
 Symbolic Z-matrix:
 Charge =  0 Multiplicity = 1
 O                     0.       -0.00983   0. 
 H                    -0.79957  -0.58097   0. 
 H                     0.79957  -0.58097   0. 
 O                    -3.94264  -2.80986   0. 
 H                    -4.56485  -2.04935   0. 
 H                    -4.46026  -3.64507   0. 
 
 ITRead=  0  0  0  0  0  0
 MicOpt= -1 -1 -1 -1 -1 -1
 NAtoms=      6 NQM=        6 NQMF=       0 NMMI=      0 NMMIF=      0
                NMic=       0 NMicF=      0.
                    Isotopes and Nuclear Properties:
 (Nuclear quadrupole moments (NQMom) in fm**2, nuclear magnetic moments (NMagM)
  in nuclear magnetons)

  Atom         1           2           3           4           5           6
 IAtWgt=          16           1           1          16           1           1
 AtmWgt=  15.9949146   1.0078250   1.0078250  15.9949146   1.0078250   1.0078250
 NucSpn=           0           1           1           0           1           1
 AtZEff=  -0.0000000  -0.0000000  -0.0000000  -0.0000000  -0.0000000  -0.0000000
 NQMom=    0.0000000   0.0000000   0.0000000   0.0000000   0.0000000   0.0000000
 NMagM=    0.0000000   2.7928460   2.7928460   0.0000000   2.7928460   2.7928460
 AtZNuc=   8.0000000   1.0000000   1.0000000   8.0000000   1.0000000   1.0000000
 Leave Link  101 at Fri Aug 26 22:11:02 2022, MaxMem=   536870912 cpu:               0.3 elap:               0.1
 (Enter /usr/site/hpc/x86_64/glibc-2.17/broadwell/gaussian/g16_a.03/pgi-16.5/g16/l202.exe)
                          Input orientation:                          
 ---------------------------------------------------------------------
 Center     Atomic      Atomic             Coordinates (Angstroms)
 Number     Number       Type             X           Y           Z
 ---------------------------------------------------------------------
      1          8           0        0.000000   -0.009833    0.000000
      2          1           0       -0.799571   -0.580965    0.000000
      3          1           0        0.799571   -0.580965    0.000000
      4          8           0       -3.942643   -2.809855    0.000000
      5          1           0       -4.564846   -2.049349    0.000000
      6          1           0       -4.460258   -3.645068    0.000000
 ---------------------------------------------------------------------
                    Distance matrix (angstroms):
                    1          2          3          4          5
     1  O    0.000000
     2  H    0.982601   0.000000
     3  H    0.982601   1.599142   0.000000
     4  O    4.835758   3.853161   5.239899   0.000000
     5  H    4.999744   4.041466   5.561755   0.982602   0.000000
     6  H    5.754028   4.773820   6.087243   0.982602   1.599143
                    6
     6  H    0.000000
 Stoichiometry    H4O2
 Framework group  CS[SG(H4O2)]
 Deg. of freedom     9
 Full point group                 CS      NOp   2
 Largest Abelian subgroup         CS      NOp   2
 Largest concise Abelian subgroup C1      NOp   1
                         Standard orientation:                         
 ---------------------------------------------------------------------
 Center     Atomic      Atomic             Coordinates (Angstroms)
 Number     Number       Type             X           Y           Z
 ---------------------------------------------------------------------
      1          8           0       -0.016611    2.499577    0.000000
      2          1           0       -0.013933    1.516979    0.000000
      3          1           0        0.912010    2.820776    0.000000
      4          8           0       -0.016611   -2.336181    0.000000
      5          1           0       -0.996930   -2.403118    0.000000
      6          1           0        0.364635   -3.241807    0.000000
 ---------------------------------------------------------------------
 Rotational constants (GHZ):         264.0009456           2.3615779           2.3406401
 Leave Link  202 at Fri Aug 26 22:11:02 2022, MaxMem=   536870912 cpu:               0.1 elap:               0.0
 (Enter /usr/site/hpc/x86_64/glibc-2.17/broadwell/gaussian/g16_a.03/pgi-16.5/g16/l301.exe)
 Standard basis: CC-pVTZ (5D, 7F)
 Ernie: Thresh=  0.10000D-02 Tol=  0.10000D-05 Strict=F.
 Ernie:  6 primitive shells out of 84 were deleted.
 There are    92 symmetry adapted cartesian basis functions of A'  symmetry.
 There are    38 symmetry adapted cartesian basis functions of A"  symmetry.
 There are    80 symmetry adapted basis functions of A'  symmetry.
 There are    36 symmetry adapted basis functions of A"  symmetry.
   116 basis functions,   172 primitive gaussians,   130 cartesian basis functions
    10 alpha electrons       10 beta electrons
       nuclear repulsion energy        28.8117854108 Hartrees.
 IExCor=    0 DFT=F Ex=HF Corr=None ExCW=0 ScaHFX=  1.000000
 ScaDFX=  1.000000  1.000000  1.000000  1.000000 ScalE2=  1.000000  1.000000
 IRadAn=      5 IRanWt=     -1 IRanGd=            0 ICorTp=0 IEmpDi=  4
 NAtoms=    6 NActive=    6 NUniq=    6 SFac= 1.00D+00 NAtFMM=   60 NAOKFM=F Big=F
 Integral buffers will be    131072 words long.
 Raffenetti 1 integral format.
 Two-electron integral symmetry is turned on.
 Leave Link  301 at Fri Aug 26 22:11:02 2022, MaxMem=   536870912 cpu:               0.2 elap:               0.1
 (Enter /usr/site/hpc/x86_64/glibc-2.17/broadwell/gaussian/g16_a.03/pgi-16.5/g16/l302.exe)
 NPDir=0 NMtPBC=     1 NCelOv=     1 NCel=       1 NClECP=     1 NCelD=      1
         NCelK=      1 NCelE2=     1 NClLst=     1 CellRange=     0.0.
 One-electron integrals computed using PRISM.
 One-electron integral symmetry used in STVInt
 NBasis=   116 RedAO= T EigKep=  2.60D-03  NBF=    80    36
 NBsUse=   116 1.00D-06 EigRej= -1.00D+00 NBFU=    80    36
 Leave Link  302 at Fri Aug 26 22:11:02 2022, MaxMem=   536870912 cpu:               0.4 elap:               0.1
 (Enter /usr/site/hpc/x86_64/glibc-2.17/broadwell/gaussian/g16_a.03/pgi-16.5/g16/l303.exe)
 DipDrv:  MaxL=1.
 Leave Link  303 at Fri Aug 26 22:11:02 2022, MaxMem=   536870912 cpu:               0.1 elap:               0.0
 (Enter /usr/site/hpc/x86_64/glibc-2.17/broadwell/gaussian/g16_a.03/pgi-16.5/g16/l401.exe)
 ExpMin= 1.03D-01 ExpMax= 1.53D+04 ExpMxC= 5.22D+02 IAcc=3 IRadAn=         5 AccDes= 0.00D+00
 Harris functional with IExCor=  205 and IRadAn=       5 diagonalized for initial guess.
 HarFok:  IExCor=  205 AccDes= 0.00D+00 IRadAn=         5 IDoV= 1 UseB2=F ITyADJ=14
 ICtDFT=  3500011 ScaDFX=  1.000000  1.000000  1.000000  1.000000
 FoFCou: FMM=F IPFlag=           0 FMFlag=      100000 FMFlg1=           0
         NFxFlg=           0 DoJE=T BraDBF=F KetDBF=T FulRan=T
         wScrn=  0.000000 ICntrl=       500 IOpCl=  0 I1Cent=   200000004 NGrid=           0
         NMat0=    1 NMatS0=      1 NMatT0=    0 NMatD0=    1 NMtDS0=    0 NMtDT0=    0
 Petite list used in FoFCou.
 Harris En= -152.298729961434    
 JPrj=0 DoOrth=F DoCkMO=F.
 Initial guess orbital symmetries:
       Occupied  (A') (A') (A') (A') (A') (A') (A') (A') (A") (A")
       Virtual   (A') (A') (A') (A') (A') (A') (A') (A') (A') (A')
                 (A") (A") (A') (A') (A') (A") (A") (A') (A") (A")
                 (A') (A') (A') (A') (A') (A') (A') (A') (A") (A")
                 (A") (A") (A') (A') (A') (A') (A') (A') (A') (A')
                 (A') (A') (A") (A") (A') (A') (A") (A") (A") (A")
                 (A') (A') (A') (A') (A') (A') (A") (A") (A') (A')
                 (A') (A') (A") (A") (A") (A") (A') (A') (A') (A')
                 (A") (A") (A') (A') (A') (A') (A') (A') (A') (A')
                 (A") (A") (A') (A') (A") (A") (A") (A") (A') (A')
                 (A") (A") (A') (A') (A') (A') (A") (A") (A') (A')
                 (A') (A') (A') (A') (A') (A')
 The electronic state of the initial guess is 1-A'.
 Leave Link  401 at Fri Aug 26 22:11:02 2022, MaxMem=   536870912 cpu:               0.7 elap:               0.2
 (Enter /usr/site/hpc/x86_64/glibc-2.17/broadwell/gaussian/g16_a.03/pgi-16.5/g16/l502.exe)
 Keep R1 ints in memory in symmetry-blocked form, NReq=34823457.
 FoFCou: FMM=F IPFlag=           0 FMFlag=           0 FMFlg1=           0
         NFxFlg=           0 DoJE=F BraDBF=F KetDBF=F FulRan=T
         wScrn=  0.000000 ICntrl=       600 IOpCl=  0 I1Cent=           0 NGrid=           0
         NMat0=    1 NMatS0=   6786 NMatT0=    0 NMatD0=    1 NMtDS0=    0 NMtDT0=    0
 Petite list used in FoFCou.
 Closed shell SCF:
 Using DIIS extrapolation, IDIIS=  1040.
 NGot=   536870912 LenX=   525040673 LenY=   525023332
 Requested convergence on RMS density matrix=1.00D-08 within 128 cycles.
 Requested convergence on MAX density matrix=1.00D-06.
 Requested convergence on             energy=1.00D-06.
 No special actions if energy rises.

 Cycle   1  Pass 1  IDiag  1:
 E= -151.930424117638    
 DIIS: error= 6.59D-02 at cycle   1 NSaved=   1.
 NSaved= 1 IEnMin= 1 EnMin= -151.930424117638     IErMin= 1 ErrMin= 6.59D-02
 ErrMax= 6.59D-02  0.00D+00 EMaxC= 1.00D-01 BMatC= 3.99D-01 BMatP= 3.99D-01
 IDIUse=3 WtCom= 3.41D-01 WtEn= 6.59D-01
 Coeff-Com:  0.100D+01
 Coeff-En:   0.100D+01
 Coeff:      0.100D+01
 Gap=     0.507 Goal=   None    Shift=    0.000
 GapD=    0.507 DampG=2.000 DampE=0.500 DampFc=1.0000 IDamp=-1.
 RMSDP=2.50D-03 MaxDP=6.72D-02              OVMax= 1.26D-01

 Cycle   2  Pass 1  IDiag  1:
 E= -152.041490899685     Delta-E=       -0.111066782046 Rises=F Damp=F
 DIIS: error= 4.13D-02 at cycle   2 NSaved=   2.
 NSaved= 2 IEnMin= 2 EnMin= -152.041490899685     IErMin= 2 ErrMin= 4.13D-02
 ErrMax= 4.13D-02  0.00D+00 EMaxC= 1.00D-01 BMatC= 1.12D-01 BMatP= 3.99D-01
 IDIUse=3 WtCom= 5.87D-01 WtEn= 4.13D-01
 Coeff-Com:  0.318D+00 0.682D+00
 Coeff-En:   0.165D+00 0.835D+00
 Coeff:      0.255D+00 0.745D+00
 Gap=     0.643 Goal=   None    Shift=    0.000
 RMSDP=1.33D-03 MaxDP=3.97D-02 DE=-1.11D-01 OVMax= 5.69D-02

 Cycle   3  Pass 1  IDiag  1:
 E= -152.105390756786     Delta-E=       -0.063899857101 Rises=F Damp=F
 DIIS: error= 8.97D-03 at cycle   3 NSaved=   3.
 NSaved= 3 IEnMin= 3 EnMin= -152.105390756786     IErMin= 3 ErrMin= 8.97D-03
 ErrMax= 8.97D-03  0.00D+00 EMaxC= 1.00D-01 BMatC= 5.94D-03 BMatP= 1.12D-01
 IDIUse=3 WtCom= 9.10D-01 WtEn= 8.97D-02
 Coeff-Com: -0.303D-01 0.156D+00 0.874D+00
 Coeff-En:   0.000D+00 0.000D+00 0.100D+01
 Coeff:     -0.276D-01 0.142D+00 0.885D+00
 Gap=     0.615 Goal=   None    Shift=    0.000
 RMSDP=2.42D-04 MaxDP=5.75D-03 DE=-6.39D-02 OVMax= 1.33D-02

 Cycle   4  Pass 1  IDiag  1:
 E= -152.109082511448     Delta-E=       -0.003691754662 Rises=F Damp=F
 DIIS: error= 8.47D-04 at cycle   4 NSaved=   4.
 NSaved= 4 IEnMin= 4 EnMin= -152.109082511448     IErMin= 4 ErrMin= 8.47D-04
 ErrMax= 8.47D-04  0.00D+00 EMaxC= 1.00D-01 BMatC= 3.65D-05 BMatP= 5.94D-03
 IDIUse=3 WtCom= 9.92D-01 WtEn= 8.47D-03
 Coeff-Com:  0.678D-02-0.612D-01-0.238D+00 0.129D+01
 Coeff-En:   0.000D+00 0.000D+00 0.000D+00 0.100D+01
 Coeff:      0.672D-02-0.607D-01-0.236D+00 0.129D+01
 Gap=     0.617 Goal=   None    Shift=    0.000
 RMSDP=5.18D-05 MaxDP=1.04D-03 DE=-3.69D-03 OVMax= 2.20D-03

 Cycle   5  Pass 1  IDiag  1:
 E= -152.109131426397     Delta-E=       -0.000048914949 Rises=F Damp=F
 DIIS: error= 1.92D-04 at cycle   5 NSaved=   5.
 NSaved= 5 IEnMin= 5 EnMin= -152.109131426397     IErMin= 5 ErrMin= 1.92D-04
 ErrMax= 1.92D-04  0.00D+00 EMaxC= 1.00D-01 BMatC= 1.33D-06 BMatP= 3.65D-05
 IDIUse=3 WtCom= 9.98D-01 WtEn= 1.92D-03
 Coeff-Com:  0.524D-03 0.553D-03-0.254D-02-0.224D+00 0.123D+01
 Coeff-En:   0.000D+00 0.000D+00 0.000D+00 0.000D+00 0.100D+01
 Coeff:      0.523D-03 0.552D-03-0.253D-02-0.224D+00 0.123D+01
 Gap=     0.618 Goal=   None    Shift=    0.000
 RMSDP=1.44D-05 MaxDP=3.03D-04 DE=-4.89D-05 OVMax= 6.92D-04

 Cycle   6  Pass 1  IDiag  1:
 E= -152.109134207181     Delta-E=       -0.000002780785 Rises=F Damp=F
 DIIS: error= 2.74D-05 at cycle   6 NSaved=   6.
 NSaved= 6 IEnMin= 6 EnMin= -152.109134207181     IErMin= 6 ErrMin= 2.74D-05
 ErrMax= 2.74D-05  0.00D+00 EMaxC= 1.00D-01 BMatC= 3.75D-08 BMatP= 1.33D-06
 IDIUse=1 WtCom= 1.00D+00 WtEn= 0.00D+00
 Coeff-Com: -0.218D-03 0.161D-02 0.644D-02-0.195D-01-0.137D+00 0.115D+01
 Coeff:     -0.218D-03 0.161D-02 0.644D-02-0.195D-01-0.137D+00 0.115D+01
 Gap=     0.618 Goal=   None    Shift=    0.000
 RMSDP=2.81D-06 MaxDP=6.97D-05 DE=-2.78D-06 OVMax= 1.51D-04

 Cycle   7  Pass 1  IDiag  1:
 E= -152.109134298152     Delta-E=       -0.000000090971 Rises=F Damp=F
 DIIS: error= 7.67D-06 at cycle   7 NSaved=   7.
 NSaved= 7 IEnMin= 7 EnMin= -152.109134298152     IErMin= 7 ErrMin= 7.67D-06
 ErrMax= 7.67D-06  0.00D+00 EMaxC= 1.00D-01 BMatC= 5.87D-09 BMatP= 3.75D-08
 IDIUse=1 WtCom= 1.00D+00 WtEn= 0.00D+00
 Coeff-Com: -0.856D-04 0.277D-03 0.136D-02 0.146D-01-0.130D+00 0.274D+00
 Coeff-Com:  0.839D+00
 Coeff:     -0.856D-04 0.277D-03 0.136D-02 0.146D-01-0.130D+00 0.274D+00
 Coeff:      0.839D+00
 Gap=     0.618 Goal=   None    Shift=    0.000
 RMSDP=5.43D-07 MaxDP=1.70D-05 DE=-9.10D-08 OVMax= 3.85D-05

 Cycle   8  Pass 1  IDiag  1:
 E= -152.109134305073     Delta-E=       -0.000000006921 Rises=F Damp=F
 DIIS: error= 2.42D-06 at cycle   8 NSaved=   8.
 NSaved= 8 IEnMin= 8 EnMin= -152.109134305073     IErMin= 8 ErrMin= 2.42D-06
 ErrMax= 2.42D-06  0.00D+00 EMaxC= 1.00D-01 BMatC= 4.76D-10 BMatP= 5.87D-09
 IDIUse=1 WtCom= 1.00D+00 WtEn= 0.00D+00
 Coeff-Com:  0.258D-04-0.215D-03-0.867D-03 0.383D-02 0.129D-01-0.135D+00
 Coeff-Com:  0.226D-01 0.110D+01
 Coeff:      0.258D-04-0.215D-03-0.867D-03 0.383D-02 0.129D-01-0.135D+00
 Coeff:      0.226D-01 0.110D+01
 Gap=     0.618 Goal=   None    Shift=    0.000
 RMSDP=1.88D-07 MaxDP=4.02D-06 DE=-6.92D-09 OVMax= 1.39D-05

 Cycle   9  Pass 1  IDiag  1:
 E= -152.109134305921     Delta-E=       -0.000000000849 Rises=F Damp=F
 DIIS: error= 8.95D-07 at cycle   9 NSaved=   9.
 NSaved= 9 IEnMin= 9 EnMin= -152.109134305921     IErMin= 9 ErrMin= 8.95D-07
 ErrMax= 8.95D-07  0.00D+00 EMaxC= 1.00D-01 BMatC= 2.48D-11 BMatP= 4.76D-10
 IDIUse=1 WtCom= 1.00D+00 WtEn= 0.00D+00
 Coeff-Com:  0.742D-06 0.307D-04 0.126D-03-0.243D-02 0.844D-02 0.827D-02
 Coeff-Com: -0.687D-01-0.231D+00 0.129D+01
 Coeff:      0.742D-06 0.307D-04 0.126D-03-0.243D-02 0.844D-02 0.827D-02
 Coeff:     -0.687D-01-0.231D+00 0.129D+01
 Gap=     0.618 Goal=   None    Shift=    0.000
 RMSDP=5.61D-08 MaxDP=1.03D-06 DE=-8.49D-10 OVMax= 3.02D-06

 Cycle  10  Pass 1  IDiag  1:
 E= -152.109134305974     Delta-E=       -0.000000000052 Rises=F Damp=F
 DIIS: error= 9.75D-08 at cycle  10 NSaved=  10.
 NSaved=10 IEnMin=10 EnMin= -152.109134305974     IErMin=10 ErrMin= 9.75D-08
 ErrMax= 9.75D-08  0.00D+00 EMaxC= 1.00D-01 BMatC= 4.07D-13 BMatP= 2.48D-11
 IDIUse=1 WtCom= 1.00D+00 WtEn= 0.00D+00
 Coeff-Com: -0.568D-06-0.436D-05-0.203D-04 0.548D-03-0.202D-02-0.151D-02
 Coeff-Com:  0.186D-01 0.554D-01-0.398D+00 0.133D+01
 Coeff:     -0.568D-06-0.436D-05-0.203D-04 0.548D-03-0.202D-02-0.151D-02
 Coeff:      0.186D-01 0.554D-01-0.398D+00 0.133D+01
 Gap=     0.618 Goal=   None    Shift=    0.000
 RMSDP=7.00D-09 MaxDP=1.89D-07 DE=-5.21D-11 OVMax= 3.99D-07

 SCF Done:  E(RHF) =  -152.109134306     A.U. after   10 cycles
            NFock= 10  Conv=0.70D-08     -V/T= 2.0020
 KE= 1.518013869227D+02 PE=-4.190292024976D+02 EE= 8.630689585815D+01
 Leave Link  502 at Fri Aug 26 22:11:03 2022, MaxMem=   536870912 cpu:               3.6 elap:               1.0
 (Enter /usr/site/hpc/x86_64/glibc-2.17/broadwell/gaussian/g16_a.03/pgi-16.5/g16/l801.exe)
 Windowed orbitals will be sorted by symmetry type.
 ExpMin= 1.03D-01 ExpMax= 1.53D+04 ExpMxC= 5.22D+02 IAcc=3 IRadAn=         5 AccDes= 0.00D+00
 HarFok:  IExCor=  205 AccDes= 0.00D+00 IRadAn=         5 IDoV=-2 UseB2=F ITyADJ=14
 ICtDFT= 12500011 ScaDFX=  1.000000  1.000000  1.000000  1.000000
 Largest valence mixing into a core orbital is  1.12D-04
 Largest core mixing into a valence orbital is  1.76D-05
 Range of M.O.s used for correlation:     3   116
 NBasis=   116 NAE=    10 NBE=    10 NFC=     2 NFV=     0
 NROrb=    114 NOA=     8 NOB=     8 NVA=   106 NVB=   106
 Leave Link  801 at Fri Aug 26 22:11:03 2022, MaxMem=   536870912 cpu:               0.3 elap:               0.1
 (Enter /usr/site/hpc/x86_64/glibc-2.17/broadwell/gaussian/g16_a.03/pgi-16.5/g16/l804.exe)
 Closed-shell transformation, MDV=   536870912 ITran=4 ISComp=2.
 Unit  1 TFree=        834515 TCopy=        406125.
 Semi-Direct transformation.
 ModeAB=           4 MOrb=             8 LenV=     536374550
 LASXX=      2873146 LTotXX=     2873146 LenRXX=     5831278
 LTotAB=     2958132 MaxLAS=     5820384 LenRXY=           0
 NonZer=     8704424 LenScr=    13107200 LnRSAI=     5820384
 LnScr1=     8912896 LExtra=           0 Total=     33671758
 MaxDsk=          -1 SrtSym=           T ITran=            4
 DoSDTr:  NPSUse=  4
 JobTyp=0 Pass  1:  I=   1 to   8.
 (rs|ai) integrals will be sorted in core.
 Complete sort for first half transformation.
 First half transformation complete.
 Complete sort for second half transformation.
 Second half transformation complete.
 Spin components of T(2) and E(2):
     alpha-alpha T2 =       0.1555718096D-01 E2=     -0.6381379174D-01
     alpha-beta  T2 =       0.9183463333D-01 E2=     -0.3982150665D+00
     beta-beta   T2 =       0.1555718096D-01 E2=     -0.6381379174D-01
 ANorm=    0.1059692878D+01
 E2 =    -0.5258426500D+00 EUMP2 =    -0.15263497695594D+03
 Leave Link  804 at Fri Aug 26 22:11:04 2022, MaxMem=   536870912 cpu:               3.3 elap:               0.8
 (Enter /usr/site/hpc/x86_64/glibc-2.17/broadwell/gaussian/g16_a.03/pgi-16.5/g16/l913.exe)
 CIDS:  MDV=   536870912.
 Frozen-core window:  NFC=   2 NFV=   0.
 IFCWin=0 IBDFC=1 NFBD=     0     0 NFCmp=     0     0 NFFFC=     0     0
 Using DD3R+UMP44R for 1st iteration.
 Using DD4RQ for 2nd and later iterations.
 Keep R2 and R3 ints in memory in symmetry-blocked form, NReq=35357534.
 FoFCou: FMM=F IPFlag=           0 FMFlag=           0 FMFlg1=           0
         NFxFlg=           0 DoJE=F BraDBF=F KetDBF=F FulRan=T
         wScrn=  0.000000 ICntrl=       600 IOpCl=  0 I1Cent=           0 NGrid=           0
         NMat0=    1 NMatS0=   6786 NMatT0=    0 NMatD0=    1 NMtDS0=    0 NMtDT0=    0
 Petite list used in FoFCou.
 CIDS: In Core Option IDoMem=           1.
 CCSD(T)
 =======
 Iterations=  50 Convergence= 0.100D-06
 Produce multiple copies of IABC intergrals
 Iteration Nr.   1
 **********************
 DD1Dir will call FoFMem   1 times, MxPair=        72
 NAB=    36 NAA=     0 NBB=     0.
 MP4(R+Q)=  0.75421160D-02
 Maximum subspace dimension=  5
 A-vector RMS=  1.7395538D-03 Max=  6.1759994D-03 conv= 1.00D-05.
 RLE energy=       -0.5257748850
 E3=       -0.75448748D-02        EUMP3=      -0.15264252183D+03
 E4(DQ)=   -0.15475427D-02        UMP4(DQ)=   -0.15264406937D+03
 E4(SDQ)=  -0.45954482D-02        UMP4(SDQ)=  -0.15264711728D+03
 VARIATIONAL ENERGIES WITH THE FIRST-ORDER WAVEFUNCTION:
 DE(Corr)= -0.52577489     E(Corr)=     -152.63490919    
 NORM(A)=   0.10600523D+01
 Iteration Nr.   2
 **********************
 DD1Dir will call FoFMem   1 times, MxPair=        72
 NAB=    36 NAA=     0 NBB=     0.
 A-vector RMS=  2.1294390D-04 Max=  2.3158714D-03 conv= 1.00D-05.
 RLE energy=       -0.5368139285
 DE(Corr)= -0.53565705     E(CORR)=     -152.64479136     Delta=-9.88D-03
 NORM(A)=   0.10637887D+01
 Iteration Nr.   3
 **********************
 DD1Dir will call FoFMem   1 times, MxPair=        72
 NAB=    36 NAA=     0 NBB=     0.
 A-vector RMS=  1.4038375D-04 Max=  7.6321011D-04 conv= 1.00D-05.
 RLE energy=       -0.5373085269
 DE(Corr)= -0.53672466     E(CORR)=     -152.64585897     Delta=-1.07D-03
 NORM(A)=   0.10644232D+01
 Iteration Nr.   4
 **********************
 DD1Dir will call FoFMem   1 times, MxPair=        72
 NAB=    36 NAA=     0 NBB=     0.
 A-vector RMS=  2.6540934D-05 Max=  1.4005990D-04 conv= 1.00D-05.
 RLE energy=       -0.5373912032
 DE(Corr)= -0.53735615     E(CORR)=     -152.64649046     Delta=-6.31D-04
 NORM(A)=   0.10645328D+01
 Iteration Nr.   5
 **********************
 DD1Dir will call FoFMem   1 times, MxPair=        72
 NAB=    36 NAA=     0 NBB=     0.
 A-vector RMS=  1.8469073D-05 Max=  1.3967960D-04 conv= 1.00D-05.
 RLE energy=       -0.5373996918
 DE(Corr)= -0.53739297     E(CORR)=     -152.64652728     Delta=-3.68D-05
 NORM(A)=   0.10645422D+01
 Iteration Nr.   6
 **********************
 DD1Dir will call FoFMem   1 times, MxPair=        72
 NAB=    36 NAA=     0 NBB=     0.
 A-vector RMS=  5.6067741D-06 Max=  4.4116323D-05 conv= 1.00D-05.
 RLE energy=       -0.5373908002
 DE(Corr)= -0.53739615     E(CORR)=     -152.64653045     Delta=-3.17D-06
 NORM(A)=   0.10645422D+01
 Iteration Nr.   7
 **********************
 DD1Dir will call FoFMem   1 times, MxPair=        72
 NAB=    36 NAA=     0 NBB=     0.
 A-vector RMS=  2.6490944D-06 Max=  1.9631113D-05 conv= 1.00D-05.
 RLE energy=       -0.5373969800
 DE(Corr)= -0.53739631     E(CORR)=     -152.64653061     Delta=-1.60D-07
 NORM(A)=   0.10645444D+01
 Iteration Nr.   8
 **********************
 DD1Dir will call FoFMem   1 times, MxPair=        72
 NAB=    36 NAA=     0 NBB=     0.
 A-vector RMS=  6.9807792D-07 Max=  6.1595029D-06 conv= 1.00D-05.
 RLE energy=       -0.5373957026
 DE(Corr)= -0.53739587     E(CORR)=     -152.64653018     Delta= 4.33D-07
 NORM(A)=   0.10645445D+01
 Iteration Nr.   9
 **********************
 DD1Dir will call FoFMem   1 times, MxPair=        72
 NAB=    36 NAA=     0 NBB=     0.
 A-vector RMS=  1.6386196D-07 Max=  1.4752782D-06 conv= 1.00D-05.
 RLE energy=       -0.5373960113
 DE(Corr)= -0.53739608     E(CORR)=     -152.64653039     Delta=-2.07D-07
 NORM(A)=   0.10645447D+01
 Iteration Nr.  10
 **********************
 DD1Dir will call FoFMem   1 times, MxPair=        72
 NAB=    36 NAA=     0 NBB=     0.
 A-vector RMS=  6.1739499D-08 Max=  4.9250342D-07 conv= 1.00D-05.
 RLE energy=       -0.5373961471
 DE(Corr)= -0.53739612     E(CORR)=     -152.64653043     Delta=-4.24D-08
 NORM(A)=   0.10645448D+01
 CI/CC converged in   10 iterations to DelEn=-4.24D-08 Conv= 1.00D-07 ErrA1= 6.17D-08 Conv= 1.00D-05
 Wavefunction amplitudes converged. E(Corr)=     -152.64653043    
 Largest amplitude= 4.79D-02
 IPart=  4 IA=    7   11.05% done.
 IPart=  4 IA=   13   21.46% done.
 IPart=  1 IA=   19   31.21% done.
 IPart=  3 IA=   25   40.32% done.
 IPart=  3 IA=   32   50.13% done.
 IPart=  3 IA=   40   60.27% done.
 IPart=  2 IA=   49   70.30% done.
 IPart=  1 IA=   60   80.58% done.
 IPart=  1 IA=   74   90.51% done.
 Time for triples=       45.78 seconds.
 T4(CCSD)= -0.16019234D-01
 T5(CCSD)=  0.40119544D-03
 CCSD(T)= -0.15266214847D+03
 Discarding MO integrals.
 Leave Link  913 at Fri Aug 26 22:11:21 2022, MaxMem=   536870912 cpu:              67.4 elap:              16.9
 (Enter /usr/site/hpc/x86_64/glibc-2.17/broadwell/gaussian/g16_a.03/pgi-16.5/g16/l601.exe)
 Copying SCF densities to generalized density rwf, IOpCl= 0 IROHF=0.

 **********************************************************************

            Population analysis using the SCF density.

 **********************************************************************

 Orbital symmetries:
       Occupied  (A') (A') (A') (A') (A') (A') (A') (A') (A") (A")
       Virtual   (A') (A') (A') (A') (A') (A') (A') (A') (A') (A')
                 (A") (A') (A") (A') (A') (A") (A") (A') (A") (A")
                 (A') (A') (A') (A') (A') (A') (A') (A') (A") (A")
                 (A") (A") (A') (A') (A') (A') (A') (A') (A') (A')
                 (A') (A') (A") (A") (A') (A') (A") (A") (A') (A')
                 (A") (A") (A') (A') (A') (A') (A") (A") (A") (A")
                 (A') (A') (A') (A') (A") (A") (A') (A') (A') (A')
                 (A") (A") (A') (A') (A') (A') (A') (A') (A') (A')
                 (A") (A") (A') (A') (A") (A") (A") (A") (A') (A')
                 (A") (A") (A') (A') (A') (A') (A") (A") (A') (A')
                 (A') (A') (A') (A') (A') (A')
 The electronic state is 1-A'.
 Alpha  occ. eigenvalues --  -20.56418 -20.54821  -1.33714  -1.32135  -0.71120
 Alpha  occ. eigenvalues --   -0.69541  -0.57230  -0.55619  -0.50837  -0.49266
 Alpha virt. eigenvalues --    0.12542   0.15494   0.19265   0.22197   0.53312
 Alpha virt. eigenvalues --    0.55337   0.56549   0.57953   0.66956   0.69241
 Alpha virt. eigenvalues --    0.78063   0.78715   0.79578   0.80634   0.82914
 Alpha virt. eigenvalues --    0.84057   0.85584   0.86291   0.96412   0.97975
 Alpha virt. eigenvalues --    1.13748   1.15278   1.17513   1.18312   1.50898
 Alpha virt. eigenvalues --    1.51209   1.52704   1.53081   1.99770   2.01349
 Alpha virt. eigenvalues --    2.05850   2.07416   2.09400   2.10097   2.14027
 Alpha virt. eigenvalues --    2.15561   2.25169   2.25857   2.60647   2.62665
 Alpha virt. eigenvalues --    2.91904   2.94827   3.38527   3.40095   3.49091
 Alpha virt. eigenvalues --    3.50658   3.52301   3.53868   3.58703   3.60342
 Alpha virt. eigenvalues --    3.77790   3.79367   3.84643   3.86192   3.86946
 Alpha virt. eigenvalues --    3.88393   3.92746   3.94303   4.02192   4.03776
 Alpha virt. eigenvalues --    4.07318   4.09030   4.14455   4.16098   4.29263
 Alpha virt. eigenvalues --    4.30849   4.39186   4.40651   4.44781   4.46336
 Alpha virt. eigenvalues --    4.65653   4.67217   4.80291   4.81719   5.03477
 Alpha virt. eigenvalues --    5.05069   5.23199   5.24832   5.53301   5.54834
 Alpha virt. eigenvalues --    5.97008   5.98600   6.39498   6.41106   6.85270
 Alpha virt. eigenvalues --    6.86857   6.88766   6.90345   6.93716   6.95356
 Alpha virt. eigenvalues --    6.98193   6.99784   7.07176   7.08569   7.12026
 Alpha virt. eigenvalues --    7.13205   7.17362   7.18952   7.46258   7.48065
 Alpha virt. eigenvalues --    7.69576   7.71061   8.14125   8.16244  12.47504
 Alpha virt. eigenvalues --   12.52197
          Condensed to atoms (all electrons):
               1          2          3          4          5          6
     1  O    7.824368   0.346283   0.346509  -0.000019   0.000006   0.000001
     2  H    0.346283   0.428588  -0.037086   0.001010  -0.000086  -0.000033
     3  H    0.346509  -0.037086   0.435824  -0.000020   0.000002   0.000001
     4  O   -0.000019   0.001010  -0.000020   7.825467   0.343798   0.345761
     5  H    0.000006  -0.000086   0.000002   0.343798   0.433523  -0.035300
     6  H    0.000001  -0.000033   0.000001   0.345761  -0.035300   0.430581
 Mulliken charges:
               1
     1  O   -0.517147
     2  H    0.261325
     3  H    0.254771
     4  O   -0.515996
     5  H    0.258057
     6  H    0.258990
 Sum of Mulliken charges =  -0.00000
 Mulliken charges with hydrogens summed into heavy atoms:
               1
     1  O   -0.001052
     4  O    0.001052
 Electronic spatial extent (au):  <R**2>=            459.9011
 Charge=             -0.0000 electrons
 Dipole moment (field-independent basis, Debye):
    X=              0.5707    Y=             -2.9033    Z=              0.0000  Tot=              2.9588
 Quadrupole moment (field-independent basis, Debye-Ang):
   XX=             -9.5428   YY=             -7.6089   ZZ=            -14.7172
   XY=              6.5609   XZ=              0.0000   YZ=              0.0000
 Traceless Quadrupole moment (field-independent basis, Debye-Ang):
   XX=              1.0802   YY=              3.0141   ZZ=             -4.0943
   XY=              6.5609   XZ=              0.0000   YZ=              0.0000
 Octapole moment (field-independent basis, Debye-Ang**2):
  XXX=             -0.2449  YYY=            -48.5484  ZZZ=              0.0000  XYY=             13.4596
  XXY=             -1.7851  XXZ=              0.0000  XZZ=              0.0751  YZZ=             -0.4065
  YYZ=              0.0000  XYZ=              0.0000
 Hexadecapole moment (field-independent basis, Debye-Ang**3):
 XXXX=            -10.4828 YYYY=           -345.3998 ZZZZ=            -11.3474 XXXY=              4.0593
 XXXZ=              0.0000 YYYX=             32.4585 YYYZ=              0.0000 ZZZX=              0.0000
 ZZZY=              0.0000 XXYY=            -56.3738 XXZZ=             -4.4119 YYZZ=            -91.1533
 XXYZ=              0.0000 YYXZ=              0.0000 ZZXY=             -1.8799
 N-N= 2.881178541075D+01 E-N=-4.190292013145D+02  KE= 1.518013869227D+02
 Symmetry A'   KE= 1.427663498179D+02
 Symmetry A"   KE= 9.035037104805D+00
 Leave Link  601 at Fri Aug 26 22:11:21 2022, MaxMem=   536870912 cpu:               0.1 elap:               0.0
 (Enter /usr/site/hpc/x86_64/glibc-2.17/broadwell/gaussian/g16_a.03/pgi-16.5/g16/l9999.exe)
 1\1\GINC-N004\SP\RCCSD(T)-FC\CC-pVTZ\H4O2\C7441284\26-Aug-2022\0\\#p C
 CSD(T)/cc-pVTZ\\H2O_H2O_3523\\0,1\O,0,0.,-0.009833,0.\H,0,-0.799571,-0
 .580965,0.\H,0,0.799571,-0.580965,0.\O,0,-3.942643,-2.809855,0.\H,0,-4
 .564846,-2.049349,0.\H,0,-4.460258,-3.645068,0.\\Version=ES64L-G16RevA
 .03\State=1-A'\HF=-152.1091343\MP2=-152.634977\MP3=-152.6425218\MP4D=-
 152.6516115\MP4DQ=-152.6440694\MP4SDQ=-152.6471173\CCSD=-152.6465304\C
 CSD(T)=-152.6621485\RMSD=7.002e-09\PG=CS [SG(H4O2)]\\@


 ... THIS SEEMS PLAINLY ABSURD; BUT WHOEVER WISHES TO BECOME A 
 PHILOSOPHER MUST LEARN NOT TO BE FRIGHTENED BY ABSURDITIES.

                          -- BERTRAND RUSSELL
 Job cpu time:       0 days  0 hours  1 minutes 16.8 seconds.
 Elapsed time:       0 days  0 hours  0 minutes 19.5 seconds.
 File lengths (MBytes):  RWF=    328 Int=      0 D2E=      0 Chk=      8 Scr=      8
 Normal termination of Gaussian 16 at Fri Aug 26 22:11:21 2022.
