 Entering Gaussian System, Link 0=g16
 Input=H2O_H2O_59.com
 Output=H2O_H2O_59.log
 Initial command:
 /usr/site/hpc/x86_64/glibc-2.17/broadwell/gaussian/g16_a.03/pgi-16.5/g16/l1.exe "/gpfs/gpfs1/scratch/c7441284/ForceFieldModel/FittingData2/Gau-4078843.inp" -scrdir="/gpfs/gpfs1/scratch/c7441284/ForceFieldModel/FittingData2/"
 Entering Link 1 = /usr/site/hpc/x86_64/glibc-2.17/broadwell/gaussian/g16_a.03/pgi-16.5/g16/l1.exe PID=   4078844.
  
 Copyright (c) 1988,1990,1992,1993,1995,1998,2003,2009,2016,
            Gaussian, Inc.  All Rights Reserved.
  
 This is part of the Gaussian(R) 16 program.  It is based on
 the Gaussian(R) 09 system (copyright 2009, Gaussian, Inc.),
 the Gaussian(R) 03 system (copyright 2003, Gaussian, Inc.),
 the Gaussian(R) 98 system (copyright 1998, Gaussian, Inc.),
 the Gaussian(R) 94 system (copyright 1995, Gaussian, Inc.),
 the Gaussian 92(TM) system (copyright 1992, Gaussian, Inc.),
 the Gaussian 90(TM) system (copyright 1990, Gaussian, Inc.),
 the Gaussian 88(TM) system (copyright 1988, Gaussian, Inc.),
 the Gaussian 86(TM) system (copyright 1986, Carnegie Mellon
 University), and the Gaussian 82(TM) system (copyright 1983,
 Carnegie Mellon University). Gaussian is a federally registered
 trademark of Gaussian, Inc.
  
 This software contains proprietary and confidential information,
 including trade secrets, belonging to Gaussian, Inc.
  
 This software is provided under written license and may be
 used, copied, transmitted, or stored only in accord with that
 written license.
  
 The following legend is applicable only to US Government
 contracts under FAR:
  
                    RESTRICTED RIGHTS LEGEND
  
 Use, reproduction and disclosure by the US Government is
 subject to restrictions as set forth in subparagraphs (a)
 and (c) of the Commercial Computer Software - Restricted
 Rights clause in FAR 52.227-19.
  
 Gaussian, Inc.
 340 Quinnipiac St., Bldg. 40, Wallingford CT 06492
  
  
 ---------------------------------------------------------------
 Warning -- This program may not be used in any manner that
 competes with the business of Gaussian, Inc. or will provide
 assistance to any competitor of Gaussian, Inc.  The licensee
 of this program is prohibited from giving any competitor of
 Gaussian, Inc. access to this program.  By using this program,
 the user acknowledges that Gaussian, Inc. is engaged in the
 business of creating and licensing software in the field of
 computational chemistry and represents and warrants to the
 licensee that it is not a competitor of Gaussian, Inc. and that
 it will not use this program in any manner prohibited above.
 ---------------------------------------------------------------
  

 Cite this work as:
 Gaussian 16, Revision A.03,
 M. J. Frisch, G. W. Trucks, H. B. Schlegel, G. E. Scuseria, 
 M. A. Robb, J. R. Cheeseman, G. Scalmani, V. Barone, 
 G. A. Petersson, H. Nakatsuji, X. Li, M. Caricato, A. V. Marenich, 
 J. Bloino, B. G. Janesko, R. Gomperts, B. Mennucci, H. P. Hratchian, 
 J. V. Ortiz, A. F. Izmaylov, J. L. Sonnenberg, D. Williams-Young, 
 F. Ding, F. Lipparini, F. Egidi, J. Goings, B. Peng, A. Petrone, 
 T. Henderson, D. Ranasinghe, V. G. Zakrzewski, J. Gao, N. Rega, 
 G. Zheng, W. Liang, M. Hada, M. Ehara, K. Toyota, R. Fukuda, 
 J. Hasegawa, M. Ishida, T. Nakajima, Y. Honda, O. Kitao, H. Nakai, 
 T. Vreven, K. Throssell, J. A. Montgomery, Jr., J. E. Peralta, 
 F. Ogliaro, M. J. Bearpark, J. J. Heyd, E. N. Brothers, K. N. Kudin, 
 V. N. Staroverov, T. A. Keith, R. Kobayashi, J. Normand, 
 K. Raghavachari, A. P. Rendell, J. C. Burant, S. S. Iyengar, 
 J. Tomasi, M. Cossi, J. M. Millam, M. Klene, C. Adamo, R. Cammi, 
 J. W. Ochterski, R. L. Martin, K. Morokuma, O. Farkas, 
 J. B. Foresman, and D. J. Fox, Gaussian, Inc., Wallingford CT, 2016.
 
 ******************************************
 Gaussian 16:  ES64L-G16RevA.03 25-Dec-2016
                26-Aug-2022 
 ******************************************
 %NProcShared=4
 Will use up to    4 processors via shared memory.
 %Mem=4GB
 %Chk=H2O_H2O_59.chk
 ------------------
 #p CCSD(T)/cc-pVTZ
 ------------------
 1/38=1,172=1/1;
 2/12=2,17=6,18=5,40=1/2;
 3/5=16,6=1,11=9,25=1,30=1/1,2,3;
 4//1;
 5/5=2,38=5/2;
 8/6=4,9=120000,10=1/1,4;
 9/5=7,14=2/13;
 6/7=2,8=2,9=2,10=2/1;
 99/5=1,9=1/99;
 Leave Link    1 at Fri Aug 26 15:34:50 2022, MaxMem=   536870912 cpu:               0.5 elap:               0.2
 (Enter /usr/site/hpc/x86_64/glibc-2.17/broadwell/gaussian/g16_a.03/pgi-16.5/g16/l101.exe)
 ----------
 H2O_H2O_59
 ----------
 Symbolic Z-matrix:
 Charge =  0 Multiplicity = 1
 O                     0.       -0.00983   0. 
 H                    -0.79957  -0.58097   0. 
 H                     0.79957  -0.58097   0. 
 O                    -1.69871  -1.21766   0. 
 H                    -2.68083  -1.24832   0. 
 H                    -1.35119  -2.13675   0. 
 
 ITRead=  0  0  0  0  0  0
 MicOpt= -1 -1 -1 -1 -1 -1
 NAtoms=      6 NQM=        6 NQMF=       0 NMMI=      0 NMMIF=      0
                NMic=       0 NMicF=      0.
                    Isotopes and Nuclear Properties:
 (Nuclear quadrupole moments (NQMom) in fm**2, nuclear magnetic moments (NMagM)
  in nuclear magnetons)

  Atom         1           2           3           4           5           6
 IAtWgt=          16           1           1          16           1           1
 AtmWgt=  15.9949146   1.0078250   1.0078250  15.9949146   1.0078250   1.0078250
 NucSpn=           0           1           1           0           1           1
 AtZEff=  -0.0000000  -0.0000000  -0.0000000  -0.0000000  -0.0000000  -0.0000000
 NQMom=    0.0000000   0.0000000   0.0000000   0.0000000   0.0000000   0.0000000
 NMagM=    0.0000000   2.7928460   2.7928460   0.0000000   2.7928460   2.7928460
 AtZNuc=   8.0000000   1.0000000   1.0000000   8.0000000   1.0000000   1.0000000
 Leave Link  101 at Fri Aug 26 15:34:50 2022, MaxMem=   536870912 cpu:               0.7 elap:               0.2
 (Enter /usr/site/hpc/x86_64/glibc-2.17/broadwell/gaussian/g16_a.03/pgi-16.5/g16/l202.exe)
                          Input orientation:                          
 ---------------------------------------------------------------------
 Center     Atomic      Atomic             Coordinates (Angstroms)
 Number     Number       Type             X           Y           Z
 ---------------------------------------------------------------------
      1          8           0        0.000000   -0.009833    0.000000
      2          1           0       -0.799571   -0.580965    0.000000
      3          1           0        0.799571   -0.580965    0.000000
      4          8           0       -1.698706   -1.217655    0.000000
      5          1           0       -2.680829   -1.248316    0.000000
      6          1           0       -1.351190   -2.136752    0.000000
 ---------------------------------------------------------------------
                    Distance matrix (angstroms):
                    1          2          3          4          5
     1  O    0.000000
     2  H    0.982601   0.000000
     3  H    0.982601   1.599142   0.000000
     4  O    2.084331   1.101734   2.578132   0.000000
     5  H    2.953080   1.996118   3.543803   0.982601   0.000000
     6  H    2.519821   1.650684   2.654477   0.982602   1.599143
                    6
     6  H    0.000000
 Stoichiometry    H4O2
 Framework group  CS[SG(H4O2)]
 Deg. of freedom     9
 Full point group                 CS      NOp   2
 Largest Abelian subgroup         CS      NOp   2
 Largest concise Abelian subgroup C1      NOp   1
                         Standard orientation:                         
 ---------------------------------------------------------------------
 Center     Atomic      Atomic             Coordinates (Angstroms)
 Number     Number       Type             X           Y           Z
 ---------------------------------------------------------------------
      1          8           0        0.066862    1.128639    0.000000
      2          1           0        0.064729    0.146040    0.000000
      3          1           0       -0.861937    1.449323    0.000000
      4          8           0        0.066862   -0.955692   -0.000000
      5          1           0        0.610991   -1.773878   -0.000000
      6          1           0       -0.883569   -1.205066   -0.000000
 ---------------------------------------------------------------------
 Rotational constants (GHZ):         253.2012380          12.1087994          11.5561515
 Leave Link  202 at Fri Aug 26 15:34:50 2022, MaxMem=   536870912 cpu:               0.0 elap:               0.0
 (Enter /usr/site/hpc/x86_64/glibc-2.17/broadwell/gaussian/g16_a.03/pgi-16.5/g16/l301.exe)
 Standard basis: CC-pVTZ (5D, 7F)
 Ernie: Thresh=  0.10000D-02 Tol=  0.10000D-05 Strict=F.
 Ernie:  6 primitive shells out of 84 were deleted.
 There are    92 symmetry adapted cartesian basis functions of A'  symmetry.
 There are    38 symmetry adapted cartesian basis functions of A"  symmetry.
 There are    80 symmetry adapted basis functions of A'  symmetry.
 There are    36 symmetry adapted basis functions of A"  symmetry.
   116 basis functions,   172 primitive gaussians,   130 cartesian basis functions
    10 alpha electrons       10 beta electrons
       nuclear repulsion energy        43.6763958081 Hartrees.
 IExCor=    0 DFT=F Ex=HF Corr=None ExCW=0 ScaHFX=  1.000000
 ScaDFX=  1.000000  1.000000  1.000000  1.000000 ScalE2=  1.000000  1.000000
 IRadAn=      5 IRanWt=     -1 IRanGd=            0 ICorTp=0 IEmpDi=  4
 NAtoms=    6 NActive=    6 NUniq=    6 SFac= 1.00D+00 NAtFMM=   60 NAOKFM=F Big=F
 Integral buffers will be    131072 words long.
 Raffenetti 1 integral format.
 Two-electron integral symmetry is turned on.
 Leave Link  301 at Fri Aug 26 15:34:50 2022, MaxMem=   536870912 cpu:               0.2 elap:               0.0
 (Enter /usr/site/hpc/x86_64/glibc-2.17/broadwell/gaussian/g16_a.03/pgi-16.5/g16/l302.exe)
 NPDir=0 NMtPBC=     1 NCelOv=     1 NCel=       1 NClECP=     1 NCelD=      1
         NCelK=      1 NCelE2=     1 NClLst=     1 CellRange=     0.0.
 One-electron integrals computed using PRISM.
 One-electron integral symmetry used in STVInt
 NBasis=   116 RedAO= T EigKep=  1.79D-03  NBF=    80    36
 NBsUse=   116 1.00D-06 EigRej= -1.00D+00 NBFU=    80    36
 Leave Link  302 at Fri Aug 26 15:34:50 2022, MaxMem=   536870912 cpu:               0.5 elap:               0.1
 (Enter /usr/site/hpc/x86_64/glibc-2.17/broadwell/gaussian/g16_a.03/pgi-16.5/g16/l303.exe)
 DipDrv:  MaxL=1.
 Leave Link  303 at Fri Aug 26 15:34:51 2022, MaxMem=   536870912 cpu:               0.1 elap:               0.0
 (Enter /usr/site/hpc/x86_64/glibc-2.17/broadwell/gaussian/g16_a.03/pgi-16.5/g16/l401.exe)
 ExpMin= 1.03D-01 ExpMax= 1.53D+04 ExpMxC= 5.22D+02 IAcc=3 IRadAn=         5 AccDes= 0.00D+00
 Harris functional with IExCor=  205 and IRadAn=       5 diagonalized for initial guess.
 HarFok:  IExCor=  205 AccDes= 0.00D+00 IRadAn=         5 IDoV= 1 UseB2=F ITyADJ=14
 ICtDFT=  3500011 ScaDFX=  1.000000  1.000000  1.000000  1.000000
 FoFCou: FMM=F IPFlag=           0 FMFlag=      100000 FMFlg1=           0
         NFxFlg=           0 DoJE=T BraDBF=F KetDBF=T FulRan=T
         wScrn=  0.000000 ICntrl=       500 IOpCl=  0 I1Cent=   200000004 NGrid=           0
         NMat0=    1 NMatS0=      1 NMatT0=    0 NMatD0=    1 NMtDS0=    0 NMtDT0=    0
 Petite list used in FoFCou.
 Harris En= -152.281824803080    
 JPrj=0 DoOrth=F DoCkMO=F.
 Initial guess orbital symmetries:
       Occupied  (A') (A') (A') (A') (A') (A') (A') (A") (A') (A")
       Virtual   (A') (A') (A') (A') (A') (A') (A') (A') (A") (A')
                 (A") (A') (A') (A') (A") (A") (A') (A") (A') (A')
                 (A") (A') (A') (A') (A') (A') (A') (A") (A") (A")
                 (A') (A') (A') (A') (A') (A') (A") (A') (A') (A')
                 (A') (A') (A") (A") (A') (A") (A") (A') (A") (A')
                 (A") (A') (A') (A") (A') (A') (A') (A") (A") (A")
                 (A') (A') (A') (A") (A') (A') (A") (A") (A') (A')
                 (A') (A') (A") (A') (A') (A') (A') (A') (A') (A")
                 (A') (A") (A') (A") (A') (A") (A") (A") (A') (A")
                 (A") (A') (A') (A') (A") (A') (A') (A') (A') (A")
                 (A') (A') (A') (A') (A') (A')
 The electronic state of the initial guess is 1-A'.
 Leave Link  401 at Fri Aug 26 15:34:51 2022, MaxMem=   536870912 cpu:               0.8 elap:               0.2
 (Enter /usr/site/hpc/x86_64/glibc-2.17/broadwell/gaussian/g16_a.03/pgi-16.5/g16/l502.exe)
 Keep R1 ints in memory in symmetry-blocked form, NReq=34823469.
 FoFCou: FMM=F IPFlag=           0 FMFlag=           0 FMFlg1=           0
         NFxFlg=           0 DoJE=F BraDBF=F KetDBF=F FulRan=T
         wScrn=  0.000000 ICntrl=       600 IOpCl=  0 I1Cent=           0 NGrid=           0
         NMat0=    1 NMatS0=   6786 NMatT0=    0 NMatD0=    1 NMtDS0=    0 NMtDT0=    0
 Petite list used in FoFCou.
 Closed shell SCF:
 Using DIIS extrapolation, IDIIS=  1040.
 NGot=   536870912 LenX=   525040661 LenY=   525023320
 Requested convergence on RMS density matrix=1.00D-08 within 128 cycles.
 Requested convergence on MAX density matrix=1.00D-06.
 Requested convergence on             energy=1.00D-06.
 No special actions if energy rises.

 Cycle   1  Pass 1  IDiag  1:
 E= -151.837211781911    
 DIIS: error= 6.72D-02 at cycle   1 NSaved=   1.
 NSaved= 1 IEnMin= 1 EnMin= -151.837211781911     IErMin= 1 ErrMin= 6.72D-02
 ErrMax= 6.72D-02  0.00D+00 EMaxC= 1.00D-01 BMatC= 4.30D-01 BMatP= 4.30D-01
 IDIUse=3 WtCom= 3.28D-01 WtEn= 6.72D-01
 Coeff-Com:  0.100D+01
 Coeff-En:   0.100D+01
 Coeff:      0.100D+01
 Gap=     0.369 Goal=   None    Shift=    0.000
 GapD=    0.369 DampG=1.000 DampE=0.500 DampFc=0.5000 IDamp=-1.
 Damping current iteration by 5.00D-01
 RMSDP=4.20D-03 MaxDP=1.35D-01              OVMax= 1.61D-01

 Cycle   2  Pass 1  IDiag  1:
 E= -151.945172741161     Delta-E=       -0.107960959250 Rises=F Damp=T
 DIIS: error= 2.49D-02 at cycle   2 NSaved=   2.
 NSaved= 2 IEnMin= 2 EnMin= -151.945172741161     IErMin= 2 ErrMin= 2.49D-02
 ErrMax= 2.49D-02  0.00D+00 EMaxC= 1.00D-01 BMatC= 5.95D-02 BMatP= 4.30D-01
 IDIUse=3 WtCom= 7.51D-01 WtEn= 2.49D-01
 Coeff-Com: -0.356D+00 0.136D+01
 Coeff-En:   0.000D+00 0.100D+01
 Coeff:     -0.267D+00 0.127D+01
 Gap=     0.513 Goal=   None    Shift=    0.000
 RMSDP=6.96D-04 MaxDP=1.25D-02 DE=-1.08D-01 OVMax= 6.75D-02

 Cycle   3  Pass 1  IDiag  1:
 E= -152.037692410898     Delta-E=       -0.092519669737 Rises=F Damp=F
 DIIS: error= 2.66D-03 at cycle   3 NSaved=   3.
 NSaved= 3 IEnMin= 3 EnMin= -152.037692410898     IErMin= 3 ErrMin= 2.66D-03
 ErrMax= 2.66D-03  0.00D+00 EMaxC= 1.00D-01 BMatC= 6.28D-04 BMatP= 5.95D-02
 IDIUse=3 WtCom= 9.73D-01 WtEn= 2.66D-02
 Coeff-Com: -0.334D-01 0.958D-02 0.102D+01
 Coeff-En:   0.000D+00 0.000D+00 0.100D+01
 Coeff:     -0.325D-01 0.933D-02 0.102D+01
 Gap=     0.513 Goal=   None    Shift=    0.000
 RMSDP=1.61D-04 MaxDP=2.75D-03 DE=-9.25D-02 OVMax= 7.49D-03

 Cycle   4  Pass 1  IDiag  1:
 E= -152.038270496110     Delta-E=       -0.000578085212 Rises=F Damp=F
 DIIS: error= 6.36D-04 at cycle   4 NSaved=   4.
 NSaved= 4 IEnMin= 4 EnMin= -152.038270496110     IErMin= 4 ErrMin= 6.36D-04
 ErrMax= 6.36D-04  0.00D+00 EMaxC= 1.00D-01 BMatC= 4.21D-05 BMatP= 6.28D-04
 IDIUse=3 WtCom= 9.94D-01 WtEn= 6.36D-03
 Coeff-Com:  0.194D-02-0.104D-01 0.338D-01 0.975D+00
 Coeff-En:   0.000D+00 0.000D+00 0.000D+00 0.100D+01
 Coeff:      0.193D-02-0.104D-01 0.336D-01 0.975D+00
 Gap=     0.517 Goal=   None    Shift=    0.000
 RMSDP=5.81D-05 MaxDP=1.21D-03 DE=-5.78D-04 OVMax= 2.20D-03

 Cycle   5  Pass 1  IDiag  1:
 E= -152.038320364303     Delta-E=       -0.000049868193 Rises=F Damp=F
 DIIS: error= 3.38D-04 at cycle   5 NSaved=   5.
 NSaved= 5 IEnMin= 5 EnMin= -152.038320364303     IErMin= 5 ErrMin= 3.38D-04
 ErrMax= 3.38D-04  0.00D+00 EMaxC= 1.00D-01 BMatC= 1.07D-05 BMatP= 4.21D-05
 IDIUse=3 WtCom= 9.97D-01 WtEn= 3.38D-03
 Coeff-Com:  0.719D-02-0.509D-02-0.188D+00 0.250D+00 0.936D+00
 Coeff-En:   0.000D+00 0.000D+00 0.000D+00 0.000D+00 0.100D+01
 Coeff:      0.717D-02-0.507D-02-0.188D+00 0.249D+00 0.937D+00
 Gap=     0.517 Goal=   None    Shift=    0.000
 RMSDP=3.30D-05 MaxDP=6.37D-04 DE=-4.99D-05 OVMax= 1.35D-03

 Cycle   6  Pass 1  IDiag  1:
 E= -152.038332531949     Delta-E=       -0.000012167646 Rises=F Damp=F
 DIIS: error= 4.51D-05 at cycle   6 NSaved=   6.
 NSaved= 6 IEnMin= 6 EnMin= -152.038332531949     IErMin= 6 ErrMin= 4.51D-05
 ErrMax= 4.51D-05  0.00D+00 EMaxC= 1.00D-01 BMatC= 1.69D-07 BMatP= 1.07D-05
 IDIUse=1 WtCom= 1.00D+00 WtEn= 0.00D+00
 Coeff-Com: -0.125D-02 0.859D-03 0.387D-01-0.874D-01-0.191D+00 0.124D+01
 Coeff:     -0.125D-02 0.859D-03 0.387D-01-0.874D-01-0.191D+00 0.124D+01
 Gap=     0.517 Goal=   None    Shift=    0.000
 RMSDP=6.89D-06 MaxDP=1.33D-04 DE=-1.22D-05 OVMax= 3.70D-04

 Cycle   7  Pass 1  IDiag  1:
 E= -152.038332972871     Delta-E=       -0.000000440922 Rises=F Damp=F
 DIIS: error= 1.11D-05 at cycle   7 NSaved=   7.
 NSaved= 7 IEnMin= 7 EnMin= -152.038332972871     IErMin= 7 ErrMin= 1.11D-05
 ErrMax= 1.11D-05  0.00D+00 EMaxC= 1.00D-01 BMatC= 9.33D-09 BMatP= 1.69D-07
 IDIUse=1 WtCom= 1.00D+00 WtEn= 0.00D+00
 Coeff-Com: -0.448D-04 0.310D-05 0.866D-03 0.342D-02-0.698D-02-0.240D+00
 Coeff-Com:  0.124D+01
 Coeff:     -0.448D-04 0.310D-05 0.866D-03 0.342D-02-0.698D-02-0.240D+00
 Coeff:      0.124D+01
 Gap=     0.517 Goal=   None    Shift=    0.000
 RMSDP=1.87D-06 MaxDP=3.92D-05 DE=-4.41D-07 OVMax= 1.16D-04

 Cycle   8  Pass 1  IDiag  1:
 E= -152.038332999824     Delta-E=       -0.000000026952 Rises=F Damp=F
 DIIS: error= 2.84D-06 at cycle   8 NSaved=   8.
 NSaved= 8 IEnMin= 8 EnMin= -152.038332999824     IErMin= 8 ErrMin= 2.84D-06
 ErrMax= 2.84D-06  0.00D+00 EMaxC= 1.00D-01 BMatC= 5.17D-10 BMatP= 9.33D-09
 IDIUse=1 WtCom= 1.00D+00 WtEn= 0.00D+00
 Coeff-Com:  0.785D-04-0.530D-04-0.232D-02 0.376D-02 0.133D-01-0.897D-02
 Coeff-Com: -0.276D+00 0.127D+01
 Coeff:      0.785D-04-0.530D-04-0.232D-02 0.376D-02 0.133D-01-0.897D-02
 Coeff:     -0.276D+00 0.127D+01
 Gap=     0.517 Goal=   None    Shift=    0.000
 RMSDP=4.09D-07 MaxDP=8.34D-06 DE=-2.70D-08 OVMax= 2.88D-05

 Cycle   9  Pass 1  IDiag  1:
 E= -152.038333001354     Delta-E=       -0.000000001530 Rises=F Damp=F
 DIIS: error= 7.28D-07 at cycle   9 NSaved=   9.
 NSaved= 9 IEnMin= 9 EnMin= -152.038333001354     IErMin= 9 ErrMin= 7.28D-07
 ErrMax= 7.28D-07  0.00D+00 EMaxC= 1.00D-01 BMatC= 3.57D-11 BMatP= 5.17D-10
 IDIUse=1 WtCom= 1.00D+00 WtEn= 0.00D+00
 Coeff-Com: -0.115D-04 0.673D-05 0.447D-03-0.986D-03-0.224D-02 0.163D-01
 Coeff-Com: -0.226D-01-0.283D+00 0.129D+01
 Coeff:     -0.115D-04 0.673D-05 0.447D-03-0.986D-03-0.224D-02 0.163D-01
 Coeff:     -0.226D-01-0.283D+00 0.129D+01
 Gap=     0.517 Goal=   None    Shift=    0.000
 RMSDP=1.13D-07 MaxDP=2.42D-06 DE=-1.53D-09 OVMax= 8.01D-06

 Cycle  10  Pass 1  IDiag  1:
 E= -152.038333001460     Delta-E=       -0.000000000106 Rises=F Damp=F
 DIIS: error= 1.33D-07 at cycle  10 NSaved=  10.
 NSaved=10 IEnMin=10 EnMin= -152.038333001460     IErMin=10 ErrMin= 1.33D-07
 ErrMax= 1.33D-07  0.00D+00 EMaxC= 1.00D-01 BMatC= 1.62D-12 BMatP= 3.57D-11
 IDIUse=1 WtCom= 1.00D+00 WtEn= 0.00D+00
 Coeff-Com: -0.502D-05 0.358D-05 0.131D-03-0.208D-03-0.783D-03-0.109D-02
 Coeff-Com:  0.228D-01-0.304D-01-0.215D+00 0.122D+01
 Coeff:     -0.502D-05 0.358D-05 0.131D-03-0.208D-03-0.783D-03-0.109D-02
 Coeff:      0.228D-01-0.304D-01-0.215D+00 0.122D+01
 Gap=     0.517 Goal=   None    Shift=    0.000
 RMSDP=1.94D-08 MaxDP=4.20D-07 DE=-1.06D-10 OVMax= 1.21D-06

 Cycle  11  Pass 1  IDiag  1:
 E= -152.038333001464     Delta-E=       -0.000000000004 Rises=F Damp=F
 DIIS: error= 3.12D-08 at cycle  11 NSaved=  11.
 NSaved=11 IEnMin=11 EnMin= -152.038333001464     IErMin=11 ErrMin= 3.12D-08
 ErrMax= 3.12D-08  0.00D+00 EMaxC= 1.00D-01 BMatC= 5.05D-14 BMatP= 1.62D-12
 IDIUse=1 WtCom= 1.00D+00 WtEn= 0.00D+00
 Coeff-Com:  0.909D-06-0.387D-06-0.355D-04 0.678D-04 0.195D-03-0.523D-03
 Coeff-Com: -0.222D-02 0.192D-01-0.493D-01-0.785D-01 0.111D+01
 Coeff:      0.909D-06-0.387D-06-0.355D-04 0.678D-04 0.195D-03-0.523D-03
 Coeff:     -0.222D-02 0.192D-01-0.493D-01-0.785D-01 0.111D+01
 Gap=     0.517 Goal=   None    Shift=    0.000
 RMSDP=3.20D-09 MaxDP=7.05D-08 DE=-3.81D-12 OVMax= 2.01D-07

 SCF Done:  E(RHF) =  -152.038333001     A.U. after   11 cycles
            NFock= 11  Conv=0.32D-08     -V/T= 1.9982
 KE= 1.523131630607D+02 PE=-4.490996650132D+02 EE= 1.010717731428D+02
 Leave Link  502 at Fri Aug 26 15:34:52 2022, MaxMem=   536870912 cpu:               4.6 elap:               1.2
 (Enter /usr/site/hpc/x86_64/glibc-2.17/broadwell/gaussian/g16_a.03/pgi-16.5/g16/l801.exe)
 Windowed orbitals will be sorted by symmetry type.
 ExpMin= 1.03D-01 ExpMax= 1.53D+04 ExpMxC= 5.22D+02 IAcc=3 IRadAn=         5 AccDes= 0.00D+00
 HarFok:  IExCor=  205 AccDes= 0.00D+00 IRadAn=         5 IDoV=-2 UseB2=F ITyADJ=14
 ICtDFT= 12500011 ScaDFX=  1.000000  1.000000  1.000000  1.000000
 Largest valence mixing into a core orbital is  1.09D-04
 Largest core mixing into a valence orbital is  1.76D-05
 Range of M.O.s used for correlation:     3   116
 NBasis=   116 NAE=    10 NBE=    10 NFC=     2 NFV=     0
 NROrb=    114 NOA=     8 NOB=     8 NVA=   106 NVB=   106
 Leave Link  801 at Fri Aug 26 15:34:52 2022, MaxMem=   536870912 cpu:               0.3 elap:               0.1
 (Enter /usr/site/hpc/x86_64/glibc-2.17/broadwell/gaussian/g16_a.03/pgi-16.5/g16/l804.exe)
 Closed-shell transformation, MDV=   536870912 ITran=4 ISComp=2.
 Unit  1 TFree=        834515 TCopy=        406137.
 Semi-Direct transformation.
 ModeAB=           2 MOrb=             8 LenV=     536358915
 LASXX=      2873146 LTotXX=     2873146 LenRXX=     2873146
 LTotAB=     2958132 MaxLAS=     7765680 LenRXY=     7765680
 NonZer=     7991856 LenScr=    12058624 LnRSAI=           0
 LnScr1=           0 LExtra=           0 Total=     22697450
 MaxDsk=          -1 SrtSym=           F ITran=            4
 DoSDTr:  NPSUse=  4
 JobTyp=0 Pass  1:  I=   1 to   8.
 (rs|ai) integrals will be sorted in core.
 Complete sort for first half transformation.
 First half transformation complete.
 Complete sort for second half transformation.
 Second half transformation complete.
 Spin components of T(2) and E(2):
     alpha-alpha T2 =       0.1615813629D-01 E2=     -0.6703672868D-01
     alpha-beta  T2 =       0.9071910208D-01 E2=     -0.4026452941D+00
     beta-beta   T2 =       0.1615813629D-01 E2=     -0.6703672868D-01
 ANorm=    0.1059733634D+01
 E2 =    -0.5367187515D+00 EUMP2 =    -0.15257505175292D+03
 Leave Link  804 at Fri Aug 26 15:34:53 2022, MaxMem=   536870912 cpu:               5.0 elap:               1.3
 (Enter /usr/site/hpc/x86_64/glibc-2.17/broadwell/gaussian/g16_a.03/pgi-16.5/g16/l913.exe)
 CIDS:  MDV=   536870912.
 Frozen-core window:  NFC=   2 NFV=   0.
 IFCWin=0 IBDFC=1 NFBD=     0     0 NFCmp=     0     0 NFFFC=     0     0
 Using DD3R+UMP44R for 1st iteration.
 Using DD4RQ for 2nd and later iterations.
 Keep R2 and R3 ints in memory in symmetry-blocked form, NReq=35357546.
 FoFCou: FMM=F IPFlag=           0 FMFlag=           0 FMFlg1=           0
         NFxFlg=           0 DoJE=F BraDBF=F KetDBF=F FulRan=T
         wScrn=  0.000000 ICntrl=       600 IOpCl=  0 I1Cent=           0 NGrid=           0
         NMat0=    1 NMatS0=   6786 NMatT0=    0 NMatD0=    1 NMtDS0=    0 NMtDT0=    0
 Petite list used in FoFCou.
 CIDS: In Core Option IDoMem=           1.
 CCSD(T)
 =======
 Iterations=  50 Convergence= 0.100D-06
 Produce multiple copies of IABC intergrals
 Iteration Nr.   1
 **********************
 DD1Dir will call FoFMem   1 times, MxPair=        72
 NAB=    36 NAA=     0 NBB=     0.
 MP4(R+Q)=  0.83409145D-02
 Maximum subspace dimension=  5
 A-vector RMS=  2.0860636D-03 Max=  1.2389120D-02 conv= 1.00D-05.
 RLE energy=       -0.5337580018
 E3=       -0.54195227D-02        EUMP3=      -0.15258047128D+03
 E4(DQ)=   -0.46601541D-03        UMP4(DQ)=   -0.15258093729D+03
 E4(SDQ)=  -0.38661285D-02        UMP4(SDQ)=  -0.15258433740D+03
 VARIATIONAL ENERGIES WITH THE FIRST-ORDER WAVEFUNCTION:
 DE(Corr)= -0.53374158     E(Corr)=     -152.57207459    
 NORM(A)=   0.10592738D+01
 Iteration Nr.   2
 **********************
 DD1Dir will call FoFMem   1 times, MxPair=        72
 NAB=    36 NAA=     0 NBB=     0.
 A-vector RMS=  2.2538771D-04 Max=  2.2859471D-03 conv= 1.00D-05.
 RLE energy=       -0.5446756900
 DE(Corr)= -0.54384499     E(CORR)=     -152.58217799     Delta=-1.01D-02
 NORM(A)=   0.10628895D+01
 Iteration Nr.   3
 **********************
 DD1Dir will call FoFMem   1 times, MxPair=        72
 NAB=    36 NAA=     0 NBB=     0.
 A-vector RMS=  3.2473459D-04 Max=  3.7377764D-03 conv= 1.00D-05.
 RLE energy=       -0.5451649999
 DE(Corr)= -0.54455000     E(CORR)=     -152.58288301     Delta=-7.05D-04
 NORM(A)=   0.10635410D+01
 Iteration Nr.   4
 **********************
 DD1Dir will call FoFMem   1 times, MxPair=        72
 NAB=    36 NAA=     0 NBB=     0.
 A-vector RMS=  5.9405902D-05 Max=  1.0277607D-03 conv= 1.00D-05.
 RLE energy=       -0.5452294630
 DE(Corr)= -0.54518665     E(CORR)=     -152.58351965     Delta=-6.37D-04
 NORM(A)=   0.10636915D+01
 Iteration Nr.   5
 **********************
 DD1Dir will call FoFMem   1 times, MxPair=        72
 NAB=    36 NAA=     0 NBB=     0.
 A-vector RMS=  5.4744368D-05 Max=  7.2262395D-04 conv= 1.00D-05.
 RLE energy=       -0.5452570824
 DE(Corr)= -0.54524484     E(CORR)=     -152.58357784     Delta=-5.82D-05
 NORM(A)=   0.10637456D+01
 Iteration Nr.   6
 **********************
 DD1Dir will call FoFMem   1 times, MxPair=        72
 NAB=    36 NAA=     0 NBB=     0.
 A-vector RMS=  1.6780308D-05 Max=  1.9902086D-04 conv= 1.00D-05.
 RLE energy=       -0.5452549701
 DE(Corr)= -0.54525285     E(CORR)=     -152.58358585     Delta=-8.01D-06
 NORM(A)=   0.10637584D+01
 Iteration Nr.   7
 **********************
 DD1Dir will call FoFMem   1 times, MxPair=        72
 NAB=    36 NAA=     0 NBB=     0.
 A-vector RMS=  6.0014006D-06 Max=  6.8828526D-05 conv= 1.00D-05.
 RLE energy=       -0.5452473102
 DE(Corr)= -0.54525355     E(CORR)=     -152.58358655     Delta=-6.94D-07
 NORM(A)=   0.10637612D+01
 Iteration Nr.   8
 **********************
 DD1Dir will call FoFMem   1 times, MxPair=        72
 NAB=    36 NAA=     0 NBB=     0.
 A-vector RMS=  2.9028164D-06 Max=  3.7795747D-05 conv= 1.00D-05.
 RLE energy=       -0.5452525479
 DE(Corr)= -0.54525308     E(CORR)=     -152.58358609     Delta= 4.61D-07
 NORM(A)=   0.10637644D+01
 Iteration Nr.   9
 **********************
 DD1Dir will call FoFMem   1 times, MxPair=        72
 NAB=    36 NAA=     0 NBB=     0.
 A-vector RMS=  6.2106342D-07 Max=  7.2928853D-06 conv= 1.00D-05.
 RLE energy=       -0.5452526402
 DE(Corr)= -0.54525274     E(CORR)=     -152.58358574     Delta= 3.43D-07
 NORM(A)=   0.10637648D+01
 Iteration Nr.  10
 **********************
 DD1Dir will call FoFMem   1 times, MxPair=        72
 NAB=    36 NAA=     0 NBB=     0.
 A-vector RMS=  2.6210203D-07 Max=  2.4657707D-06 conv= 1.00D-05.
 RLE energy=       -0.5452530776
 DE(Corr)= -0.54525309     E(CORR)=     -152.58358610     Delta=-3.52D-07
 NORM(A)=   0.10637651D+01
 Iteration Nr.  11
 **********************
 DD1Dir will call FoFMem   1 times, MxPair=        72
 NAB=    36 NAA=     0 NBB=     0.
 A-vector RMS=  1.4876851D-07 Max=  1.5367014D-06 conv= 1.00D-05.
 RLE energy=       -0.5452531955
 DE(Corr)= -0.54525315     E(CORR)=     -152.58358615     Delta=-5.84D-08
 NORM(A)=   0.10637652D+01
 CI/CC converged in   11 iterations to DelEn=-5.84D-08 Conv= 1.00D-07 ErrA1= 1.49D-07 Conv= 1.00D-05
 Wavefunction amplitudes converged. E(Corr)=     -152.58358615    
 Largest amplitude= 3.85D-02
 IPart=  3 IA=    7   11.05% done.
 IPart=  2 IA=   13   21.46% done.
 IPart=  1 IA=   19   31.21% done.
 IPart=  2 IA=   25   40.32% done.
 IPart=  2 IA=   32   50.13% done.
 IPart=  2 IA=   40   60.27% done.
 IPart=  4 IA=   49   70.30% done.
 IPart=  3 IA=   60   80.58% done.
 IPart=  4 IA=   74   90.51% done.
 Time for triples=       53.44 seconds.
 T4(CCSD)= -0.17474668D-01
 T5(CCSD)=  0.47459012D-03
 CCSD(T)= -0.15260058623D+03
 Discarding MO integrals.
 Leave Link  913 at Fri Aug 26 15:35:13 2022, MaxMem=   536870912 cpu:              78.6 elap:              19.7
 (Enter /usr/site/hpc/x86_64/glibc-2.17/broadwell/gaussian/g16_a.03/pgi-16.5/g16/l601.exe)
 Copying SCF densities to generalized density rwf, IOpCl= 0 IROHF=0.

 **********************************************************************

            Population analysis using the SCF density.

 **********************************************************************

 Orbital symmetries:
       Occupied  (A') (A') (A') (A') (A') (A') (A") (A') (A') (A")
       Virtual   (A') (A') (A') (A') (A') (A') (A') (A') (A") (A')
                 (A") (A') (A') (A") (A") (A') (A') (A") (A') (A')
                 (A') (A") (A') (A') (A') (A') (A') (A") (A") (A')
                 (A") (A') (A') (A') (A') (A') (A") (A') (A') (A')
                 (A') (A') (A") (A') (A") (A") (A') (A") (A') (A')
                 (A") (A') (A") (A") (A') (A') (A") (A") (A') (A')
                 (A") (A') (A') (A") (A') (A') (A") (A') (A") (A')
                 (A') (A") (A') (A') (A') (A') (A') (A') (A') (A")
                 (A') (A") (A') (A') (A") (A") (A") (A") (A') (A")
                 (A") (A') (A') (A') (A") (A') (A') (A') (A') (A")
                 (A') (A') (A') (A') (A') (A')
 The electronic state is 1-A'.
 Alpha  occ. eigenvalues --  -20.62049 -20.44684  -1.43956  -1.24833  -0.81158
 Alpha  occ. eigenvalues --   -0.75806  -0.58629  -0.54700  -0.44976  -0.41356
 Alpha virt. eigenvalues --    0.10328   0.16033   0.21442   0.32250   0.48626
 Alpha virt. eigenvalues --    0.51679   0.60930   0.64165   0.70603   0.71534
 Alpha virt. eigenvalues --    0.77945   0.79378   0.81705   0.83804   0.88471
 Alpha virt. eigenvalues --    0.88693   0.96107   1.00893   1.08985   1.14356
 Alpha virt. eigenvalues --    1.20961   1.23542   1.36116   1.38921   1.49528
 Alpha virt. eigenvalues --    1.60820   1.61968   1.92521   1.99302   2.08565
 Alpha virt. eigenvalues --    2.10335   2.12378   2.19651   2.27946   2.33605
 Alpha virt. eigenvalues --    2.43188   2.47438   2.51172   2.63984   2.87964
 Alpha virt. eigenvalues --    3.09598   3.20329   3.26245   3.41534   3.42793
 Alpha virt. eigenvalues --    3.54046   3.54772   3.58261   3.66323   3.71396
 Alpha virt. eigenvalues --    3.73010   3.74862   3.87571   3.90166   3.97112
 Alpha virt. eigenvalues --    4.00468   4.01319   4.11390   4.16938   4.18406
 Alpha virt. eigenvalues --    4.18616   4.22108   4.28568   4.29784   4.42268
 Alpha virt. eigenvalues --    4.54314   4.59312   4.63758   4.71677   4.80728
 Alpha virt. eigenvalues --    4.91885   4.99249   5.01619   5.05255   5.36372
 Alpha virt. eigenvalues --    5.43616   5.55367   5.61549   5.70682   6.01600
 Alpha virt. eigenvalues --    6.03897   6.38395   6.67373   6.78165   6.79967
 Alpha virt. eigenvalues --    6.83062   6.91266   6.99505   7.06104   7.07461
 Alpha virt. eigenvalues --    7.14990   7.16128   7.27209   7.37591   7.40842
 Alpha virt. eigenvalues --    7.45222   7.57064   7.61696   7.80331   8.08125
 Alpha virt. eigenvalues --    8.08982   8.27877   8.65144   9.02369  12.94503
 Alpha virt. eigenvalues --   13.77312
          Condensed to atoms (all electrons):
               1          2          3          4          5          6
     1  O    8.083796   0.400300   0.340290  -0.192622   0.010187   0.013676
     2  H    0.400300   0.326873  -0.059770   0.065323  -0.008483  -0.004604
     3  H    0.340290  -0.059770   0.507970   0.016889  -0.000267   0.000740
     4  O   -0.192622   0.065323   0.016889   7.806431   0.302384   0.299411
     5  H    0.010187  -0.008483  -0.000267   0.302384   0.472201  -0.012089
     6  H    0.013676  -0.004604   0.000740   0.299411  -0.012089   0.460000
 Mulliken charges:
               1
     1  O   -0.655627
     2  H    0.280361
     3  H    0.194148
     4  O   -0.297815
     5  H    0.236067
     6  H    0.242866
 Sum of Mulliken charges =  -0.00000
 Mulliken charges with hydrogens summed into heavy atoms:
               1
     1  O   -0.181117
     4  O    0.181117
 Electronic spatial extent (au):  <R**2>=            118.9694
 Charge=             -0.0000 electrons
 Dipole moment (field-independent basis, Debye):
    X=             -2.0218    Y=             -4.9011    Z=             -0.0000  Tot=              5.3018
 Quadrupole moment (field-independent basis, Debye-Ang):
   XX=             -9.5222   YY=            -10.1541   ZZ=            -14.5421
   XY=             -2.6080   XZ=             -0.0000   YZ=             -0.0000
 Traceless Quadrupole moment (field-independent basis, Debye-Ang):
   XX=              1.8839   YY=              1.2521   ZZ=             -3.1360
   XY=             -2.6080   XZ=             -0.0000   YZ=             -0.0000
 Octapole moment (field-independent basis, Debye-Ang**2):
  XXX=             -2.6966  YYY=            -16.1376  ZZZ=             -0.0000  XYY=             -2.3165
  XXY=             -3.0582  XXZ=             -0.0000  XZZ=             -0.2218  YZZ=             -1.2679
  YYZ=             -0.0000  XYZ=             -0.0000
 Hexadecapole moment (field-independent basis, Debye-Ang**3):
 XXXX=            -11.6944 YYYY=            -86.6937 ZZZZ=            -11.2184 XXXY=              0.5050
 XXXZ=             -0.0000 YYYX=             -9.1106 YYYZ=             -0.0000 ZZZX=              0.0000
 ZZZY=             -0.0000 XXYY=            -12.3087 XXZZ=             -4.4385 YYZZ=            -21.1733
 XXYZ=             -0.0000 YYXZ=             -0.0000 ZZXY=              0.4675
 N-N= 4.367639580812D+01 E-N=-4.490996647881D+02  KE= 1.523131630607D+02
 Symmetry A'   KE= 1.433484208337D+02
 Symmetry A"   KE= 8.964742226991D+00
 Leave Link  601 at Fri Aug 26 15:35:13 2022, MaxMem=   536870912 cpu:               0.1 elap:               0.1
 (Enter /usr/site/hpc/x86_64/glibc-2.17/broadwell/gaussian/g16_a.03/pgi-16.5/g16/l9999.exe)
 1\1\GINC-N041\SP\RCCSD(T)-FC\CC-pVTZ\H4O2\C7441284\26-Aug-2022\0\\#p C
 CSD(T)/cc-pVTZ\\H2O_H2O_59\\0,1\O,0,0.,-0.009833,0.\H,0,-0.799571,-0.5
 80965,0.\H,0,0.799571,-0.580965,0.\O,0,-1.698706,-1.217655,0.\H,0,-2.6
 80829,-1.248316,0.\H,0,-1.35119,-2.136752,0.\\Version=ES64L-G16RevA.03
 \State=1-A'\HF=-152.038333\MP2=-152.5750518\MP3=-152.5804713\MP4D=-152
 .5892782\MP4DQ=-152.5809373\MP4SDQ=-152.5843374\CCSD=-152.5835862\CCSD
 (T)=-152.6005862\RMSD=3.199e-09\PG=CS [SG(H4O2)]\\@


 I CLAIM NOT TO HAVE CONTROLLED EVENTS,
 BUT CONFESS PLAINLY THAT EVENTS HAVE CONTROLLED ME.

                                         A. LINCOLN
 Job cpu time:       0 days  0 hours  1 minutes 31.7 seconds.
 Elapsed time:       0 days  0 hours  0 minutes 23.1 seconds.
 File lengths (MBytes):  RWF=    572 Int=      0 D2E=      0 Chk=      8 Scr=      8
 Normal termination of Gaussian 16 at Fri Aug 26 15:35:13 2022.
