 Entering Gaussian System, Link 0=g16
 Input=H2O_H2O_1163.com
 Output=H2O_H2O_1163.log
 Initial command:
 /usr/site/hpc/x86_64/glibc-2.17/broadwell/gaussian/g16_a.03/pgi-16.5/g16/l1.exe "/gpfs/gpfs1/scratch/c7441284/ForceFieldModel/FittingData2/Gau-117097.inp" -scrdir="/gpfs/gpfs1/scratch/c7441284/ForceFieldModel/FittingData2/"
 Entering Link 1 = /usr/site/hpc/x86_64/glibc-2.17/broadwell/gaussian/g16_a.03/pgi-16.5/g16/l1.exe PID=    117098.
  
 Copyright (c) 1988,1990,1992,1993,1995,1998,2003,2009,2016,
            Gaussian, Inc.  All Rights Reserved.
  
 This is part of the Gaussian(R) 16 program.  It is based on
 the Gaussian(R) 09 system (copyright 2009, Gaussian, Inc.),
 the Gaussian(R) 03 system (copyright 2003, Gaussian, Inc.),
 the Gaussian(R) 98 system (copyright 1998, Gaussian, Inc.),
 the Gaussian(R) 94 system (copyright 1995, Gaussian, Inc.),
 the Gaussian 92(TM) system (copyright 1992, Gaussian, Inc.),
 the Gaussian 90(TM) system (copyright 1990, Gaussian, Inc.),
 the Gaussian 88(TM) system (copyright 1988, Gaussian, Inc.),
 the Gaussian 86(TM) system (copyright 1986, Carnegie Mellon
 University), and the Gaussian 82(TM) system (copyright 1983,
 Carnegie Mellon University). Gaussian is a federally registered
 trademark of Gaussian, Inc.
  
 This software contains proprietary and confidential information,
 including trade secrets, belonging to Gaussian, Inc.
  
 This software is provided under written license and may be
 used, copied, transmitted, or stored only in accord with that
 written license.
  
 The following legend is applicable only to US Government
 contracts under FAR:
  
                    RESTRICTED RIGHTS LEGEND
  
 Use, reproduction and disclosure by the US Government is
 subject to restrictions as set forth in subparagraphs (a)
 and (c) of the Commercial Computer Software - Restricted
 Rights clause in FAR 52.227-19.
  
 Gaussian, Inc.
 340 Quinnipiac St., Bldg. 40, Wallingford CT 06492
  
  
 ---------------------------------------------------------------
 Warning -- This program may not be used in any manner that
 competes with the business of Gaussian, Inc. or will provide
 assistance to any competitor of Gaussian, Inc.  The licensee
 of this program is prohibited from giving any competitor of
 Gaussian, Inc. access to this program.  By using this program,
 the user acknowledges that Gaussian, Inc. is engaged in the
 business of creating and licensing software in the field of
 computational chemistry and represents and warrants to the
 licensee that it is not a competitor of Gaussian, Inc. and that
 it will not use this program in any manner prohibited above.
 ---------------------------------------------------------------
  

 Cite this work as:
 Gaussian 16, Revision A.03,
 M. J. Frisch, G. W. Trucks, H. B. Schlegel, G. E. Scuseria, 
 M. A. Robb, J. R. Cheeseman, G. Scalmani, V. Barone, 
 G. A. Petersson, H. Nakatsuji, X. Li, M. Caricato, A. V. Marenich, 
 J. Bloino, B. G. Janesko, R. Gomperts, B. Mennucci, H. P. Hratchian, 
 J. V. Ortiz, A. F. Izmaylov, J. L. Sonnenberg, D. Williams-Young, 
 F. Ding, F. Lipparini, F. Egidi, J. Goings, B. Peng, A. Petrone, 
 T. Henderson, D. Ranasinghe, V. G. Zakrzewski, J. Gao, N. Rega, 
 G. Zheng, W. Liang, M. Hada, M. Ehara, K. Toyota, R. Fukuda, 
 J. Hasegawa, M. Ishida, T. Nakajima, Y. Honda, O. Kitao, H. Nakai, 
 T. Vreven, K. Throssell, J. A. Montgomery, Jr., J. E. Peralta, 
 F. Ogliaro, M. J. Bearpark, J. J. Heyd, E. N. Brothers, K. N. Kudin, 
 V. N. Staroverov, T. A. Keith, R. Kobayashi, J. Normand, 
 K. Raghavachari, A. P. Rendell, J. C. Burant, S. S. Iyengar, 
 J. Tomasi, M. Cossi, J. M. Millam, M. Klene, C. Adamo, R. Cammi, 
 J. W. Ochterski, R. L. Martin, K. Morokuma, O. Farkas, 
 J. B. Foresman, and D. J. Fox, Gaussian, Inc., Wallingford CT, 2016.
 
 ******************************************
 Gaussian 16:  ES64L-G16RevA.03 25-Dec-2016
                26-Aug-2022 
 ******************************************
 %NProcShared=4
 Will use up to    4 processors via shared memory.
 %Mem=4GB
 %Chk=H2O_H2O_1163.chk
 ------------------
 #p CCSD(T)/cc-pVTZ
 ------------------
 1/38=1,172=1/1;
 2/12=2,17=6,18=5,40=1/2;
 3/5=16,6=1,11=9,25=1,30=1/1,2,3;
 4//1;
 5/5=2,38=5/2;
 8/6=4,9=120000,10=1/1,4;
 9/5=7,14=2/13;
 6/7=2,8=2,9=2,10=2/1;
 99/5=1,9=1/99;
 Leave Link    1 at Fri Aug 26 22:50:13 2022, MaxMem=   536870912 cpu:               0.3 elap:               0.1
 (Enter /usr/site/hpc/x86_64/glibc-2.17/broadwell/gaussian/g16_a.03/pgi-16.5/g16/l101.exe)
 ------------
 H2O_H2O_1163
 ------------
 Symbolic Z-matrix:
 Charge =  0 Multiplicity = 1
 O                     0.       -0.00983   0. 
 H                    -0.79957  -0.58097   0. 
 H                     0.79957  -0.58097   0. 
 O                    -2.41471  -1.72602   0. 
 H                    -3.3713   -1.50145   0. 
 H                    -2.31691  -2.70375   0. 
 
 ITRead=  0  0  0  0  0  0
 MicOpt= -1 -1 -1 -1 -1 -1
 NAtoms=      6 NQM=        6 NQMF=       0 NMMI=      0 NMMIF=      0
                NMic=       0 NMicF=      0.
                    Isotopes and Nuclear Properties:
 (Nuclear quadrupole moments (NQMom) in fm**2, nuclear magnetic moments (NMagM)
  in nuclear magnetons)

  Atom         1           2           3           4           5           6
 IAtWgt=          16           1           1          16           1           1
 AtmWgt=  15.9949146   1.0078250   1.0078250  15.9949146   1.0078250   1.0078250
 NucSpn=           0           1           1           0           1           1
 AtZEff=  -0.0000000  -0.0000000  -0.0000000  -0.0000000  -0.0000000  -0.0000000
 NQMom=    0.0000000   0.0000000   0.0000000   0.0000000   0.0000000   0.0000000
 NMagM=    0.0000000   2.7928460   2.7928460   0.0000000   2.7928460   2.7928460
 AtZNuc=   8.0000000   1.0000000   1.0000000   8.0000000   1.0000000   1.0000000
 Leave Link  101 at Fri Aug 26 22:50:13 2022, MaxMem=   536870912 cpu:               0.7 elap:               0.2
 (Enter /usr/site/hpc/x86_64/glibc-2.17/broadwell/gaussian/g16_a.03/pgi-16.5/g16/l202.exe)
                          Input orientation:                          
 ---------------------------------------------------------------------
 Center     Atomic      Atomic             Coordinates (Angstroms)
 Number     Number       Type             X           Y           Z
 ---------------------------------------------------------------------
      1          8           0        0.000000   -0.009833    0.000000
      2          1           0       -0.799571   -0.580965    0.000000
      3          1           0        0.799571   -0.580965    0.000000
      4          8           0       -2.414707   -1.726022    0.000000
      5          1           0       -3.371301   -1.501446    0.000000
      6          1           0       -2.316913   -2.703746    0.000000
 ---------------------------------------------------------------------
                    Distance matrix (angstroms):
                    1          2          3          4          5
     1  O    0.000000
     2  H    0.982601   0.000000
     3  H    0.982601   1.599142   0.000000
     4  O    2.962451   1.979853   3.412146   0.000000
     5  H    3.686540   2.731498   4.271236   0.982602   0.000000
     6  H    3.553203   2.609315   3.770765   0.982603   1.599143
                    6
     6  H    0.000000
 Stoichiometry    H4O2
 Framework group  CS[SG(H4O2)]
 Deg. of freedom     9
 Full point group                 CS      NOp   2
 Largest Abelian subgroup         CS      NOp   2
 Largest concise Abelian subgroup C1      NOp   1
                         Standard orientation:                         
 ---------------------------------------------------------------------
 Center     Atomic      Atomic             Coordinates (Angstroms)
 Number     Number       Type             X           Y           Z
 ---------------------------------------------------------------------
      1          8           0        0.052372    1.571128   -0.000000
      2          1           0        0.050043    0.588529   -0.000000
      3          1           0       -0.876363    1.891997   -0.000000
      4          8           0        0.052372   -1.391323    0.000000
      5          1           0        0.789593   -2.040947    0.000000
      6          1           0       -0.801228   -1.878020    0.000000
 ---------------------------------------------------------------------
 Rotational constants (GHZ):         242.1335153           6.1533058           6.0008081
 Leave Link  202 at Fri Aug 26 22:50:13 2022, MaxMem=   536870912 cpu:               0.0 elap:               0.0
 (Enter /usr/site/hpc/x86_64/glibc-2.17/broadwell/gaussian/g16_a.03/pgi-16.5/g16/l301.exe)
 Standard basis: CC-pVTZ (5D, 7F)
 Ernie: Thresh=  0.10000D-02 Tol=  0.10000D-05 Strict=F.
 Ernie:  6 primitive shells out of 84 were deleted.
 There are    92 symmetry adapted cartesian basis functions of A'  symmetry.
 There are    38 symmetry adapted cartesian basis functions of A"  symmetry.
 There are    80 symmetry adapted basis functions of A'  symmetry.
 There are    36 symmetry adapted basis functions of A"  symmetry.
   116 basis functions,   172 primitive gaussians,   130 cartesian basis functions
    10 alpha electrons       10 beta electrons
       nuclear repulsion energy        35.7070169085 Hartrees.
 IExCor=    0 DFT=F Ex=HF Corr=None ExCW=0 ScaHFX=  1.000000
 ScaDFX=  1.000000  1.000000  1.000000  1.000000 ScalE2=  1.000000  1.000000
 IRadAn=      5 IRanWt=     -1 IRanGd=            0 ICorTp=0 IEmpDi=  4
 NAtoms=    6 NActive=    6 NUniq=    6 SFac= 1.00D+00 NAtFMM=   60 NAOKFM=F Big=F
 Integral buffers will be    131072 words long.
 Raffenetti 1 integral format.
 Two-electron integral symmetry is turned on.
 Leave Link  301 at Fri Aug 26 22:50:13 2022, MaxMem=   536870912 cpu:               0.1 elap:               0.0
 (Enter /usr/site/hpc/x86_64/glibc-2.17/broadwell/gaussian/g16_a.03/pgi-16.5/g16/l302.exe)
 NPDir=0 NMtPBC=     1 NCelOv=     1 NCel=       1 NClECP=     1 NCelD=      1
         NCelK=      1 NCelE2=     1 NClLst=     1 CellRange=     0.0.
 One-electron integrals computed using PRISM.
 One-electron integral symmetry used in STVInt
 NBasis=   116 RedAO= T EigKep=  2.22D-03  NBF=    80    36
 NBsUse=   116 1.00D-06 EigRej= -1.00D+00 NBFU=    80    36
 Leave Link  302 at Fri Aug 26 22:50:13 2022, MaxMem=   536870912 cpu:               0.5 elap:               0.1
 (Enter /usr/site/hpc/x86_64/glibc-2.17/broadwell/gaussian/g16_a.03/pgi-16.5/g16/l303.exe)
 DipDrv:  MaxL=1.
 Leave Link  303 at Fri Aug 26 22:50:13 2022, MaxMem=   536870912 cpu:               0.1 elap:               0.0
 (Enter /usr/site/hpc/x86_64/glibc-2.17/broadwell/gaussian/g16_a.03/pgi-16.5/g16/l401.exe)
 ExpMin= 1.03D-01 ExpMax= 1.53D+04 ExpMxC= 5.22D+02 IAcc=3 IRadAn=         5 AccDes= 0.00D+00
 Harris functional with IExCor=  205 and IRadAn=       5 diagonalized for initial guess.
 HarFok:  IExCor=  205 AccDes= 0.00D+00 IRadAn=         5 IDoV= 1 UseB2=F ITyADJ=14
 ICtDFT=  3500011 ScaDFX=  1.000000  1.000000  1.000000  1.000000
 FoFCou: FMM=F IPFlag=           0 FMFlag=      100000 FMFlg1=           0
         NFxFlg=           0 DoJE=T BraDBF=F KetDBF=T FulRan=T
         wScrn=  0.000000 ICntrl=       500 IOpCl=  0 I1Cent=   200000004 NGrid=           0
         NMat0=    1 NMatS0=      1 NMatT0=    0 NMatD0=    1 NMtDS0=    0 NMtDT0=    0
 Petite list used in FoFCou.
 Harris En= -152.305286582301    
 JPrj=0 DoOrth=F DoCkMO=F.
 Initial guess orbital symmetries:
       Occupied  (A') (A') (A') (A') (A') (A') (A') (A') (A") (A")
       Virtual   (A') (A') (A') (A') (A') (A') (A') (A') (A') (A")
                 (A') (A") (A') (A') (A") (A") (A') (A") (A') (A')
                 (A") (A') (A') (A') (A') (A') (A') (A') (A") (A")
                 (A") (A") (A') (A') (A') (A') (A') (A') (A') (A')
                 (A') (A') (A") (A") (A') (A") (A") (A') (A") (A")
                 (A') (A') (A') (A') (A') (A') (A") (A") (A') (A")
                 (A') (A') (A") (A') (A") (A") (A') (A') (A') (A")
                 (A') (A") (A') (A') (A') (A') (A') (A') (A') (A')
                 (A") (A") (A') (A') (A") (A") (A") (A") (A') (A")
                 (A") (A') (A') (A') (A') (A") (A") (A') (A') (A')
                 (A') (A') (A') (A') (A') (A')
 The electronic state of the initial guess is 1-A'.
 Leave Link  401 at Fri Aug 26 22:50:13 2022, MaxMem=   536870912 cpu:               0.8 elap:               0.2
 (Enter /usr/site/hpc/x86_64/glibc-2.17/broadwell/gaussian/g16_a.03/pgi-16.5/g16/l502.exe)
 Keep R1 ints in memory in symmetry-blocked form, NReq=34823457.
 FoFCou: FMM=F IPFlag=           0 FMFlag=           0 FMFlg1=           0
         NFxFlg=           0 DoJE=F BraDBF=F KetDBF=F FulRan=T
         wScrn=  0.000000 ICntrl=       600 IOpCl=  0 I1Cent=           0 NGrid=           0
         NMat0=    1 NMatS0=   6786 NMatT0=    0 NMatD0=    1 NMtDS0=    0 NMtDT0=    0
 Petite list used in FoFCou.
 Closed shell SCF:
 Using DIIS extrapolation, IDIIS=  1040.
 NGot=   536870912 LenX=   525040673 LenY=   525023332
 Requested convergence on RMS density matrix=1.00D-08 within 128 cycles.
 Requested convergence on MAX density matrix=1.00D-06.
 Requested convergence on             energy=1.00D-06.
 No special actions if energy rises.

 Cycle   1  Pass 1  IDiag  1:
 E= -151.944652747861    
 DIIS: error= 5.13D-02 at cycle   1 NSaved=   1.
 NSaved= 1 IEnMin= 1 EnMin= -151.944652747861     IErMin= 1 ErrMin= 5.13D-02
 ErrMax= 5.13D-02  0.00D+00 EMaxC= 1.00D-01 BMatC= 3.87D-01 BMatP= 3.87D-01
 IDIUse=3 WtCom= 4.87D-01 WtEn= 5.13D-01
 Coeff-Com:  0.100D+01
 Coeff-En:   0.100D+01
 Coeff:      0.100D+01
 Gap=     0.491 Goal=   None    Shift=    0.000
 GapD=    0.491 DampG=2.000 DampE=0.500 DampFc=1.0000 IDamp=-1.
 RMSDP=2.60D-03 MaxDP=7.21D-02              OVMax= 1.17D-01

 Cycle   2  Pass 1  IDiag  1:
 E= -152.052557407640     Delta-E=       -0.107904659779 Rises=F Damp=F
 DIIS: error= 3.13D-02 at cycle   2 NSaved=   2.
 NSaved= 2 IEnMin= 2 EnMin= -152.052557407640     IErMin= 2 ErrMin= 3.13D-02
 ErrMax= 3.13D-02  0.00D+00 EMaxC= 1.00D-01 BMatC= 1.01D-01 BMatP= 3.87D-01
 IDIUse=3 WtCom= 6.87D-01 WtEn= 3.13D-01
 Coeff-Com:  0.309D+00 0.691D+00
 Coeff-En:   0.142D+00 0.858D+00
 Coeff:      0.256D+00 0.744D+00
 Gap=     0.609 Goal=   None    Shift=    0.000
 RMSDP=1.36D-03 MaxDP=4.04D-02 DE=-1.08D-01 OVMax= 5.59D-02

 Cycle   3  Pass 1  IDiag  1:
 E= -152.110703853496     Delta-E=       -0.058146445856 Rises=F Damp=F
 DIIS: error= 7.06D-03 at cycle   3 NSaved=   3.
 NSaved= 3 IEnMin= 3 EnMin= -152.110703853496     IErMin= 3 ErrMin= 7.06D-03
 ErrMax= 7.06D-03  0.00D+00 EMaxC= 1.00D-01 BMatC= 5.04D-03 BMatP= 1.01D-01
 IDIUse=3 WtCom= 9.29D-01 WtEn= 7.06D-02
 Coeff-Com: -0.300D-01 0.150D+00 0.880D+00
 Coeff-En:   0.000D+00 0.000D+00 0.100D+01
 Coeff:     -0.279D-01 0.139D+00 0.889D+00
 Gap=     0.584 Goal=   None    Shift=    0.000
 RMSDP=2.34D-04 MaxDP=5.93D-03 DE=-5.81D-02 OVMax= 1.21D-02

 Cycle   4  Pass 1  IDiag  1:
 E= -152.113842662825     Delta-E=       -0.003138809330 Rises=F Damp=F
 DIIS: error= 6.49D-04 at cycle   4 NSaved=   4.
 NSaved= 4 IEnMin= 4 EnMin= -152.113842662825     IErMin= 4 ErrMin= 6.49D-04
 ErrMax= 6.49D-04  0.00D+00 EMaxC= 1.00D-01 BMatC= 2.73D-05 BMatP= 5.04D-03
 IDIUse=3 WtCom= 9.94D-01 WtEn= 6.49D-03
 Coeff-Com:  0.725D-02-0.593D-01-0.264D+00 0.132D+01
 Coeff-En:   0.000D+00 0.000D+00 0.000D+00 0.100D+01
 Coeff:      0.721D-02-0.590D-01-0.262D+00 0.131D+01
 Gap=     0.586 Goal=   None    Shift=    0.000
 RMSDP=5.62D-05 MaxDP=9.28D-04 DE=-3.14D-03 OVMax= 2.62D-03

 Cycle   5  Pass 1  IDiag  1:
 E= -152.113888565150     Delta-E=       -0.000045902325 Rises=F Damp=F
 DIIS: error= 1.64D-04 at cycle   5 NSaved=   5.
 NSaved= 5 IEnMin= 5 EnMin= -152.113888565150     IErMin= 5 ErrMin= 1.64D-04
 ErrMax= 1.64D-04  0.00D+00 EMaxC= 1.00D-01 BMatC= 1.32D-06 BMatP= 2.73D-05
 IDIUse=3 WtCom= 9.98D-01 WtEn= 1.64D-03
 Coeff-Com:  0.983D-03-0.415D-02-0.197D-01-0.108D+00 0.113D+01
 Coeff-En:   0.000D+00 0.000D+00 0.000D+00 0.000D+00 0.100D+01
 Coeff:      0.981D-03-0.414D-02-0.197D-01-0.108D+00 0.113D+01
 Gap=     0.587 Goal=   None    Shift=    0.000
 RMSDP=1.37D-05 MaxDP=3.21D-04 DE=-4.59D-05 OVMax= 6.27D-04

 Cycle   6  Pass 1  IDiag  1:
 E= -152.113891026569     Delta-E=       -0.000002461419 Rises=F Damp=F
 DIIS: error= 4.88D-05 at cycle   6 NSaved=   6.
 NSaved= 6 IEnMin= 6 EnMin= -152.113891026569     IErMin= 6 ErrMin= 4.88D-05
 ErrMax= 4.88D-05  0.00D+00 EMaxC= 1.00D-01 BMatC= 1.42D-07 BMatP= 1.32D-06
 IDIUse=1 WtCom= 1.00D+00 WtEn= 0.00D+00
 Coeff-Com: -0.139D-03 0.226D-02 0.102D-01-0.110D+00 0.298D+00 0.799D+00
 Coeff:     -0.139D-03 0.226D-02 0.102D-01-0.110D+00 0.298D+00 0.799D+00
 Gap=     0.587 Goal=   None    Shift=    0.000
 RMSDP=2.88D-06 MaxDP=7.50D-05 DE=-2.46D-06 OVMax= 1.66D-04

 Cycle   7  Pass 1  IDiag  1:
 E= -152.113891190049     Delta-E=       -0.000000163480 Rises=F Damp=F
 DIIS: error= 1.20D-05 at cycle   7 NSaved=   7.
 NSaved= 7 IEnMin= 7 EnMin= -152.113891190049     IErMin= 7 ErrMin= 1.20D-05
 ErrMax= 1.20D-05  0.00D+00 EMaxC= 1.00D-01 BMatC= 8.69D-09 BMatP= 1.42D-07
 IDIUse=1 WtCom= 1.00D+00 WtEn= 0.00D+00
 Coeff-Com: -0.987D-04 0.430D-03 0.182D-02 0.988D-02-0.125D+00 0.135D-01
 Coeff-Com:  0.110D+01
 Coeff:     -0.987D-04 0.430D-03 0.182D-02 0.988D-02-0.125D+00 0.135D-01
 Coeff:      0.110D+01
 Gap=     0.587 Goal=   None    Shift=    0.000
 RMSDP=1.34D-06 MaxDP=3.52D-05 DE=-1.63D-07 OVMax= 6.58D-05

 Cycle   8  Pass 1  IDiag  1:
 E= -152.113891208066     Delta-E=       -0.000000018016 Rises=F Damp=F
 DIIS: error= 2.10D-06 at cycle   8 NSaved=   8.
 NSaved= 8 IEnMin= 8 EnMin= -152.113891208066     IErMin= 8 ErrMin= 2.10D-06
 ErrMax= 2.10D-06  0.00D+00 EMaxC= 1.00D-01 BMatC= 4.17D-10 BMatP= 8.69D-09
 IDIUse=1 WtCom= 1.00D+00 WtEn= 0.00D+00
 Coeff-Com:  0.257D-04-0.228D-03-0.104D-02 0.599D-02 0.208D-02-0.474D-01
 Coeff-Com: -0.160D+00 0.120D+01
 Coeff:      0.257D-04-0.228D-03-0.104D-02 0.599D-02 0.208D-02-0.474D-01
 Coeff:     -0.160D+00 0.120D+01
 Gap=     0.587 Goal=   None    Shift=    0.000
 RMSDP=2.32D-07 MaxDP=4.50D-06 DE=-1.80D-08 OVMax= 1.54D-05

 Cycle   9  Pass 1  IDiag  1:
 E= -152.113891208983     Delta-E=       -0.000000000918 Rises=F Damp=F
 DIIS: error= 7.31D-07 at cycle   9 NSaved=   9.
 NSaved= 9 IEnMin= 9 EnMin= -152.113891208983     IErMin= 9 ErrMin= 7.31D-07
 ErrMax= 7.31D-07  0.00D+00 EMaxC= 1.00D-01 BMatC= 2.51D-11 BMatP= 4.17D-10
 IDIUse=1 WtCom= 1.00D+00 WtEn= 0.00D+00
 Coeff-Com:  0.155D-05 0.176D-04 0.116D-03-0.219D-02 0.855D-02 0.111D-01
 Coeff-Com: -0.407D-01-0.259D+00 0.128D+01
 Coeff:      0.155D-05 0.176D-04 0.116D-03-0.219D-02 0.855D-02 0.111D-01
 Coeff:     -0.407D-01-0.259D+00 0.128D+01
 Gap=     0.587 Goal=   None    Shift=    0.000
 RMSDP=5.99D-08 MaxDP=1.12D-06 DE=-9.18D-10 OVMax= 3.63D-06

 Cycle  10  Pass 1  IDiag  1:
 E= -152.113891209039     Delta-E=       -0.000000000055 Rises=F Damp=F
 DIIS: error= 1.02D-07 at cycle  10 NSaved=  10.
 NSaved=10 IEnMin=10 EnMin= -152.113891209039     IErMin=10 ErrMin= 1.02D-07
 ErrMax= 1.02D-07  0.00D+00 EMaxC= 1.00D-01 BMatC= 5.08D-13 BMatP= 2.51D-11
 IDIUse=1 WtCom= 1.00D+00 WtEn= 0.00D+00
 Coeff-Com: -0.791D-06 0.424D-05 0.153D-04 0.442D-04-0.704D-03-0.679D-04
 Coeff-Com:  0.594D-02 0.836D-02-0.170D+00 0.116D+01
 Coeff:     -0.791D-06 0.424D-05 0.153D-04 0.442D-04-0.704D-03-0.679D-04
 Coeff:      0.594D-02 0.836D-02-0.170D+00 0.116D+01
 Gap=     0.587 Goal=   None    Shift=    0.000
 RMSDP=7.09D-09 MaxDP=1.04D-07 DE=-5.53D-11 OVMax= 4.77D-07

 SCF Done:  E(RHF) =  -152.113891209     A.U. after   10 cycles
            NFock= 10  Conv=0.71D-08     -V/T= 2.0020
 KE= 1.518102017729D+02 PE=-4.328586841893D+02 EE= 9.322757429880D+01
 Leave Link  502 at Fri Aug 26 22:50:14 2022, MaxMem=   536870912 cpu:               4.4 elap:               1.2
 (Enter /usr/site/hpc/x86_64/glibc-2.17/broadwell/gaussian/g16_a.03/pgi-16.5/g16/l801.exe)
 Windowed orbitals will be sorted by symmetry type.
 ExpMin= 1.03D-01 ExpMax= 1.53D+04 ExpMxC= 5.22D+02 IAcc=3 IRadAn=         5 AccDes= 0.00D+00
 HarFok:  IExCor=  205 AccDes= 0.00D+00 IRadAn=         5 IDoV=-2 UseB2=F ITyADJ=14
 ICtDFT= 12500011 ScaDFX=  1.000000  1.000000  1.000000  1.000000
 Largest valence mixing into a core orbital is  1.11D-04
 Largest core mixing into a valence orbital is  1.77D-05
 Range of M.O.s used for correlation:     3   116
 NBasis=   116 NAE=    10 NBE=    10 NFC=     2 NFV=     0
 NROrb=    114 NOA=     8 NOB=     8 NVA=   106 NVB=   106
 Leave Link  801 at Fri Aug 26 22:50:14 2022, MaxMem=   536870912 cpu:               0.3 elap:               0.1
 (Enter /usr/site/hpc/x86_64/glibc-2.17/broadwell/gaussian/g16_a.03/pgi-16.5/g16/l804.exe)
 Closed-shell transformation, MDV=   536870912 ITran=4 ISComp=2.
 Unit  1 TFree=        834515 TCopy=        406125.
 Semi-Direct transformation.
 ModeAB=           4 MOrb=             8 LenV=     536362833
 LASXX=      2873146 LTotXX=     2873146 LenRXX=     5831278
 LTotAB=     2958132 MaxLAS=     7764768 LenRXY=           0
 NonZer=     8704424 LenScr=    13107200 LnRSAI=     7764768
 LnScr1=    12058624 LExtra=           0 Total=     38761870
 MaxDsk=          -1 SrtSym=           T ITran=            4
 DoSDTr:  NPSUse=  4
 JobTyp=0 Pass  1:  I=   1 to   8.
 (rs|ai) integrals will be sorted in core.
 Complete sort for first half transformation.
 First half transformation complete.
 Complete sort for second half transformation.
 Second half transformation complete.
 Spin components of T(2) and E(2):
     alpha-alpha T2 =       0.1574484301D-01 E2=     -0.6444762436D-01
     alpha-beta  T2 =       0.9190642456D-01 E2=     -0.3991714646D+00
     beta-beta   T2 =       0.1574484301D-01 E2=     -0.6444762436D-01
 ANorm=    0.1059903821D+01
 E2 =    -0.5280667134D+00 EUMP2 =    -0.15264195792239D+03
 Leave Link  804 at Fri Aug 26 22:50:16 2022, MaxMem=   536870912 cpu:               4.5 elap:               1.1
 (Enter /usr/site/hpc/x86_64/glibc-2.17/broadwell/gaussian/g16_a.03/pgi-16.5/g16/l913.exe)
 CIDS:  MDV=   536870912.
 Frozen-core window:  NFC=   2 NFV=   0.
 IFCWin=0 IBDFC=1 NFBD=     0     0 NFCmp=     0     0 NFFFC=     0     0
 Using DD3R+UMP44R for 1st iteration.
 Using DD4RQ for 2nd and later iterations.
 Keep R2 and R3 ints in memory in symmetry-blocked form, NReq=35357534.
 FoFCou: FMM=F IPFlag=           0 FMFlag=           0 FMFlg1=           0
         NFxFlg=           0 DoJE=F BraDBF=F KetDBF=F FulRan=T
         wScrn=  0.000000 ICntrl=       600 IOpCl=  0 I1Cent=           0 NGrid=           0
         NMat0=    1 NMatS0=   6786 NMatT0=    0 NMatD0=    1 NMtDS0=    0 NMtDT0=    0
 Petite list used in FoFCou.
 CIDS: In Core Option IDoMem=           1.
 CCSD(T)
 =======
 Iterations=  50 Convergence= 0.100D-06
 Produce multiple copies of IABC intergrals
 Iteration Nr.   1
 **********************
 DD1Dir will call FoFMem   1 times, MxPair=        72
 NAB=    36 NAA=     0 NBB=     0.
 MP4(R+Q)=  0.77250627D-02
 Maximum subspace dimension=  5
 A-vector RMS=  1.8244314D-03 Max=  5.5334326D-03 conv= 1.00D-05.
 RLE energy=       -0.5273760243
 E3=       -0.70997143D-02        EUMP3=      -0.15264905764D+03
 E4(DQ)=   -0.13256225D-02        UMP4(DQ)=   -0.15265038326D+03
 E4(SDQ)=  -0.44740124D-02        UMP4(SDQ)=  -0.15265353165D+03
 VARIATIONAL ENERGIES WITH THE FIRST-ORDER WAVEFUNCTION:
 DE(Corr)= -0.52737513     E(Corr)=     -152.64126634    
 NORM(A)=   0.10600756D+01
 Iteration Nr.   2
 **********************
 DD1Dir will call FoFMem   1 times, MxPair=        72
 NAB=    36 NAA=     0 NBB=     0.
 A-vector RMS=  2.1216162D-04 Max=  1.8176622D-03 conv= 1.00D-05.
 RLE energy=       -0.5384209977
 DE(Corr)= -0.53733316     E(CORR)=     -152.65122437     Delta=-9.96D-03
 NORM(A)=   0.10638033D+01
 Iteration Nr.   3
 **********************
 DD1Dir will call FoFMem   1 times, MxPair=        72
 NAB=    36 NAA=     0 NBB=     0.
 A-vector RMS=  1.6178015D-04 Max=  1.0325128D-03 conv= 1.00D-05.
 RLE energy=       -0.5389093049
 DE(Corr)= -0.53832178     E(CORR)=     -152.65221299     Delta=-9.89D-04
 NORM(A)=   0.10644250D+01
 Iteration Nr.   4
 **********************
 DD1Dir will call FoFMem   1 times, MxPair=        72
 NAB=    36 NAA=     0 NBB=     0.
 A-vector RMS=  3.2688152D-05 Max=  1.5338665D-04 conv= 1.00D-05.
 RLE energy=       -0.5389862436
 DE(Corr)= -0.53895325     E(CORR)=     -152.65284445     Delta=-6.31D-04
 NORM(A)=   0.10645361D+01
 Iteration Nr.   5
 **********************
 DD1Dir will call FoFMem   1 times, MxPair=        72
 NAB=    36 NAA=     0 NBB=     0.
 A-vector RMS=  1.9847039D-05 Max=  2.1043123D-04 conv= 1.00D-05.
 RLE energy=       -0.5389998146
 DE(Corr)= -0.53899231     E(CORR)=     -152.65288352     Delta=-3.91D-05
 NORM(A)=   0.10645490D+01
 Iteration Nr.   6
 **********************
 DD1Dir will call FoFMem   1 times, MxPair=        72
 NAB=    36 NAA=     0 NBB=     0.
 A-vector RMS=  5.7251358D-06 Max=  4.1688972D-05 conv= 1.00D-05.
 RLE energy=       -0.5389929814
 DE(Corr)= -0.53899617     E(CORR)=     -152.65288738     Delta=-3.86D-06
 NORM(A)=   0.10645484D+01
 Iteration Nr.   7
 **********************
 DD1Dir will call FoFMem   1 times, MxPair=        72
 NAB=    36 NAA=     0 NBB=     0.
 A-vector RMS=  2.8817784D-06 Max=  3.1539209D-05 conv= 1.00D-05.
 RLE energy=       -0.5389950075
 DE(Corr)= -0.53899639     E(CORR)=     -152.65288760     Delta=-2.13D-07
 NORM(A)=   0.10645495D+01
 Iteration Nr.   8
 **********************
 DD1Dir will call FoFMem   1 times, MxPair=        72
 NAB=    36 NAA=     0 NBB=     0.
 A-vector RMS=  1.1288899D-06 Max=  1.0693137D-05 conv= 1.00D-05.
 RLE energy=       -0.5389957421
 DE(Corr)= -0.53899600     E(CORR)=     -152.65288721     Delta= 3.89D-07
 NORM(A)=   0.10645499D+01
 Iteration Nr.   9
 **********************
 DD1Dir will call FoFMem   1 times, MxPair=        72
 NAB=    36 NAA=     0 NBB=     0.
 A-vector RMS=  2.8038101D-07 Max=  3.4486070D-06 conv= 1.00D-05.
 RLE energy=       -0.5389959594
 DE(Corr)= -0.53899603     E(CORR)=     -152.65288723     Delta=-2.84D-08
 NORM(A)=   0.10645503D+01
 CI/CC converged in    9 iterations to DelEn=-2.84D-08 Conv= 1.00D-07 ErrA1= 2.80D-07 Conv= 1.00D-05
 Wavefunction amplitudes converged. E(Corr)=     -152.65288723    
 Largest amplitude= 3.84D-02
 IPart=  4 IA=    7   11.05% done.
 IPart=  4 IA=   13   21.46% done.
 IPart=  2 IA=   19   31.21% done.
 IPart=  2 IA=   25   40.32% done.
 IPart=  2 IA=   32   50.13% done.
 IPart=  4 IA=   40   60.27% done.
 IPart=  3 IA=   49   70.30% done.
 IPart=  1 IA=   60   80.58% done.
 IPart=  3 IA=   74   90.51% done.
 Time for triples=       52.27 seconds.
 T4(CCSD)= -0.16399826D-01
 T5(CCSD)=  0.41800518D-03
 CCSD(T)= -0.15266886906D+03
 Discarding MO integrals.
 Leave Link  913 at Fri Aug 26 22:50:34 2022, MaxMem=   536870912 cpu:              75.2 elap:              18.9
 (Enter /usr/site/hpc/x86_64/glibc-2.17/broadwell/gaussian/g16_a.03/pgi-16.5/g16/l601.exe)
 Copying SCF densities to generalized density rwf, IOpCl= 0 IROHF=0.

 **********************************************************************

            Population analysis using the SCF density.

 **********************************************************************

 Orbital symmetries:
       Occupied  (A') (A') (A') (A') (A') (A') (A') (A") (A') (A")
       Virtual   (A') (A') (A') (A') (A') (A') (A') (A') (A') (A')
                 (A") (A') (A") (A") (A') (A") (A') (A") (A') (A")
                 (A') (A') (A') (A') (A') (A') (A') (A') (A") (A")
                 (A") (A') (A") (A') (A') (A') (A') (A') (A') (A')
                 (A') (A') (A") (A") (A') (A") (A') (A") (A') (A')
                 (A") (A") (A') (A') (A") (A') (A') (A") (A") (A")
                 (A') (A') (A') (A") (A') (A") (A') (A') (A') (A')
                 (A") (A") (A') (A') (A') (A') (A') (A') (A') (A')
                 (A") (A") (A') (A') (A") (A") (A") (A") (A') (A")
                 (A") (A') (A') (A') (A") (A') (A") (A') (A') (A')
                 (A') (A') (A') (A') (A') (A')
 The electronic state is 1-A'.
 Alpha  occ. eigenvalues --  -20.58518 -20.52125  -1.35912  -1.29708  -0.73178
 Alpha  occ. eigenvalues --   -0.67952  -0.59574  -0.53004  -0.52862  -0.46834
 Alpha virt. eigenvalues --    0.11879   0.17796   0.19031   0.31037   0.48751
 Alpha virt. eigenvalues --    0.54793   0.56610   0.60111   0.69476   0.71584
 Alpha virt. eigenvalues --    0.73126   0.77068   0.82241   0.82618   0.84913
 Alpha virt. eigenvalues --    0.85665   0.88829   0.95301   1.03836   1.09518
 Alpha virt. eigenvalues --    1.11967   1.13450   1.30242   1.32437   1.50213
 Alpha virt. eigenvalues --    1.50295   1.54771   1.87051   1.95750   2.03680
 Alpha virt. eigenvalues --    2.05160   2.06297   2.13268   2.15412   2.17602
 Alpha virt. eigenvalues --    2.25969   2.32404   2.41035   2.59398   2.67133
 Alpha virt. eigenvalues --    2.91751   2.98199   3.36600   3.42854   3.50168
 Alpha virt. eigenvalues --    3.50598   3.53206   3.56522   3.57187   3.62792
 Alpha virt. eigenvalues --    3.75449   3.82378   3.83343   3.89124   3.91012
 Alpha virt. eigenvalues --    3.93035   3.95934   3.95940   4.03976   4.08331
 Alpha virt. eigenvalues --    4.11489   4.12128   4.15597   4.27363   4.31190
 Alpha virt. eigenvalues --    4.33516   4.41228   4.44628   4.50905   4.62458
 Alpha virt. eigenvalues --    4.64965   4.70100   4.80998   4.84276   5.01616
 Alpha virt. eigenvalues --    5.07211   5.26045   5.43733   5.53428   5.59443
 Alpha virt. eigenvalues --    5.95054   6.01043   6.38681   6.45926   6.82861
 Alpha virt. eigenvalues --    6.86618   6.88332   6.91853   6.94296   6.99839
 Alpha virt. eigenvalues --    7.02626   7.05561   7.08764   7.14369   7.15122
 Alpha virt. eigenvalues --    7.17278   7.21771   7.33460   7.45316   7.55102
 Alpha virt. eigenvalues --    7.66817   7.77314   8.15110   8.21656  12.57191
 Alpha virt. eigenvalues --   12.88154
          Condensed to atoms (all electrons):
               1          2          3          4          5          6
     1  O    7.866227   0.355327   0.344632  -0.011307   0.000508   0.000938
     2  H    0.355327   0.370771  -0.039736   0.027481  -0.002110  -0.002599
     3  H    0.344632  -0.039736   0.453782  -0.000016   0.000032   0.000225
     4  O   -0.011307   0.027481  -0.000016   7.849238   0.318604   0.314519
     5  H    0.000508  -0.002110   0.000032   0.318604   0.437310  -0.019336
     6  H    0.000938  -0.002599   0.000225   0.314519  -0.019336   0.448348
 Mulliken charges:
               1
     1  O   -0.556325
     2  H    0.290866
     3  H    0.241082
     4  O   -0.498520
     5  H    0.264991
     6  H    0.257905
 Sum of Mulliken charges =  -0.00000
 Mulliken charges with hydrogens summed into heavy atoms:
               1
     1  O   -0.024377
     4  O    0.024377
 Electronic spatial extent (au):  <R**2>=            198.9420
 Charge=             -0.0000 electrons
 Dipole moment (field-independent basis, Debye):
    X=             -1.7376    Y=             -3.6839    Z=              0.0000  Tot=              4.0731
 Quadrupole moment (field-independent basis, Debye-Ang):
   XX=             -9.2318   YY=             -8.5901   ZZ=            -14.7312
   XY=             -3.4486   XZ=              0.0000   YZ=             -0.0000
 Traceless Quadrupole moment (field-independent basis, Debye-Ang):
   XX=              1.6192   YY=              2.2610   ZZ=             -3.8802
   XY=             -3.4486   XZ=              0.0000   YZ=             -0.0000
 Octapole moment (field-independent basis, Debye-Ang**2):
  XXX=             -1.9595  YYY=            -20.7233  ZZZ=              0.0000  XYY=             -6.1514
  XXY=             -3.4663  XXZ=              0.0000  XZZ=             -0.2235  YZZ=             -0.6512
  YYZ=              0.0000  XYZ=              0.0000
 Hexadecapole moment (field-independent basis, Debye-Ang**3):
 XXXX=            -11.3463 YYYY=           -154.0490 ZZZZ=            -11.3967 XXXY=             -0.8136
 XXXZ=              0.0000 YYYX=            -14.3085 YYYZ=              0.0000 ZZZX=             -0.0000
 ZZZY=              0.0000 XXYY=            -18.8730 XXZZ=             -4.4618 YYZZ=            -37.4349
 XXYZ=              0.0000 YYXZ=              0.0000 ZZXY=              0.7267
 N-N= 3.570701690855D+01 E-N=-4.328586842332D+02  KE= 1.518102017729D+02
 Symmetry A'   KE= 1.427896457855D+02
 Symmetry A"   KE= 9.020555987472D+00
 Leave Link  601 at Fri Aug 26 22:50:35 2022, MaxMem=   536870912 cpu:               0.2 elap:               0.1
 (Enter /usr/site/hpc/x86_64/glibc-2.17/broadwell/gaussian/g16_a.03/pgi-16.5/g16/l9999.exe)
 1\1\GINC-N041\SP\RCCSD(T)-FC\CC-pVTZ\H4O2\C7441284\26-Aug-2022\0\\#p C
 CSD(T)/cc-pVTZ\\H2O_H2O_1163\\0,1\O,0,0.,-0.009833,0.\H,0,-0.799571,-0
 .580965,0.\H,0,0.799571,-0.580965,0.\O,0,-2.414707,-1.726022,0.\H,0,-3
 .371301,-1.501446,0.\H,0,-2.316913,-2.703746,0.\\Version=ES64L-G16RevA
 .03\State=1-A'\HF=-152.1138912\MP2=-152.6419579\MP3=-152.6490576\MP4D=
 -152.6581083\MP4DQ=-152.6503833\MP4SDQ=-152.6535316\CCSD=-152.6528872\
 CCSD(T)=-152.6688691\RMSD=7.085e-09\PG=CS [SG(H4O2)]\\@


 SCIENCE AND PEACE WILL TRIUMPH OVER IGNORANCE AND WAR

                          -- PASTEUR
 Job cpu time:       0 days  0 hours  1 minutes 27.4 seconds.
 Elapsed time:       0 days  0 hours  0 minutes 22.0 seconds.
 File lengths (MBytes):  RWF=    368 Int=      0 D2E=      0 Chk=      8 Scr=      8
 Normal termination of Gaussian 16 at Fri Aug 26 22:50:35 2022.
