 Entering Gaussian System, Link 0=g16
 Input=H2O_H2O_4298.com
 Output=H2O_H2O_4298.log
 Initial command:
 /usr/site/hpc/x86_64/glibc-2.17/broadwell/gaussian/g16_a.03/pgi-16.5/g16/l1.exe "/gpfs/gpfs1/scratch/c7441284/ForceFieldModel/FittingData2/Gau-909767.inp" -scrdir="/gpfs/gpfs1/scratch/c7441284/ForceFieldModel/FittingData2/"
 Entering Link 1 = /usr/site/hpc/x86_64/glibc-2.17/broadwell/gaussian/g16_a.03/pgi-16.5/g16/l1.exe PID=    909768.
  
 Copyright (c) 1988,1990,1992,1993,1995,1998,2003,2009,2016,
            Gaussian, Inc.  All Rights Reserved.
  
 This is part of the Gaussian(R) 16 program.  It is based on
 the Gaussian(R) 09 system (copyright 2009, Gaussian, Inc.),
 the Gaussian(R) 03 system (copyright 2003, Gaussian, Inc.),
 the Gaussian(R) 98 system (copyright 1998, Gaussian, Inc.),
 the Gaussian(R) 94 system (copyright 1995, Gaussian, Inc.),
 the Gaussian 92(TM) system (copyright 1992, Gaussian, Inc.),
 the Gaussian 90(TM) system (copyright 1990, Gaussian, Inc.),
 the Gaussian 88(TM) system (copyright 1988, Gaussian, Inc.),
 the Gaussian 86(TM) system (copyright 1986, Carnegie Mellon
 University), and the Gaussian 82(TM) system (copyright 1983,
 Carnegie Mellon University). Gaussian is a federally registered
 trademark of Gaussian, Inc.
  
 This software contains proprietary and confidential information,
 including trade secrets, belonging to Gaussian, Inc.
  
 This software is provided under written license and may be
 used, copied, transmitted, or stored only in accord with that
 written license.
  
 The following legend is applicable only to US Government
 contracts under FAR:
  
                    RESTRICTED RIGHTS LEGEND
  
 Use, reproduction and disclosure by the US Government is
 subject to restrictions as set forth in subparagraphs (a)
 and (c) of the Commercial Computer Software - Restricted
 Rights clause in FAR 52.227-19.
  
 Gaussian, Inc.
 340 Quinnipiac St., Bldg. 40, Wallingford CT 06492
  
  
 ---------------------------------------------------------------
 Warning -- This program may not be used in any manner that
 competes with the business of Gaussian, Inc. or will provide
 assistance to any competitor of Gaussian, Inc.  The licensee
 of this program is prohibited from giving any competitor of
 Gaussian, Inc. access to this program.  By using this program,
 the user acknowledges that Gaussian, Inc. is engaged in the
 business of creating and licensing software in the field of
 computational chemistry and represents and warrants to the
 licensee that it is not a competitor of Gaussian, Inc. and that
 it will not use this program in any manner prohibited above.
 ---------------------------------------------------------------
  

 Cite this work as:
 Gaussian 16, Revision A.03,
 M. J. Frisch, G. W. Trucks, H. B. Schlegel, G. E. Scuseria, 
 M. A. Robb, J. R. Cheeseman, G. Scalmani, V. Barone, 
 G. A. Petersson, H. Nakatsuji, X. Li, M. Caricato, A. V. Marenich, 
 J. Bloino, B. G. Janesko, R. Gomperts, B. Mennucci, H. P. Hratchian, 
 J. V. Ortiz, A. F. Izmaylov, J. L. Sonnenberg, D. Williams-Young, 
 F. Ding, F. Lipparini, F. Egidi, J. Goings, B. Peng, A. Petrone, 
 T. Henderson, D. Ranasinghe, V. G. Zakrzewski, J. Gao, N. Rega, 
 G. Zheng, W. Liang, M. Hada, M. Ehara, K. Toyota, R. Fukuda, 
 J. Hasegawa, M. Ishida, T. Nakajima, Y. Honda, O. Kitao, H. Nakai, 
 T. Vreven, K. Throssell, J. A. Montgomery, Jr., J. E. Peralta, 
 F. Ogliaro, M. J. Bearpark, J. J. Heyd, E. N. Brothers, K. N. Kudin, 
 V. N. Staroverov, T. A. Keith, R. Kobayashi, J. Normand, 
 K. Raghavachari, A. P. Rendell, J. C. Burant, S. S. Iyengar, 
 J. Tomasi, M. Cossi, J. M. Millam, M. Klene, C. Adamo, R. Cammi, 
 J. W. Ochterski, R. L. Martin, K. Morokuma, O. Farkas, 
 J. B. Foresman, and D. J. Fox, Gaussian, Inc., Wallingford CT, 2016.
 
 ******************************************
 Gaussian 16:  ES64L-G16RevA.03 25-Dec-2016
                28-Aug-2022 
 ******************************************
 %NProcShared=4
 Will use up to    4 processors via shared memory.
 %Mem=4GB
 %Chk=H2O_H2O_4298.chk
 ------------------
 #p CCSD(T)/cc-pVTZ
 ------------------
 1/38=1,172=1/1;
 2/12=2,17=6,18=5,40=1/2;
 3/5=16,6=1,11=9,25=1,30=1/1,2,3;
 4//1;
 5/5=2,38=5/2;
 8/6=4,9=120000,10=1/1,4;
 9/5=7,14=2/13;
 6/7=2,8=2,9=2,10=2/1;
 99/5=1,9=1/99;
 Leave Link    1 at Sun Aug 28 01:41:25 2022, MaxMem=   536870912 cpu:               2.4 elap:               0.8
 (Enter /usr/site/hpc/x86_64/glibc-2.17/broadwell/gaussian/g16_a.03/pgi-16.5/g16/l101.exe)
 ------------
 H2O_H2O_4298
 ------------
 Symbolic Z-matrix:
 Charge =  0 Multiplicity = 1
 O                     0.       -0.00983   0. 
 H                    -0.79957  -0.58097   0. 
 H                     0.79957  -0.58097   0. 
 O                    -4.44574  -3.16921   0. 
 H                    -5.06794  -2.40871   0. 
 H                    -4.96335  -4.00443   0. 
 
 ITRead=  0  0  0  0  0  0
 MicOpt= -1 -1 -1 -1 -1 -1
 NAtoms=      6 NQM=        6 NQMF=       0 NMMI=      0 NMMIF=      0
                NMic=       0 NMicF=      0.
                    Isotopes and Nuclear Properties:
 (Nuclear quadrupole moments (NQMom) in fm**2, nuclear magnetic moments (NMagM)
  in nuclear magnetons)

  Atom         1           2           3           4           5           6
 IAtWgt=          16           1           1          16           1           1
 AtmWgt=  15.9949146   1.0078250   1.0078250  15.9949146   1.0078250   1.0078250
 NucSpn=           0           1           1           0           1           1
 AtZEff=  -0.0000000  -0.0000000  -0.0000000  -0.0000000  -0.0000000  -0.0000000
 NQMom=    0.0000000   0.0000000   0.0000000   0.0000000   0.0000000   0.0000000
 NMagM=    0.0000000   2.7928460   2.7928460   0.0000000   2.7928460   2.7928460
 AtZNuc=   8.0000000   1.0000000   1.0000000   8.0000000   1.0000000   1.0000000
 Leave Link  101 at Sun Aug 28 01:41:25 2022, MaxMem=   536870912 cpu:               0.6 elap:               0.2
 (Enter /usr/site/hpc/x86_64/glibc-2.17/broadwell/gaussian/g16_a.03/pgi-16.5/g16/l202.exe)
                          Input orientation:                          
 ---------------------------------------------------------------------
 Center     Atomic      Atomic             Coordinates (Angstroms)
 Number     Number       Type             X           Y           Z
 ---------------------------------------------------------------------
      1          8           0        0.000000   -0.009833    0.000000
      2          1           0       -0.799571   -0.580965    0.000000
      3          1           0        0.799571   -0.580965    0.000000
      4          8           0       -4.445739   -3.169215    0.000000
      5          1           0       -5.067942   -2.408709    0.000000
      6          1           0       -4.963354   -4.004428    0.000000
 ---------------------------------------------------------------------
                    Distance matrix (angstroms):
                    1          2          3          4          5
     1  O    0.000000
     2  H    0.982601   0.000000
     3  H    0.982601   1.599142   0.000000
     4  O    5.454016   4.471418   5.849129   0.000000
     5  H    5.607017   4.643236   6.145597   0.982602   0.000000
     6  H    6.371159   5.390472   6.703089   0.982602   1.599143
                    6
     6  H    0.000000
 Stoichiometry    H4O2
 Framework group  CS[SG(H4O2)]
 Deg. of freedom     9
 Full point group                 CS      NOp   2
 Largest Abelian subgroup         CS      NOp   2
 Largest concise Abelian subgroup C1      NOp   1
                         Standard orientation:                         
 ---------------------------------------------------------------------
 Center     Atomic      Atomic             Coordinates (Angstroms)
 Number     Number       Type             X           Y           Z
 ---------------------------------------------------------------------
      1          8           0       -0.016586    2.808711    0.000000
      2          1           0       -0.014211    1.826113    0.000000
      3          1           0        0.912134    3.129623    0.000000
      4          8           0       -0.016586   -2.645305    0.000000
      5          1           0       -0.996926   -2.711939    0.000000
      6          1           0        0.364380   -3.551048    0.000000
 ---------------------------------------------------------------------
 Rotational constants (GHZ):         263.9885841           1.8615633           1.8485281
 Leave Link  202 at Sun Aug 28 01:41:26 2022, MaxMem=   536870912 cpu:               0.0 elap:               0.0
 (Enter /usr/site/hpc/x86_64/glibc-2.17/broadwell/gaussian/g16_a.03/pgi-16.5/g16/l301.exe)
 Standard basis: CC-pVTZ (5D, 7F)
 Ernie: Thresh=  0.10000D-02 Tol=  0.10000D-05 Strict=F.
 Ernie:  6 primitive shells out of 84 were deleted.
 There are    92 symmetry adapted cartesian basis functions of A'  symmetry.
 There are    38 symmetry adapted cartesian basis functions of A"  symmetry.
 There are    80 symmetry adapted basis functions of A'  symmetry.
 There are    36 symmetry adapted basis functions of A"  symmetry.
   116 basis functions,   172 primitive gaussians,   130 cartesian basis functions
    10 alpha electrons       10 beta electrons
       nuclear repulsion energy        27.5721663583 Hartrees.
 IExCor=    0 DFT=F Ex=HF Corr=None ExCW=0 ScaHFX=  1.000000
 ScaDFX=  1.000000  1.000000  1.000000  1.000000 ScalE2=  1.000000  1.000000
 IRadAn=      5 IRanWt=     -1 IRanGd=            0 ICorTp=0 IEmpDi=  4
 NAtoms=    6 NActive=    6 NUniq=    6 SFac= 1.00D+00 NAtFMM=   60 NAOKFM=F Big=F
 Integral buffers will be    131072 words long.
 Raffenetti 1 integral format.
 Two-electron integral symmetry is turned on.
 Leave Link  301 at Sun Aug 28 01:41:26 2022, MaxMem=   536870912 cpu:               0.2 elap:               0.0
 (Enter /usr/site/hpc/x86_64/glibc-2.17/broadwell/gaussian/g16_a.03/pgi-16.5/g16/l302.exe)
 NPDir=0 NMtPBC=     1 NCelOv=     1 NCel=       1 NClECP=     1 NCelD=      1
         NCelK=      1 NCelE2=     1 NClLst=     1 CellRange=     0.0.
 One-electron integrals computed using PRISM.
 One-electron integral symmetry used in STVInt
 NBasis=   116 RedAO= T EigKep=  2.65D-03  NBF=    80    36
 NBsUse=   116 1.00D-06 EigRej= -1.00D+00 NBFU=    80    36
 Leave Link  302 at Sun Aug 28 01:41:26 2022, MaxMem=   536870912 cpu:               0.5 elap:               0.1
 (Enter /usr/site/hpc/x86_64/glibc-2.17/broadwell/gaussian/g16_a.03/pgi-16.5/g16/l303.exe)
 DipDrv:  MaxL=1.
 Leave Link  303 at Sun Aug 28 01:41:26 2022, MaxMem=   536870912 cpu:               0.1 elap:               0.0
 (Enter /usr/site/hpc/x86_64/glibc-2.17/broadwell/gaussian/g16_a.03/pgi-16.5/g16/l401.exe)
 ExpMin= 1.03D-01 ExpMax= 1.53D+04 ExpMxC= 5.22D+02 IAcc=3 IRadAn=         5 AccDes= 0.00D+00
 Harris functional with IExCor=  205 and IRadAn=       5 diagonalized for initial guess.
 HarFok:  IExCor=  205 AccDes= 0.00D+00 IRadAn=         5 IDoV= 1 UseB2=F ITyADJ=14
 ICtDFT=  3500011 ScaDFX=  1.000000  1.000000  1.000000  1.000000
 FoFCou: FMM=F IPFlag=           0 FMFlag=      100000 FMFlg1=           0
         NFxFlg=           0 DoJE=T BraDBF=F KetDBF=T FulRan=T
         wScrn=  0.000000 ICntrl=       500 IOpCl=  0 I1Cent=   200000004 NGrid=           0
         NMat0=    1 NMatS0=      1 NMatT0=    0 NMatD0=    1 NMtDS0=    0 NMtDT0=    0
 Petite list used in FoFCou.
 Harris En= -152.298685353288    
 JPrj=0 DoOrth=F DoCkMO=F.
 Initial guess orbital symmetries:
       Occupied  (A') (A') (A') (A') (A') (A') (A') (A') (A") (A")
       Virtual   (A') (A') (A') (A') (A') (A') (A') (A') (A') (A')
                 (A") (A") (A') (A') (A') (A') (A") (A") (A") (A")
                 (A') (A') (A') (A') (A') (A') (A') (A') (A") (A")
                 (A") (A") (A') (A') (A') (A') (A') (A') (A') (A')
                 (A') (A') (A") (A") (A') (A') (A") (A") (A") (A")
                 (A') (A') (A') (A') (A') (A') (A") (A") (A') (A')
                 (A') (A') (A") (A") (A") (A") (A') (A') (A') (A')
                 (A") (A") (A') (A') (A') (A') (A') (A') (A') (A')
                 (A") (A") (A') (A') (A") (A") (A") (A") (A') (A')
                 (A") (A") (A') (A') (A') (A') (A") (A") (A') (A')
                 (A') (A') (A') (A') (A') (A')
 The electronic state of the initial guess is 1-A'.
 Leave Link  401 at Sun Aug 28 01:41:26 2022, MaxMem=   536870912 cpu:               0.7 elap:               0.2
 (Enter /usr/site/hpc/x86_64/glibc-2.17/broadwell/gaussian/g16_a.03/pgi-16.5/g16/l502.exe)
 Keep R1 ints in memory in symmetry-blocked form, NReq=34823457.
 FoFCou: FMM=F IPFlag=           0 FMFlag=           0 FMFlg1=           0
         NFxFlg=           0 DoJE=F BraDBF=F KetDBF=F FulRan=T
         wScrn=  0.000000 ICntrl=       600 IOpCl=  0 I1Cent=           0 NGrid=           0
         NMat0=    1 NMatS0=   6786 NMatT0=    0 NMatD0=    1 NMtDS0=    0 NMtDT0=    0
 Petite list used in FoFCou.
 Closed shell SCF:
 Using DIIS extrapolation, IDIIS=  1040.
 NGot=   536870912 LenX=   525040673 LenY=   525023332
 Requested convergence on RMS density matrix=1.00D-08 within 128 cycles.
 Requested convergence on MAX density matrix=1.00D-06.
 Requested convergence on             energy=1.00D-06.
 No special actions if energy rises.

 Cycle   1  Pass 1  IDiag  1:
 E= -151.929193510365    
 DIIS: error= 6.59D-02 at cycle   1 NSaved=   1.
 NSaved= 1 IEnMin= 1 EnMin= -151.929193510365     IErMin= 1 ErrMin= 6.59D-02
 ErrMax= 6.59D-02  0.00D+00 EMaxC= 1.00D-01 BMatC= 3.99D-01 BMatP= 3.99D-01
 IDIUse=3 WtCom= 3.41D-01 WtEn= 6.59D-01
 Coeff-Com:  0.100D+01
 Coeff-En:   0.100D+01
 Coeff:      0.100D+01
 Gap=     0.513 Goal=   None    Shift=    0.000
 GapD=    0.513 DampG=2.000 DampE=0.500 DampFc=1.0000 IDamp=-1.
 RMSDP=2.50D-03 MaxDP=6.69D-02              OVMax= 1.26D-01

 Cycle   2  Pass 1  IDiag  1:
 E= -152.040605268824     Delta-E=       -0.111411758459 Rises=F Damp=F
 DIIS: error= 4.14D-02 at cycle   2 NSaved=   2.
 NSaved= 2 IEnMin= 2 EnMin= -152.040605268824     IErMin= 2 ErrMin= 4.14D-02
 ErrMax= 4.14D-02  0.00D+00 EMaxC= 1.00D-01 BMatC= 1.12D-01 BMatP= 3.99D-01
 IDIUse=3 WtCom= 5.86D-01 WtEn= 4.14D-01
 Coeff-Com:  0.319D+00 0.681D+00
 Coeff-En:   0.165D+00 0.835D+00
 Coeff:      0.255D+00 0.745D+00
 Gap=     0.650 Goal=   None    Shift=    0.000
 RMSDP=1.32D-03 MaxDP=3.97D-02 DE=-1.11D-01 OVMax= 5.70D-02

 Cycle   3  Pass 1  IDiag  1:
 E= -152.104784289213     Delta-E=       -0.064179020389 Rises=F Damp=F
 DIIS: error= 8.97D-03 at cycle   3 NSaved=   3.
 NSaved= 3 IEnMin= 3 EnMin= -152.104784289213     IErMin= 3 ErrMin= 8.97D-03
 ErrMax= 8.97D-03  0.00D+00 EMaxC= 1.00D-01 BMatC= 5.95D-03 BMatP= 1.12D-01
 IDIUse=3 WtCom= 9.10D-01 WtEn= 8.97D-02
 Coeff-Com: -0.303D-01 0.156D+00 0.874D+00
 Coeff-En:   0.000D+00 0.000D+00 0.100D+01
 Coeff:     -0.276D-01 0.142D+00 0.886D+00
 Gap=     0.622 Goal=   None    Shift=    0.000
 RMSDP=2.42D-04 MaxDP=5.74D-03 DE=-6.42D-02 OVMax= 1.33D-02

 Cycle   4  Pass 1  IDiag  1:
 E= -152.108486145119     Delta-E=       -0.003701855907 Rises=F Damp=F
 DIIS: error= 8.51D-04 at cycle   4 NSaved=   4.
 NSaved= 4 IEnMin= 4 EnMin= -152.108486145119     IErMin= 4 ErrMin= 8.51D-04
 ErrMax= 8.51D-04  0.00D+00 EMaxC= 1.00D-01 BMatC= 3.68D-05 BMatP= 5.95D-03
 IDIUse=3 WtCom= 9.91D-01 WtEn= 8.51D-03
 Coeff-Com:  0.679D-02-0.612D-01-0.239D+00 0.129D+01
 Coeff-En:   0.000D+00 0.000D+00 0.000D+00 0.100D+01
 Coeff:      0.673D-02-0.607D-01-0.237D+00 0.129D+01
 Gap=     0.625 Goal=   None    Shift=    0.000
 RMSDP=5.16D-05 MaxDP=1.03D-03 DE=-3.70D-03 OVMax= 2.20D-03

 Cycle   5  Pass 1  IDiag  1:
 E= -152.108535494494     Delta-E=       -0.000049349375 Rises=F Damp=F
 DIIS: error= 1.93D-04 at cycle   5 NSaved=   5.
 NSaved= 5 IEnMin= 5 EnMin= -152.108535494494     IErMin= 5 ErrMin= 1.93D-04
 ErrMax= 1.93D-04  0.00D+00 EMaxC= 1.00D-01 BMatC= 1.34D-06 BMatP= 3.68D-05
 IDIUse=3 WtCom= 9.98D-01 WtEn= 1.93D-03
 Coeff-Com:  0.511D-03 0.688D-03-0.199D-02-0.227D+00 0.123D+01
 Coeff-En:   0.000D+00 0.000D+00 0.000D+00 0.000D+00 0.100D+01
 Coeff:      0.510D-03 0.686D-03-0.198D-02-0.226D+00 0.123D+01
 Gap=     0.625 Goal=   None    Shift=    0.000
 RMSDP=1.43D-05 MaxDP=2.93D-04 DE=-4.93D-05 OVMax= 6.85D-04

 Cycle   6  Pass 1  IDiag  1:
 E= -152.108538289381     Delta-E=       -0.000002794887 Rises=F Damp=F
 DIIS: error= 2.74D-05 at cycle   6 NSaved=   6.
 NSaved= 6 IEnMin= 6 EnMin= -152.108538289381     IErMin= 6 ErrMin= 2.74D-05
 ErrMax= 2.74D-05  0.00D+00 EMaxC= 1.00D-01 BMatC= 3.23D-08 BMatP= 1.34D-06
 IDIUse=1 WtCom= 1.00D+00 WtEn= 0.00D+00
 Coeff-Com: -0.260D-03 0.150D-02 0.642D-02 0.245D-02-0.256D+00 0.125D+01
 Coeff:     -0.260D-03 0.150D-02 0.642D-02 0.245D-02-0.256D+00 0.125D+01
 Gap=     0.625 Goal=   None    Shift=    0.000
 RMSDP=2.97D-06 MaxDP=6.56D-05 DE=-2.79D-06 OVMax= 1.52D-04

 Cycle   7  Pass 1  IDiag  1:
 E= -152.108538381079     Delta-E=       -0.000000091698 Rises=F Damp=F
 DIIS: error= 5.39D-06 at cycle   7 NSaved=   7.
 NSaved= 7 IEnMin= 7 EnMin= -152.108538381079     IErMin= 7 ErrMin= 5.39D-06
 ErrMax= 5.39D-06  0.00D+00 EMaxC= 1.00D-01 BMatC= 1.96D-09 BMatP= 3.23D-08
 IDIUse=1 WtCom= 1.00D+00 WtEn= 0.00D+00
 Coeff-Com:  0.306D-05-0.227D-03-0.843D-03 0.134D-01-0.392D-01-0.984D-01
 Coeff-Com:  0.113D+01
 Coeff:      0.306D-05-0.227D-03-0.843D-03 0.134D-01-0.392D-01-0.984D-01
 Coeff:      0.113D+01
 Gap=     0.625 Goal=   None    Shift=    0.000
 RMSDP=4.17D-07 MaxDP=1.06D-05 DE=-9.17D-08 OVMax= 3.05D-05

 Cycle   8  Pass 1  IDiag  1:
 E= -152.108538384699     Delta-E=       -0.000000003620 Rises=F Damp=F
 DIIS: error= 1.60D-06 at cycle   8 NSaved=   8.
 NSaved= 8 IEnMin= 8 EnMin= -152.108538384699     IErMin= 8 ErrMin= 1.60D-06
 ErrMax= 1.60D-06  0.00D+00 EMaxC= 1.00D-01 BMatC= 2.83D-10 BMatP= 1.96D-09
 IDIUse=1 WtCom= 1.00D+00 WtEn= 0.00D+00
 Coeff-Com:  0.224D-04-0.174D-03-0.703D-03 0.247D-02 0.139D-01-0.123D+00
 Coeff-Com:  0.232D+00 0.876D+00
 Coeff:      0.224D-04-0.174D-03-0.703D-03 0.247D-02 0.139D-01-0.123D+00
 Coeff:      0.232D+00 0.876D+00
 Gap=     0.625 Goal=   None    Shift=    0.000
 RMSDP=1.08D-07 MaxDP=2.81D-06 DE=-3.62D-09 OVMax= 8.14D-06

 Cycle   9  Pass 1  IDiag  1:
 E= -152.108538385062     Delta-E=       -0.000000000363 Rises=F Damp=F
 DIIS: error= 7.96D-07 at cycle   9 NSaved=   9.
 NSaved= 9 IEnMin= 9 EnMin= -152.108538385062     IErMin= 9 ErrMin= 7.96D-07
 ErrMax= 7.96D-07  0.00D+00 EMaxC= 1.00D-01 BMatC= 2.83D-11 BMatP= 2.83D-10
 IDIUse=1 WtCom= 1.00D+00 WtEn= 0.00D+00
 Coeff-Com:  0.727D-06 0.310D-04 0.127D-03-0.244D-02 0.845D-02 0.815D-02
 Coeff-Com: -0.167D+00 0.449D-01 0.111D+01
 Coeff:      0.727D-06 0.310D-04 0.127D-03-0.244D-02 0.845D-02 0.815D-02
 Coeff:     -0.167D+00 0.449D-01 0.111D+01
 Gap=     0.625 Goal=   None    Shift=    0.000
 RMSDP=4.95D-08 MaxDP=1.02D-06 DE=-3.63D-10 OVMax= 2.92D-06

 Cycle  10  Pass 1  IDiag  1:
 E= -152.108538385108     Delta-E=       -0.000000000046 Rises=F Damp=F
 DIIS: error= 9.86D-08 at cycle  10 NSaved=  10.
 NSaved=10 IEnMin=10 EnMin= -152.108538385108     IErMin=10 ErrMin= 9.86D-08
 ErrMax= 9.86D-08  0.00D+00 EMaxC= 1.00D-01 BMatC= 4.23D-13 BMatP= 2.83D-11
 IDIUse=1 WtCom= 1.00D+00 WtEn= 0.00D+00
 Coeff-Com: -0.571D-06-0.457D-05-0.213D-04 0.562D-03-0.207D-02-0.155D-02
 Coeff-Com:  0.460D-01-0.305D-01-0.342D+00 0.133D+01
 Coeff:     -0.571D-06-0.457D-05-0.213D-04 0.562D-03-0.207D-02-0.155D-02
 Coeff:      0.460D-01-0.305D-01-0.342D+00 0.133D+01
 Gap=     0.625 Goal=   None    Shift=    0.000
 RMSDP=7.12D-09 MaxDP=1.96D-07 DE=-4.57D-11 OVMax= 4.12D-07

 SCF Done:  E(RHF) =  -152.108538385     A.U. after   10 cycles
            NFock= 10  Conv=0.71D-08     -V/T= 2.0020
 KE= 1.518029723321D+02 PE=-4.165512337937D+02 EE= 8.506755671814D+01
 Leave Link  502 at Sun Aug 28 01:41:27 2022, MaxMem=   536870912 cpu:               3.9 elap:               1.1
 (Enter /usr/site/hpc/x86_64/glibc-2.17/broadwell/gaussian/g16_a.03/pgi-16.5/g16/l801.exe)
 Windowed orbitals will be sorted by symmetry type.
 ExpMin= 1.03D-01 ExpMax= 1.53D+04 ExpMxC= 5.22D+02 IAcc=3 IRadAn=         5 AccDes= 0.00D+00
 HarFok:  IExCor=  205 AccDes= 0.00D+00 IRadAn=         5 IDoV=-2 UseB2=F ITyADJ=14
 ICtDFT= 12500011 ScaDFX=  1.000000  1.000000  1.000000  1.000000
 Largest valence mixing into a core orbital is  1.12D-04
 Largest core mixing into a valence orbital is  1.76D-05
 Range of M.O.s used for correlation:     3   116
 NBasis=   116 NAE=    10 NBE=    10 NFC=     2 NFV=     0
 NROrb=    114 NOA=     8 NOB=     8 NVA=   106 NVB=   106
 Leave Link  801 at Sun Aug 28 01:41:27 2022, MaxMem=   536870912 cpu:               0.3 elap:               0.1
 (Enter /usr/site/hpc/x86_64/glibc-2.17/broadwell/gaussian/g16_a.03/pgi-16.5/g16/l804.exe)
 Closed-shell transformation, MDV=   536870912 ITran=4 ISComp=2.
 Unit  1 TFree=        834515 TCopy=        406125.
 Semi-Direct transformation.
 ModeAB=           4 MOrb=             8 LenV=     536377323
 LASXX=      2873146 LTotXX=     2873146 LenRXX=     5831278
 LTotAB=     2958132 MaxLAS=     5377152 LenRXY=           0
 NonZer=     8704424 LenScr=    13107200 LnRSAI=     5377152
 LnScr1=     8388608 LExtra=           0 Total=     32704238
 MaxDsk=          -1 SrtSym=           T ITran=            4
 DoSDTr:  NPSUse=  4
 JobTyp=0 Pass  1:  I=   1 to   8.
 (rs|ai) integrals will be sorted in core.
 Complete sort for first half transformation.
 First half transformation complete.
 Complete sort for second half transformation.
 Second half transformation complete.
 Spin components of T(2) and E(2):
     alpha-alpha T2 =       0.1555125058D-01 E2=     -0.6379715543D-01
     alpha-beta  T2 =       0.9183642099D-01 E2=     -0.3982073731D+00
     beta-beta   T2 =       0.1555125058D-01 E2=     -0.6379715543D-01
 ANorm=    0.1059688125D+01
 E2 =    -0.5258016839D+00 EUMP2 =    -0.15263434006903D+03
 Leave Link  804 at Sun Aug 28 01:41:28 2022, MaxMem=   536870912 cpu:               3.3 elap:               0.8
 (Enter /usr/site/hpc/x86_64/glibc-2.17/broadwell/gaussian/g16_a.03/pgi-16.5/g16/l913.exe)
 CIDS:  MDV=   536870912.
 Frozen-core window:  NFC=   2 NFV=   0.
 IFCWin=0 IBDFC=1 NFBD=     0     0 NFCmp=     0     0 NFFFC=     0     0
 Using DD3R+UMP44R for 1st iteration.
 Using DD4RQ for 2nd and later iterations.
 Keep R2 and R3 ints in memory in symmetry-blocked form, NReq=35357534.
 FoFCou: FMM=F IPFlag=           0 FMFlag=           0 FMFlg1=           0
         NFxFlg=           0 DoJE=F BraDBF=F KetDBF=F FulRan=T
         wScrn=  0.000000 ICntrl=       600 IOpCl=  0 I1Cent=           0 NGrid=           0
         NMat0=    1 NMatS0=   6786 NMatT0=    0 NMatD0=    1 NMtDS0=    0 NMtDT0=    0
 Petite list used in FoFCou.
 CIDS: In Core Option IDoMem=           1.
 CCSD(T)
 =======
 Iterations=  50 Convergence= 0.100D-06
 Produce multiple copies of IABC intergrals
 Iteration Nr.   1
 **********************
 DD1Dir will call FoFMem   1 times, MxPair=        72
 NAB=    36 NAA=     0 NBB=     0.
 MP4(R+Q)=  0.75433051D-02
 Maximum subspace dimension=  5
 A-vector RMS=  1.7369873D-03 Max=  6.1757320D-03 conv= 1.00D-05.
 RLE energy=       -0.5257583389
 E3=       -0.75706857D-02        EUMP3=      -0.15264191075D+03
 E4(DQ)=   -0.15484596D-02        UMP4(DQ)=   -0.15264345921D+03
 E4(SDQ)=  -0.45946670D-02        UMP4(SDQ)=  -0.15264650542D+03
 VARIATIONAL ENERGIES WITH THE FIRST-ORDER WAVEFUNCTION:
 DE(Corr)= -0.52575834     E(Corr)=     -152.63429673    
 NORM(A)=   0.10600560D+01
 Iteration Nr.   2
 **********************
 DD1Dir will call FoFMem   1 times, MxPair=        72
 NAB=    36 NAA=     0 NBB=     0.
 A-vector RMS=  2.1266165D-04 Max=  2.3188866D-03 conv= 1.00D-05.
 RLE energy=       -0.5368004446
 DE(Corr)= -0.53564088     E(CORR)=     -152.64417926     Delta=-9.88D-03
 NORM(A)=   0.10637942D+01
 Iteration Nr.   3
 **********************
 DD1Dir will call FoFMem   1 times, MxPair=        72
 NAB=    36 NAA=     0 NBB=     0.
 A-vector RMS=  1.3998541D-04 Max=  8.2055754D-04 conv= 1.00D-05.
 RLE energy=       -0.5372949450
 DE(Corr)= -0.53671101     E(CORR)=     -152.64524940     Delta=-1.07D-03
 NORM(A)=   0.10644298D+01
 Iteration Nr.   4
 **********************
 DD1Dir will call FoFMem   1 times, MxPair=        72
 NAB=    36 NAA=     0 NBB=     0.
 A-vector RMS=  2.5880554D-05 Max=  1.3845311D-04 conv= 1.00D-05.
 RLE energy=       -0.5373780175
 DE(Corr)= -0.53734280     E(CORR)=     -152.64588119     Delta=-6.32D-04
 NORM(A)=   0.10645397D+01
 Iteration Nr.   5
 **********************
 DD1Dir will call FoFMem   1 times, MxPair=        72
 NAB=    36 NAA=     0 NBB=     0.
 A-vector RMS=  1.8504991D-05 Max=  1.5207207D-04 conv= 1.00D-05.
 RLE energy=       -0.5373862158
 DE(Corr)= -0.53737953     E(CORR)=     -152.64591792     Delta=-3.67D-05
 NORM(A)=   0.10645490D+01
 Iteration Nr.   6
 **********************
 DD1Dir will call FoFMem   1 times, MxPair=        72
 NAB=    36 NAA=     0 NBB=     0.
 A-vector RMS=  5.5130678D-06 Max=  4.2769393D-05 conv= 1.00D-05.
 RLE energy=       -0.5373771918
 DE(Corr)= -0.53738268     E(CORR)=     -152.64592107     Delta=-3.15D-06
 NORM(A)=   0.10645490D+01
 Iteration Nr.   7
 **********************
 DD1Dir will call FoFMem   1 times, MxPair=        72
 NAB=    36 NAA=     0 NBB=     0.
 A-vector RMS=  2.6407801D-06 Max=  2.1751139D-05 conv= 1.00D-05.
 RLE energy=       -0.5373837807
 DE(Corr)= -0.53738283     E(CORR)=     -152.64592122     Delta=-1.50D-07
 NORM(A)=   0.10645513D+01
 Iteration Nr.   8
 **********************
 DD1Dir will call FoFMem   1 times, MxPair=        72
 NAB=    36 NAA=     0 NBB=     0.
 A-vector RMS=  5.7059361D-07 Max=  4.9600988D-06 conv= 1.00D-05.
 RLE energy=       -0.5373822425
 DE(Corr)= -0.53738241     E(CORR)=     -152.64592079     Delta= 4.25D-07
 NORM(A)=   0.10645515D+01
 Iteration Nr.   9
 **********************
 DD1Dir will call FoFMem   1 times, MxPair=        72
 NAB=    36 NAA=     0 NBB=     0.
 A-vector RMS=  1.4861558D-07 Max=  1.0960259D-06 conv= 1.00D-05.
 RLE energy=       -0.5373826413
 DE(Corr)= -0.53738267     E(CORR)=     -152.64592106     Delta=-2.63D-07
 NORM(A)=   0.10645517D+01
 Iteration Nr.  10
 **********************
 DD1Dir will call FoFMem   1 times, MxPair=        72
 NAB=    36 NAA=     0 NBB=     0.
 A-vector RMS=  5.4714661D-08 Max=  4.4907319D-07 conv= 1.00D-05.
 RLE energy=       -0.5373826953
 DE(Corr)= -0.53738267     E(CORR)=     -152.64592105     Delta= 4.34D-09
 NORM(A)=   0.10645518D+01
 CI/CC converged in   10 iterations to DelEn= 4.34D-09 Conv= 1.00D-07 ErrA1= 5.47D-08 Conv= 1.00D-05
 Wavefunction amplitudes converged. E(Corr)=     -152.64592105    
 Largest amplitude= 4.80D-02
 IPart=  3 IA=    7   11.05% done.
 IPart=  3 IA=   13   21.46% done.
 IPart=  4 IA=   19   31.21% done.
 IPart=  3 IA=   25   40.32% done.
 IPart=  3 IA=   32   50.13% done.
 IPart=  2 IA=   40   60.27% done.
 IPart=  2 IA=   49   70.30% done.
 IPart=  1 IA=   60   80.58% done.
 IPart=  2 IA=   74   90.51% done.
 Time for triples=       50.97 seconds.
 T4(CCSD)= -0.16014185D-01
 T5(CCSD)=  0.40085065D-03
 CCSD(T)= -0.15266153438D+03
 Discarding MO integrals.
 Leave Link  913 at Sun Aug 28 01:41:48 2022, MaxMem=   536870912 cpu:              78.5 elap:              20.1
 (Enter /usr/site/hpc/x86_64/glibc-2.17/broadwell/gaussian/g16_a.03/pgi-16.5/g16/l601.exe)
 Copying SCF densities to generalized density rwf, IOpCl= 0 IROHF=0.

 **********************************************************************

            Population analysis using the SCF density.

 **********************************************************************

 Orbital symmetries:
       Occupied  (A') (A') (A') (A') (A') (A') (A') (A') (A") (A")
       Virtual   (A') (A') (A') (A') (A') (A') (A') (A') (A') (A')
                 (A") (A') (A") (A') (A') (A') (A") (A") (A") (A")
                 (A') (A') (A') (A') (A') (A') (A') (A') (A") (A")
                 (A") (A") (A') (A') (A') (A') (A') (A') (A') (A')
                 (A') (A') (A") (A") (A') (A') (A") (A") (A') (A')
                 (A") (A") (A') (A') (A') (A') (A") (A") (A") (A")
                 (A') (A') (A') (A') (A") (A") (A') (A') (A') (A')
                 (A") (A") (A') (A') (A') (A') (A') (A') (A') (A')
                 (A") (A") (A') (A') (A") (A") (A") (A") (A') (A')
                 (A") (A") (A') (A') (A') (A') (A") (A") (A') (A')
                 (A') (A') (A') (A') (A') (A')
 The electronic state is 1-A'.
 Alpha  occ. eigenvalues --  -20.56217 -20.55020  -1.33519  -1.32328  -0.70925
 Alpha  occ. eigenvalues --   -0.69735  -0.57016  -0.55804  -0.50639  -0.49454
 Alpha virt. eigenvalues --    0.13096   0.15003   0.19382   0.21416   0.53359
 Alpha virt. eigenvalues --    0.54991   0.56650   0.57802   0.66753   0.68787
 Alpha virt. eigenvalues --    0.78249   0.79343   0.79402   0.80709   0.82601
 Alpha virt. eigenvalues --    0.83282   0.84205   0.85368   0.96590   0.97766
 Alpha virt. eigenvalues --    1.13862   1.15344   1.16905   1.17704   1.51060
 Alpha virt. eigenvalues --    1.51325   1.52357   1.52697   1.99970   2.01159
 Alpha virt. eigenvalues --    2.06043   2.07226   2.08721   2.10060   2.14180
 Alpha virt. eigenvalues --    2.15360   2.24452   2.25638   2.60817   2.62156
 Alpha virt. eigenvalues --    2.92073   2.93792   3.38702   3.39889   3.49263
 Alpha virt. eigenvalues --    3.50447   3.52469   3.53655   3.58848   3.60072
 Alpha virt. eigenvalues --    3.77978   3.79167   3.84761   3.85953   3.86996
 Alpha virt. eigenvalues --    3.88164   3.92915   3.94096   4.02368   4.03556
 Alpha virt. eigenvalues --    4.07519   4.08775   4.14610   4.15845   4.29440
 Alpha virt. eigenvalues --    4.30636   4.39227   4.40402   4.44921   4.46109
 Alpha virt. eigenvalues --    4.65836   4.67018   4.80180   4.81532   5.03572
 Alpha virt. eigenvalues --    5.04778   5.23380   5.24587   5.53410   5.54520
 Alpha virt. eigenvalues --    5.97210   5.98408   6.39690   6.40890   6.85468
 Alpha virt. eigenvalues --    6.86662   6.88958   6.90149   6.93891   6.95099
 Alpha virt. eigenvalues --    6.98400   6.99596   7.07221   7.08368   7.11871
 Alpha virt. eigenvalues --    7.12971   7.17568   7.18764   7.46466   7.47704
 Alpha virt. eigenvalues --    7.69634   7.70807   8.14373   8.15636  12.48487
 Alpha virt. eigenvalues --   12.50047
          Condensed to atoms (all electrons):
               1          2          3          4          5          6
     1  O    7.822267   0.346252   0.346263  -0.000001   0.000001   0.000000
     2  H    0.346252   0.430530  -0.036693   0.000159  -0.000013  -0.000005
     3  H    0.346263  -0.036693   0.435610  -0.000002   0.000000   0.000000
     4  O   -0.000001   0.000159  -0.000002   7.821869   0.345781   0.347443
     5  H    0.000001  -0.000013   0.000000   0.345781   0.433374  -0.036371
     6  H    0.000000  -0.000005   0.000000   0.347443  -0.036371   0.430726
 Mulliken charges:
               1
     1  O   -0.514780
     2  H    0.259771
     3  H    0.254823
     4  O   -0.515249
     5  H    0.257228
     6  H    0.258208
 Sum of Mulliken charges =  -0.00000
 Mulliken charges with hydrogens summed into heavy atoms:
               1
     1  O   -0.000187
     4  O    0.000187
 Electronic spatial extent (au):  <R**2>=            573.9363
 Charge=             -0.0000 electrons
 Dipole moment (field-independent basis, Debye):
    X=              0.5703    Y=             -2.8721    Z=              0.0000  Tot=              2.9282
 Quadrupole moment (field-independent basis, Debye-Ang):
   XX=             -9.5433   YY=             -7.2965   ZZ=            -14.7151
   XY=              7.3744   XZ=              0.0000   YZ=              0.0000
 Traceless Quadrupole moment (field-independent basis, Debye-Ang):
   XX=              0.9750   YY=              3.2218   ZZ=             -4.1968
   XY=              7.3744   XZ=              0.0000   YZ=              0.0000
 Octapole moment (field-independent basis, Debye-Ang**2):
  XXX=             -0.2404  YYY=            -61.0271  ZZZ=              0.0000  XYY=             15.5405
  XXY=             -2.0094  XXZ=              0.0000  XZZ=              0.0750  YZZ=             -0.3937
  YYZ=              0.0000  XYZ=              0.0000
 Hexadecapole moment (field-independent basis, Debye-Ang**3):
 XXXX=            -10.4819 YYYY=           -430.7583 ZZZZ=            -11.3423 XXXY=              4.4927
 XXXZ=              0.0000 YYYX=             48.5112 YYYZ=              0.0000 ZZZX=              0.0000
 ZZZY=              0.0000 XXYY=            -71.0907 XXZZ=             -4.4106 YYZZ=           -114.6481
 XXYZ=              0.0000 YYXZ=              0.0000 ZZXY=             -2.1211
 N-N= 2.757216635828D+01 E-N=-4.165512325753D+02  KE= 1.518029723321D+02
 Symmetry A'   KE= 1.427676755195D+02
 Symmetry A"   KE= 9.035296812684D+00
 Leave Link  601 at Sun Aug 28 01:41:48 2022, MaxMem=   536870912 cpu:               0.2 elap:               0.0
 (Enter /usr/site/hpc/x86_64/glibc-2.17/broadwell/gaussian/g16_a.03/pgi-16.5/g16/l9999.exe)
 1\1\GINC-N002\SP\RCCSD(T)-FC\CC-pVTZ\H4O2\ROOT\28-Aug-2022\0\\#p CCSD(
 T)/cc-pVTZ\\H2O_H2O_4298\\0,1\O,0,0.,-0.009833,0.\H,0,-0.799571,-0.580
 965,0.\H,0,0.799571,-0.580965,0.\O,0,-4.445739,-3.169215,0.\H,0,-5.067
 942,-2.408709,0.\H,0,-4.963354,-4.004428,0.\\Version=ES64L-G16RevA.03\
 State=1-A'\HF=-152.1085384\MP2=-152.6343401\MP3=-152.6419108\MP4D=-152
 .6510025\MP4DQ=-152.6434592\MP4SDQ=-152.6465054\CCSD=-152.6459211\CCSD
 (T)=-152.6615344\RMSD=7.118e-09\PG=CS [SG(H4O2)]\\@


 NO MATTER HOW THIN YOU SLICE IT, IT'S STILL BALONEY

                                   -- ALFRED E. SMITH
 Job cpu time:       0 days  0 hours  1 minutes 31.0 seconds.
 Elapsed time:       0 days  0 hours  0 minutes 23.5 seconds.
 File lengths (MBytes):  RWF=    320 Int=      0 D2E=      0 Chk=      8 Scr=      8
 Normal termination of Gaussian 16 at Sun Aug 28 01:41:48 2022.
