 Entering Gaussian System, Link 0=g16
 Input=H2O_H2O_2199.com
 Output=H2O_H2O_2199.log
 Initial command:
 /usr/site/hpc/x86_64/glibc-2.17/broadwell/gaussian/g16_a.03/pgi-16.5/g16/l1.exe "/gpfs/gpfs1/scratch/c7441284/ForceFieldModel/FittingData2/Gau-1023737.inp" -scrdir="/gpfs/gpfs1/scratch/c7441284/ForceFieldModel/FittingData2/"
 Entering Link 1 = /usr/site/hpc/x86_64/glibc-2.17/broadwell/gaussian/g16_a.03/pgi-16.5/g16/l1.exe PID=   1023738.
  
 Copyright (c) 1988,1990,1992,1993,1995,1998,2003,2009,2016,
            Gaussian, Inc.  All Rights Reserved.
  
 This is part of the Gaussian(R) 16 program.  It is based on
 the Gaussian(R) 09 system (copyright 2009, Gaussian, Inc.),
 the Gaussian(R) 03 system (copyright 2003, Gaussian, Inc.),
 the Gaussian(R) 98 system (copyright 1998, Gaussian, Inc.),
 the Gaussian(R) 94 system (copyright 1995, Gaussian, Inc.),
 the Gaussian 92(TM) system (copyright 1992, Gaussian, Inc.),
 the Gaussian 90(TM) system (copyright 1990, Gaussian, Inc.),
 the Gaussian 88(TM) system (copyright 1988, Gaussian, Inc.),
 the Gaussian 86(TM) system (copyright 1986, Carnegie Mellon
 University), and the Gaussian 82(TM) system (copyright 1983,
 Carnegie Mellon University). Gaussian is a federally registered
 trademark of Gaussian, Inc.
  
 This software contains proprietary and confidential information,
 including trade secrets, belonging to Gaussian, Inc.
  
 This software is provided under written license and may be
 used, copied, transmitted, or stored only in accord with that
 written license.
  
 The following legend is applicable only to US Government
 contracts under FAR:
  
                    RESTRICTED RIGHTS LEGEND
  
 Use, reproduction and disclosure by the US Government is
 subject to restrictions as set forth in subparagraphs (a)
 and (c) of the Commercial Computer Software - Restricted
 Rights clause in FAR 52.227-19.
  
 Gaussian, Inc.
 340 Quinnipiac St., Bldg. 40, Wallingford CT 06492
  
  
 ---------------------------------------------------------------
 Warning -- This program may not be used in any manner that
 competes with the business of Gaussian, Inc. or will provide
 assistance to any competitor of Gaussian, Inc.  The licensee
 of this program is prohibited from giving any competitor of
 Gaussian, Inc. access to this program.  By using this program,
 the user acknowledges that Gaussian, Inc. is engaged in the
 business of creating and licensing software in the field of
 computational chemistry and represents and warrants to the
 licensee that it is not a competitor of Gaussian, Inc. and that
 it will not use this program in any manner prohibited above.
 ---------------------------------------------------------------
  

 Cite this work as:
 Gaussian 16, Revision A.03,
 M. J. Frisch, G. W. Trucks, H. B. Schlegel, G. E. Scuseria, 
 M. A. Robb, J. R. Cheeseman, G. Scalmani, V. Barone, 
 G. A. Petersson, H. Nakatsuji, X. Li, M. Caricato, A. V. Marenich, 
 J. Bloino, B. G. Janesko, R. Gomperts, B. Mennucci, H. P. Hratchian, 
 J. V. Ortiz, A. F. Izmaylov, J. L. Sonnenberg, D. Williams-Young, 
 F. Ding, F. Lipparini, F. Egidi, J. Goings, B. Peng, A. Petrone, 
 T. Henderson, D. Ranasinghe, V. G. Zakrzewski, J. Gao, N. Rega, 
 G. Zheng, W. Liang, M. Hada, M. Ehara, K. Toyota, R. Fukuda, 
 J. Hasegawa, M. Ishida, T. Nakajima, Y. Honda, O. Kitao, H. Nakai, 
 T. Vreven, K. Throssell, J. A. Montgomery, Jr., J. E. Peralta, 
 F. Ogliaro, M. J. Bearpark, J. J. Heyd, E. N. Brothers, K. N. Kudin, 
 V. N. Staroverov, T. A. Keith, R. Kobayashi, J. Normand, 
 K. Raghavachari, A. P. Rendell, J. C. Burant, S. S. Iyengar, 
 J. Tomasi, M. Cossi, J. M. Millam, M. Klene, C. Adamo, R. Cammi, 
 J. W. Ochterski, R. L. Martin, K. Morokuma, O. Farkas, 
 J. B. Foresman, and D. J. Fox, Gaussian, Inc., Wallingford CT, 2016.
 
 ******************************************
 Gaussian 16:  ES64L-G16RevA.03 25-Dec-2016
                28-Aug-2022 
 ******************************************
 %NProcShared=4
 Will use up to    4 processors via shared memory.
 %Mem=4GB
 %Chk=H2O_H2O_2199.chk
 ------------------
 #p CCSD(T)/cc-pVTZ
 ------------------
 1/38=1,172=1/1;
 2/12=2,17=6,18=5,40=1/2;
 3/5=16,6=1,11=9,25=1,30=1/1,2,3;
 4//1;
 5/5=2,38=5/2;
 8/6=4,9=120000,10=1/1,4;
 9/5=7,14=2/13;
 6/7=2,8=2,9=2,10=2/1;
 99/5=1,9=1/99;
 Leave Link    1 at Sun Aug 28 05:22:20 2022, MaxMem=   536870912 cpu:               1.0 elap:               0.3
 (Enter /usr/site/hpc/x86_64/glibc-2.17/broadwell/gaussian/g16_a.03/pgi-16.5/g16/l101.exe)
 ------------
 H2O_H2O_2199
 ------------
 Symbolic Z-matrix:
 Charge =  0 Multiplicity = 1
 O                     0.       -0.00983   0. 
 H                    -0.79957  -0.58097   0. 
 H                     0.79957  -0.58097   0. 
 O                    -3.08253  -2.19482   0. 
 H                    -3.65366  -1.39525   0. 
 H                    -3.65366  -2.99439   0. 
 
 ITRead=  0  0  0  0  0  0
 MicOpt= -1 -1 -1 -1 -1 -1
 NAtoms=      6 NQM=        6 NQMF=       0 NMMI=      0 NMMIF=      0
                NMic=       0 NMicF=      0.
                    Isotopes and Nuclear Properties:
 (Nuclear quadrupole moments (NQMom) in fm**2, nuclear magnetic moments (NMagM)
  in nuclear magnetons)

  Atom         1           2           3           4           5           6
 IAtWgt=          16           1           1          16           1           1
 AtmWgt=  15.9949146   1.0078250   1.0078250  15.9949146   1.0078250   1.0078250
 NucSpn=           0           1           1           0           1           1
 AtZEff=  -0.0000000  -0.0000000  -0.0000000  -0.0000000  -0.0000000  -0.0000000
 NQMom=    0.0000000   0.0000000   0.0000000   0.0000000   0.0000000   0.0000000
 NMagM=    0.0000000   2.7928460   2.7928460   0.0000000   2.7928460   2.7928460
 AtZNuc=   8.0000000   1.0000000   1.0000000   8.0000000   1.0000000   1.0000000
 Leave Link  101 at Sun Aug 28 05:22:20 2022, MaxMem=   536870912 cpu:               0.6 elap:               0.2
 (Enter /usr/site/hpc/x86_64/glibc-2.17/broadwell/gaussian/g16_a.03/pgi-16.5/g16/l202.exe)
                          Input orientation:                          
 ---------------------------------------------------------------------
 Center     Atomic      Atomic             Coordinates (Angstroms)
 Number     Number       Type             X           Y           Z
 ---------------------------------------------------------------------
      1          8           0        0.000000   -0.009833    0.000000
      2          1           0       -0.799571   -0.580965    0.000000
      3          1           0        0.799571   -0.580965    0.000000
      4          8           0       -3.082532   -2.194822    0.000000
      5          1           0       -3.653664   -1.395250    0.000000
      6          1           0       -3.653664   -2.994393    0.000000
 ---------------------------------------------------------------------
                    Distance matrix (angstroms):
                    1          2          3          4          5
     1  O    0.000000
     2  H    0.982601   0.000000
     3  H    0.982601   1.599142   0.000000
     4  O    3.778383   2.795791   4.204195   0.000000
     5  H    3.907511   2.967980   4.527070   0.982602   0.000000
     6  H    4.717718   3.737711   5.065169   0.982601   1.599143
                    6
     6  H    0.000000
 Stoichiometry    H4O2
 Framework group  CS[SG(H4O2)]
 Deg. of freedom     9
 Full point group                 CS      NOp   2
 Largest Abelian subgroup         CS      NOp   2
 Largest concise Abelian subgroup C1      NOp   1
                         Standard orientation:                         
 ---------------------------------------------------------------------
 Center     Atomic      Atomic             Coordinates (Angstroms)
 Number     Number       Type             X           Y           Z
 ---------------------------------------------------------------------
      1          8           0       -0.013567    1.968814    0.000000
      2          1           0       -0.010000    0.986219    0.000000
      3          1           0        0.914763    2.290853    0.000000
      4          8           0       -0.013567   -1.809569    0.000000
      5          1           0       -0.996163   -1.813136    0.000000
      6          1           0        0.308472   -2.737899    0.000000
 ---------------------------------------------------------------------
 Rotational constants (GHZ):         269.8895423           3.8420058           3.7880806
 Leave Link  202 at Sun Aug 28 05:22:20 2022, MaxMem=   536870912 cpu:               0.0 elap:               0.0
 (Enter /usr/site/hpc/x86_64/glibc-2.17/broadwell/gaussian/g16_a.03/pgi-16.5/g16/l301.exe)
 Standard basis: CC-pVTZ (5D, 7F)
 Ernie: Thresh=  0.10000D-02 Tol=  0.10000D-05 Strict=F.
 Ernie:  6 primitive shells out of 84 were deleted.
 There are    92 symmetry adapted cartesian basis functions of A'  symmetry.
 There are    38 symmetry adapted cartesian basis functions of A"  symmetry.
 There are    80 symmetry adapted basis functions of A'  symmetry.
 There are    36 symmetry adapted basis functions of A"  symmetry.
   116 basis functions,   172 primitive gaussians,   130 cartesian basis functions
    10 alpha electrons       10 beta electrons
       nuclear repulsion energy        31.9019303308 Hartrees.
 IExCor=    0 DFT=F Ex=HF Corr=None ExCW=0 ScaHFX=  1.000000
 ScaDFX=  1.000000  1.000000  1.000000  1.000000 ScalE2=  1.000000  1.000000
 IRadAn=      5 IRanWt=     -1 IRanGd=            0 ICorTp=0 IEmpDi=  4
 NAtoms=    6 NActive=    6 NUniq=    6 SFac= 1.00D+00 NAtFMM=   60 NAOKFM=F Big=F
 Integral buffers will be    131072 words long.
 Raffenetti 1 integral format.
 Two-electron integral symmetry is turned on.
 Leave Link  301 at Sun Aug 28 05:22:20 2022, MaxMem=   536870912 cpu:               0.1 elap:               0.0
 (Enter /usr/site/hpc/x86_64/glibc-2.17/broadwell/gaussian/g16_a.03/pgi-16.5/g16/l302.exe)
 NPDir=0 NMtPBC=     1 NCelOv=     1 NCel=       1 NClECP=     1 NCelD=      1
         NCelK=      1 NCelE2=     1 NClLst=     1 CellRange=     0.0.
 One-electron integrals computed using PRISM.
 One-electron integral symmetry used in STVInt
 NBasis=   116 RedAO= T EigKep=  2.40D-03  NBF=    80    36
 NBsUse=   116 1.00D-06 EigRej= -1.00D+00 NBFU=    80    36
 Leave Link  302 at Sun Aug 28 05:22:20 2022, MaxMem=   536870912 cpu:               0.5 elap:               0.1
 (Enter /usr/site/hpc/x86_64/glibc-2.17/broadwell/gaussian/g16_a.03/pgi-16.5/g16/l303.exe)
 DipDrv:  MaxL=1.
 Leave Link  303 at Sun Aug 28 05:22:20 2022, MaxMem=   536870912 cpu:               0.1 elap:               0.0
 (Enter /usr/site/hpc/x86_64/glibc-2.17/broadwell/gaussian/g16_a.03/pgi-16.5/g16/l401.exe)
 ExpMin= 1.03D-01 ExpMax= 1.53D+04 ExpMxC= 5.22D+02 IAcc=3 IRadAn=         5 AccDes= 0.00D+00
 Harris functional with IExCor=  205 and IRadAn=       5 diagonalized for initial guess.
 HarFok:  IExCor=  205 AccDes= 0.00D+00 IRadAn=         5 IDoV= 1 UseB2=F ITyADJ=14
 ICtDFT=  3500011 ScaDFX=  1.000000  1.000000  1.000000  1.000000
 FoFCou: FMM=F IPFlag=           0 FMFlag=      100000 FMFlg1=           0
         NFxFlg=           0 DoJE=T BraDBF=F KetDBF=T FulRan=T
         wScrn=  0.000000 ICntrl=       500 IOpCl=  0 I1Cent=   200000004 NGrid=           0
         NMat0=    1 NMatS0=      1 NMatT0=    0 NMatD0=    1 NMtDS0=    0 NMtDT0=    0
 Petite list used in FoFCou.
 Harris En= -152.299426433404    
 JPrj=0 DoOrth=F DoCkMO=F.
 Initial guess orbital symmetries:
       Occupied  (A') (A') (A') (A') (A') (A') (A') (A') (A") (A")
       Virtual   (A') (A') (A') (A') (A') (A') (A') (A') (A') (A')
                 (A") (A") (A') (A') (A') (A") (A") (A') (A") (A")
                 (A') (A') (A') (A') (A') (A') (A') (A') (A") (A")
                 (A") (A") (A') (A') (A') (A') (A') (A') (A') (A')
                 (A') (A') (A") (A") (A') (A') (A") (A") (A") (A")
                 (A') (A') (A') (A') (A') (A') (A") (A") (A') (A')
                 (A') (A") (A") (A') (A") (A") (A') (A') (A') (A')
                 (A") (A") (A') (A') (A') (A') (A') (A') (A') (A')
                 (A") (A") (A') (A') (A") (A") (A") (A") (A') (A')
                 (A") (A") (A') (A') (A') (A') (A") (A") (A') (A')
                 (A') (A') (A') (A') (A') (A')
 The electronic state of the initial guess is 1-A'.
 Leave Link  401 at Sun Aug 28 05:22:20 2022, MaxMem=   536870912 cpu:               0.8 elap:               0.2
 (Enter /usr/site/hpc/x86_64/glibc-2.17/broadwell/gaussian/g16_a.03/pgi-16.5/g16/l502.exe)
 Keep R1 ints in memory in symmetry-blocked form, NReq=34823457.
 FoFCou: FMM=F IPFlag=           0 FMFlag=           0 FMFlg1=           0
         NFxFlg=           0 DoJE=F BraDBF=F KetDBF=F FulRan=T
         wScrn=  0.000000 ICntrl=       600 IOpCl=  0 I1Cent=           0 NGrid=           0
         NMat0=    1 NMatS0=   6786 NMatT0=    0 NMatD0=    1 NMtDS0=    0 NMtDT0=    0
 Petite list used in FoFCou.
 Closed shell SCF:
 Using DIIS extrapolation, IDIIS=  1040.
 NGot=   536870912 LenX=   525040673 LenY=   525023332
 Requested convergence on RMS density matrix=1.00D-08 within 128 cycles.
 Requested convergence on MAX density matrix=1.00D-06.
 Requested convergence on             energy=1.00D-06.
 No special actions if energy rises.

 Cycle   1  Pass 1  IDiag  1:
 E= -151.935853775814    
 DIIS: error= 6.59D-02 at cycle   1 NSaved=   1.
 NSaved= 1 IEnMin= 1 EnMin= -151.935853775814     IErMin= 1 ErrMin= 6.59D-02
 ErrMax= 6.59D-02  0.00D+00 EMaxC= 1.00D-01 BMatC= 3.95D-01 BMatP= 3.95D-01
 IDIUse=3 WtCom= 3.41D-01 WtEn= 6.59D-01
 Coeff-Com:  0.100D+01
 Coeff-En:   0.100D+01
 Coeff:      0.100D+01
 Gap=     0.505 Goal=   None    Shift=    0.000
 GapD=    0.505 DampG=2.000 DampE=0.500 DampFc=1.0000 IDamp=-1.
 RMSDP=2.52D-03 MaxDP=6.81D-02              OVMax= 1.24D-01

 Cycle   2  Pass 1  IDiag  1:
 E= -152.045266843456     Delta-E=       -0.109413067642 Rises=F Damp=F
 DIIS: error= 4.10D-02 at cycle   2 NSaved=   2.
 NSaved= 2 IEnMin= 2 EnMin= -152.045266843456     IErMin= 2 ErrMin= 4.10D-02
 ErrMax= 4.10D-02  0.00D+00 EMaxC= 1.00D-01 BMatC= 1.09D-01 BMatP= 3.95D-01
 IDIUse=3 WtCom= 5.90D-01 WtEn= 4.10D-01
 Coeff-Com:  0.316D+00 0.684D+00
 Coeff-En:   0.162D+00 0.838D+00
 Coeff:      0.253D+00 0.747D+00
 Gap=     0.633 Goal=   None    Shift=    0.000
 RMSDP=1.34D-03 MaxDP=3.97D-02 DE=-1.09D-01 OVMax= 5.64D-02

 Cycle   3  Pass 1  IDiag  1:
 E= -152.107569639027     Delta-E=       -0.062302795571 Rises=F Damp=F
 DIIS: error= 9.03D-03 at cycle   3 NSaved=   3.
 NSaved= 3 IEnMin= 3 EnMin= -152.107569639027     IErMin= 3 ErrMin= 9.03D-03
 ErrMax= 9.03D-03  0.00D+00 EMaxC= 1.00D-01 BMatC= 5.93D-03 BMatP= 1.09D-01
 IDIUse=3 WtCom= 9.10D-01 WtEn= 9.03D-02
 Coeff-Com: -0.302D-01 0.158D+00 0.872D+00
 Coeff-En:   0.000D+00 0.000D+00 0.100D+01
 Coeff:     -0.275D-01 0.144D+00 0.884D+00
 Gap=     0.605 Goal=   None    Shift=    0.000
 RMSDP=2.47D-04 MaxDP=5.82D-03 DE=-6.23D-02 OVMax= 1.33D-02

 Cycle   4  Pass 1  IDiag  1:
 E= -152.111239718007     Delta-E=       -0.003670078980 Rises=F Damp=F
 DIIS: error= 8.29D-04 at cycle   4 NSaved=   4.
 NSaved= 4 IEnMin= 4 EnMin= -152.111239718007     IErMin= 4 ErrMin= 8.29D-04
 ErrMax= 8.29D-04  0.00D+00 EMaxC= 1.00D-01 BMatC= 3.57D-05 BMatP= 5.93D-03
 IDIUse=3 WtCom= 9.92D-01 WtEn= 8.29D-03
 Coeff-Com:  0.670D-02-0.611D-01-0.235D+00 0.129D+01
 Coeff-En:   0.000D+00 0.000D+00 0.000D+00 0.100D+01
 Coeff:      0.665D-02-0.606D-01-0.233D+00 0.129D+01
 Gap=     0.608 Goal=   None    Shift=    0.000
 RMSDP=5.20D-05 MaxDP=1.02D-03 DE=-3.67D-03 OVMax= 2.33D-03

 Cycle   5  Pass 1  IDiag  1:
 E= -152.111287962114     Delta-E=       -0.000048244107 Rises=F Damp=F
 DIIS: error= 1.87D-04 at cycle   5 NSaved=   5.
 NSaved= 5 IEnMin= 5 EnMin= -152.111287962114     IErMin= 5 ErrMin= 1.87D-04
 ErrMax= 1.87D-04  0.00D+00 EMaxC= 1.00D-01 BMatC= 1.42D-06 BMatP= 3.57D-05
 IDIUse=3 WtCom= 9.98D-01 WtEn= 1.87D-03
 Coeff-Com:  0.877D-03-0.263D-02-0.154D-01-0.159D+00 0.118D+01
 Coeff-En:   0.000D+00 0.000D+00 0.000D+00 0.000D+00 0.100D+01
 Coeff:      0.876D-03-0.263D-02-0.153D-01-0.159D+00 0.118D+01
 Gap=     0.609 Goal=   None    Shift=    0.000
 RMSDP=1.45D-05 MaxDP=3.30D-04 DE=-4.82D-05 OVMax= 7.13D-04

 Cycle   6  Pass 1  IDiag  1:
 E= -152.111290730786     Delta-E=       -0.000002768672 Rises=F Damp=F
 DIIS: error= 3.37D-05 at cycle   6 NSaved=   6.
 NSaved= 6 IEnMin= 6 EnMin= -152.111290730786     IErMin= 6 ErrMin= 3.37D-05
 ErrMax= 3.37D-05  0.00D+00 EMaxC= 1.00D-01 BMatC= 1.16D-07 BMatP= 1.42D-06
 IDIUse=1 WtCom= 1.00D+00 WtEn= 0.00D+00
 Coeff-Com: -0.813D-04 0.215D-02 0.715D-02-0.104D+00 0.280D+00 0.815D+00
 Coeff:     -0.813D-04 0.215D-02 0.715D-02-0.104D+00 0.280D+00 0.815D+00
 Gap=     0.609 Goal=   None    Shift=    0.000
 RMSDP=2.71D-06 MaxDP=7.91D-05 DE=-2.77D-06 OVMax= 1.51D-04

 Cycle   7  Pass 1  IDiag  1:
 E= -152.111290875449     Delta-E=       -0.000000144662 Rises=F Damp=F
 DIIS: error= 8.86D-06 at cycle   7 NSaved=   7.
 NSaved= 7 IEnMin= 7 EnMin= -152.111290875449     IErMin= 7 ErrMin= 8.86D-06
 ErrMax= 8.86D-06  0.00D+00 EMaxC= 1.00D-01 BMatC= 9.52D-09 BMatP= 1.16D-07
 IDIUse=1 WtCom= 1.00D+00 WtEn= 0.00D+00
 Coeff-Com: -0.102D-03 0.367D-03 0.174D-02 0.155D-01-0.142D+00 0.426D-01
 Coeff-Com:  0.108D+01
 Coeff:     -0.102D-03 0.367D-03 0.174D-02 0.155D-01-0.142D+00 0.426D-01
 Coeff:      0.108D+01
 Gap=     0.609 Goal=   None    Shift=    0.000
 RMSDP=1.26D-06 MaxDP=3.51D-05 DE=-1.45D-07 OVMax= 7.10D-05

 Cycle   8  Pass 1  IDiag  1:
 E= -152.111290893890     Delta-E=       -0.000000018441 Rises=F Damp=F
 DIIS: error= 2.25D-06 at cycle   8 NSaved=   8.
 NSaved= 8 IEnMin= 8 EnMin= -152.111290893890     IErMin= 8 ErrMin= 2.25D-06
 ErrMax= 2.25D-06  0.00D+00 EMaxC= 1.00D-01 BMatC= 3.95D-10 BMatP= 9.52D-09
 IDIUse=1 WtCom= 1.00D+00 WtEn= 0.00D+00
 Coeff-Com:  0.254D-04-0.211D-03-0.845D-03 0.363D-02 0.127D-01-0.514D-01
 Coeff-Com: -0.203D+00 0.124D+01
 Coeff:      0.254D-04-0.211D-03-0.845D-03 0.363D-02 0.127D-01-0.514D-01
 Coeff:     -0.203D+00 0.124D+01
 Gap=     0.609 Goal=   None    Shift=    0.000
 RMSDP=2.09D-07 MaxDP=3.66D-06 DE=-1.84D-08 OVMax= 1.41D-05

 Cycle   9  Pass 1  IDiag  1:
 E= -152.111290894791     Delta-E=       -0.000000000901 Rises=F Damp=F
 DIIS: error= 7.63D-07 at cycle   9 NSaved=   9.
 NSaved= 9 IEnMin= 9 EnMin= -152.111290894791     IErMin= 9 ErrMin= 7.63D-07
 ErrMax= 7.63D-07  0.00D+00 EMaxC= 1.00D-01 BMatC= 2.32D-11 BMatP= 3.95D-10
 IDIUse=1 WtCom= 1.00D+00 WtEn= 0.00D+00
 Coeff-Com:  0.819D-06 0.295D-04 0.119D-03-0.237D-02 0.783D-02 0.105D-01
 Coeff-Com: -0.280D-01-0.283D+00 0.129D+01
 Coeff:      0.819D-06 0.295D-04 0.119D-03-0.237D-02 0.783D-02 0.105D-01
 Coeff:     -0.280D-01-0.283D+00 0.129D+01
 Gap=     0.609 Goal=   None    Shift=    0.000
 RMSDP=5.48D-08 MaxDP=9.04D-07 DE=-9.01D-10 OVMax= 2.98D-06

 Cycle  10  Pass 1  IDiag  1:
 E= -152.111290894841     Delta-E=       -0.000000000051 Rises=F Damp=F
 DIIS: error= 8.38D-08 at cycle  10 NSaved=  10.
 NSaved=10 IEnMin=10 EnMin= -152.111290894841     IErMin=10 ErrMin= 8.38D-08
 ErrMax= 8.38D-08  0.00D+00 EMaxC= 1.00D-01 BMatC= 3.66D-13 BMatP= 2.32D-11
 IDIUse=1 WtCom= 1.00D+00 WtEn= 0.00D+00
 Coeff-Com: -0.565D-06-0.305D-05-0.142D-04 0.455D-03-0.166D-02-0.181D-02
 Coeff-Com:  0.734D-02 0.589D-01-0.351D+00 0.129D+01
 Coeff:     -0.565D-06-0.305D-05-0.142D-04 0.455D-03-0.166D-02-0.181D-02
 Coeff:      0.734D-02 0.589D-01-0.351D+00 0.129D+01
 Gap=     0.609 Goal=   None    Shift=    0.000
 RMSDP=6.52D-09 MaxDP=1.74D-07 DE=-5.06D-11 OVMax= 3.57D-07

 SCF Done:  E(RHF) =  -152.111290895     A.U. after   10 cycles
            NFock= 10  Conv=0.65D-08     -V/T= 2.0021
 KE= 1.517951282717D+02 PE=-4.251937006388D+02 EE= 8.938535114146D+01
 Leave Link  502 at Sun Aug 28 05:22:21 2022, MaxMem=   536870912 cpu:               4.4 elap:               1.2
 (Enter /usr/site/hpc/x86_64/glibc-2.17/broadwell/gaussian/g16_a.03/pgi-16.5/g16/l801.exe)
 Windowed orbitals will be sorted by symmetry type.
 ExpMin= 1.03D-01 ExpMax= 1.53D+04 ExpMxC= 5.22D+02 IAcc=3 IRadAn=         5 AccDes= 0.00D+00
 HarFok:  IExCor=  205 AccDes= 0.00D+00 IRadAn=         5 IDoV=-2 UseB2=F ITyADJ=14
 ICtDFT= 12500011 ScaDFX=  1.000000  1.000000  1.000000  1.000000
 Largest valence mixing into a core orbital is  1.12D-04
 Largest core mixing into a valence orbital is  1.77D-05
 Range of M.O.s used for correlation:     3   116
 NBasis=   116 NAE=    10 NBE=    10 NFC=     2 NFV=     0
 NROrb=    114 NOA=     8 NOB=     8 NVA=   106 NVB=   106
 Leave Link  801 at Sun Aug 28 05:22:22 2022, MaxMem=   536870912 cpu:               0.3 elap:               0.1
 (Enter /usr/site/hpc/x86_64/glibc-2.17/broadwell/gaussian/g16_a.03/pgi-16.5/g16/l804.exe)
 Closed-shell transformation, MDV=   536870912 ITran=4 ISComp=2.
 Unit  1 TFree=        834515 TCopy=        406125.
 Semi-Direct transformation.
 ModeAB=           4 MOrb=             8 LenV=     536368153
 LASXX=      2873146 LTotXX=     2873146 LenRXX=     5831278
 LTotAB=     2958132 MaxLAS=     6860064 LenRXY=           0
 NonZer=     8704424 LenScr=    13107200 LnRSAI=     6860064
 LnScr1=    10485760 LExtra=           0 Total=     36284302
 MaxDsk=          -1 SrtSym=           T ITran=            4
 DoSDTr:  NPSUse=  4
 JobTyp=0 Pass  1:  I=   1 to   8.
 (rs|ai) integrals will be sorted in core.
 Complete sort for first half transformation.
 First half transformation complete.
 Complete sort for second half transformation.
 Second half transformation complete.
 Spin components of T(2) and E(2):
     alpha-alpha T2 =       0.1560103304D-01 E2=     -0.6393434279D-01
     alpha-beta  T2 =       0.9187191321D-01 E2=     -0.3983767104D+00
     beta-beta   T2 =       0.1560103304D-01 E2=     -0.6393434279D-01
 ANorm=    0.1059751848D+01
 E2 =    -0.5262453960D+00 EUMP2 =    -0.15263753629087D+03
 Leave Link  804 at Sun Aug 28 05:22:23 2022, MaxMem=   536870912 cpu:               3.9 elap:               1.0
 (Enter /usr/site/hpc/x86_64/glibc-2.17/broadwell/gaussian/g16_a.03/pgi-16.5/g16/l913.exe)
 CIDS:  MDV=   536870912.
 Frozen-core window:  NFC=   2 NFV=   0.
 IFCWin=0 IBDFC=1 NFBD=     0     0 NFCmp=     0     0 NFFFC=     0     0
 Using DD3R+UMP44R for 1st iteration.
 Using DD4RQ for 2nd and later iterations.
 Keep R2 and R3 ints in memory in symmetry-blocked form, NReq=35357534.
 FoFCou: FMM=F IPFlag=           0 FMFlag=           0 FMFlg1=           0
         NFxFlg=           0 DoJE=F BraDBF=F KetDBF=F FulRan=T
         wScrn=  0.000000 ICntrl=       600 IOpCl=  0 I1Cent=           0 NGrid=           0
         NMat0=    1 NMatS0=   6786 NMatT0=    0 NMatD0=    1 NMtDS0=    0 NMtDT0=    0
 Petite list used in FoFCou.
 CIDS: In Core Option IDoMem=           1.
 CCSD(T)
 =======
 Iterations=  50 Convergence= 0.100D-06
 Produce multiple copies of IABC intergrals
 Iteration Nr.   1
 **********************
 DD1Dir will call FoFMem   1 times, MxPair=        72
 NAB=    36 NAA=     0 NBB=     0.
 MP4(R+Q)=  0.75607727D-02
 Maximum subspace dimension=  5
 A-vector RMS=  1.7631747D-03 Max=  5.9273253D-03 conv= 1.00D-05.
 RLE energy=       -0.5260361765
 E3=       -0.74211228D-02        EUMP3=      -0.15264495741D+03
 E4(DQ)=   -0.15230043D-02        UMP4(DQ)=   -0.15264648042D+03
 E4(SDQ)=  -0.45941747D-02        UMP4(SDQ)=  -0.15264955159D+03
 VARIATIONAL ENERGIES WITH THE FIRST-ORDER WAVEFUNCTION:
 DE(Corr)= -0.52603610     E(Corr)=     -152.63732700    
 NORM(A)=   0.10600695D+01
 Iteration Nr.   2
 **********************
 DD1Dir will call FoFMem   1 times, MxPair=        72
 NAB=    36 NAA=     0 NBB=     0.
 A-vector RMS=  2.1270789D-04 Max=  2.1537287D-03 conv= 1.00D-05.
 RLE energy=       -0.5370770782
 DE(Corr)= -0.53593455     E(CORR)=     -152.64722544     Delta=-9.90D-03
 NORM(A)=   0.10638076D+01
 Iteration Nr.   3
 **********************
 DD1Dir will call FoFMem   1 times, MxPair=        72
 NAB=    36 NAA=     0 NBB=     0.
 A-vector RMS=  1.4619533D-04 Max=  6.8634968D-04 conv= 1.00D-05.
 RLE energy=       -0.5375722912
 DE(Corr)= -0.53698669     E(CORR)=     -152.64827759     Delta=-1.05D-03
 NORM(A)=   0.10644405D+01
 Iteration Nr.   4
 **********************
 DD1Dir will call FoFMem   1 times, MxPair=        72
 NAB=    36 NAA=     0 NBB=     0.
 A-vector RMS=  2.8732724D-05 Max=  1.3093587D-04 conv= 1.00D-05.
 RLE energy=       -0.5376530336
 DE(Corr)= -0.53761879     E(CORR)=     -152.64890968     Delta=-6.32D-04
 NORM(A)=   0.10645502D+01
 Iteration Nr.   5
 **********************
 DD1Dir will call FoFMem   1 times, MxPair=        72
 NAB=    36 NAA=     0 NBB=     0.
 A-vector RMS=  1.8653817D-05 Max=  1.4209630D-04 conv= 1.00D-05.
 RLE energy=       -0.5376633375
 DE(Corr)= -0.53765627     E(CORR)=     -152.64894716     Delta=-3.75D-05
 NORM(A)=   0.10645607D+01
 Iteration Nr.   6
 **********************
 DD1Dir will call FoFMem   1 times, MxPair=        72
 NAB=    36 NAA=     0 NBB=     0.
 A-vector RMS=  5.8305230D-06 Max=  4.5244109D-05 conv= 1.00D-05.
 RLE energy=       -0.5376549621
 DE(Corr)= -0.53765970     E(CORR)=     -152.64895060     Delta=-3.43D-06
 NORM(A)=   0.10645603D+01
 Iteration Nr.   7
 **********************
 DD1Dir will call FoFMem   1 times, MxPair=        72
 NAB=    36 NAA=     0 NBB=     0.
 A-vector RMS=  2.6447505D-06 Max=  2.3002691D-05 conv= 1.00D-05.
 RLE energy=       -0.5376597551
 DE(Corr)= -0.53765989     E(CORR)=     -152.64895078     Delta=-1.87D-07
 NORM(A)=   0.10645622D+01
 Iteration Nr.   8
 **********************
 DD1Dir will call FoFMem   1 times, MxPair=        72
 NAB=    36 NAA=     0 NBB=     0.
 A-vector RMS=  9.4177991D-07 Max=  8.6096385D-06 conv= 1.00D-05.
 RLE energy=       -0.5376592389
 DE(Corr)= -0.53765945     E(CORR)=     -152.64895034     Delta= 4.42D-07
 NORM(A)=   0.10645623D+01
 Iteration Nr.   9
 **********************
 DD1Dir will call FoFMem   1 times, MxPair=        72
 NAB=    36 NAA=     0 NBB=     0.
 A-vector RMS=  1.9166929D-07 Max=  2.2549446D-06 conv= 1.00D-05.
 RLE energy=       -0.5376595107
 DE(Corr)= -0.53765958     E(CORR)=     -152.64895047     Delta=-1.34D-07
 NORM(A)=   0.10645627D+01
 Iteration Nr.  10
 **********************
 DD1Dir will call FoFMem   1 times, MxPair=        72
 NAB=    36 NAA=     0 NBB=     0.
 A-vector RMS=  7.2482761D-08 Max=  9.4163014D-07 conv= 1.00D-05.
 RLE energy=       -0.5376596978
 DE(Corr)= -0.53765969     E(CORR)=     -152.64895058     Delta=-1.06D-07
 NORM(A)=   0.10645628D+01
 Iteration Nr.  11
 **********************
 DD1Dir will call FoFMem   1 times, MxPair=        72
 NAB=    36 NAA=     0 NBB=     0.
 A-vector RMS=  2.6351637D-08 Max=  3.6437420D-07 conv= 1.00D-05.
 RLE energy=       -0.5376597532
 DE(Corr)= -0.53765974     E(CORR)=     -152.64895063     Delta=-5.10D-08
 NORM(A)=   0.10645629D+01
 CI/CC converged in   11 iterations to DelEn=-5.10D-08 Conv= 1.00D-07 ErrA1= 2.64D-08 Conv= 1.00D-05
 Wavefunction amplitudes converged. E(Corr)=     -152.64895063    
 Largest amplitude= 4.50D-02
 IPart=  2 IA=    7   11.05% done.
 IPart=  1 IA=   13   21.46% done.
 IPart=  1 IA=   19   31.21% done.
 IPart=  3 IA=   25   40.32% done.
 IPart=  3 IA=   32   50.13% done.
 IPart=  2 IA=   40   60.27% done.
 IPart=  3 IA=   49   70.30% done.
 IPart=  2 IA=   60   80.58% done.
 IPart=  3 IA=   74   90.51% done.
 Time for triples=       48.53 seconds.
 T4(CCSD)= -0.16087273D-01
 T5(CCSD)=  0.40624944D-03
 CCSD(T)= -0.15266463166D+03
 Discarding MO integrals.
 Leave Link  913 at Sun Aug 28 05:22:45 2022, MaxMem=   536870912 cpu:              85.5 elap:              22.7
 (Enter /usr/site/hpc/x86_64/glibc-2.17/broadwell/gaussian/g16_a.03/pgi-16.5/g16/l601.exe)
 Copying SCF densities to generalized density rwf, IOpCl= 0 IROHF=0.

 **********************************************************************

            Population analysis using the SCF density.

 **********************************************************************

 Orbital symmetries:
       Occupied  (A') (A') (A') (A') (A') (A') (A') (A') (A") (A")
       Virtual   (A') (A') (A') (A') (A') (A') (A') (A') (A') (A')
                 (A") (A') (A") (A') (A") (A') (A') (A") (A") (A")
                 (A') (A') (A') (A') (A') (A') (A') (A') (A") (A")
                 (A") (A") (A') (A') (A') (A') (A') (A') (A') (A')
                 (A') (A') (A") (A") (A') (A') (A") (A") (A') (A')
                 (A") (A") (A') (A') (A') (A') (A") (A") (A") (A")
                 (A') (A') (A') (A') (A") (A") (A') (A') (A') (A')
                 (A") (A") (A') (A') (A') (A') (A') (A') (A') (A')
                 (A") (A") (A') (A') (A") (A") (A") (A") (A') (A")
                 (A') (A") (A') (A') (A') (A") (A') (A") (A') (A')
                 (A') (A') (A') (A') (A') (A')
 The electronic state is 1-A'.
 Alpha  occ. eigenvalues --  -20.57117 -20.54224  -1.34395  -1.31563  -0.71823
 Alpha  occ. eigenvalues --   -0.68978  -0.58016  -0.55040  -0.51524  -0.48713
 Alpha virt. eigenvalues --    0.12165   0.16654   0.19268   0.25517   0.53552
 Alpha virt. eigenvalues --    0.54816   0.56012   0.58807   0.68630   0.72379
 Alpha virt. eigenvalues --    0.76750   0.79134   0.80229   0.82418   0.83533
 Alpha virt. eigenvalues --    0.84412   0.85933   0.86353   0.95355   0.99720
 Alpha virt. eigenvalues --    1.12918   1.15913   1.19086   1.20325   1.50204
 Alpha virt. eigenvalues --    1.51080   1.53914   1.63457   1.99000   2.02001
 Alpha virt. eigenvalues --    2.05170   2.08143   2.09713   2.12915   2.15363
 Alpha virt. eigenvalues --    2.18321   2.26485   2.33079   2.60098   2.63607
 Alpha virt. eigenvalues --    2.91775   2.96403   3.37927   3.40712   3.48486
 Alpha virt. eigenvalues --    3.51283   3.51731   3.54508   3.58089   3.61126
 Alpha virt. eigenvalues --    3.77094   3.79980   3.84227   3.84628   3.88056
 Alpha virt. eigenvalues --    3.90301   3.92143   3.94762   4.01733   4.04832
 Alpha virt. eigenvalues --    4.06101   4.11805   4.14076   4.20321   4.28650
 Alpha virt. eigenvalues --    4.31520   4.39767   4.42556   4.44810   4.49335
 Alpha virt. eigenvalues --    4.65063   4.67830   4.82195   4.83140   5.02974
 Alpha virt. eigenvalues --    5.06850   5.22701   5.25924   5.54478   5.56382
 Alpha virt. eigenvalues --    5.96299   5.99167   6.38873   6.42486   6.84576
 Alpha virt. eigenvalues --    6.87428   6.88096   6.90936   6.92786   6.97498
 Alpha virt. eigenvalues --    6.99259   7.00363   7.07453   7.09064   7.12954
 Alpha virt. eigenvalues --    7.16626   7.17247   7.19543   7.45731   7.49905
 Alpha virt. eigenvalues --    7.69981   7.72610   8.14927   8.17795  12.45300
 Alpha virt. eigenvalues --   12.72215
          Condensed to atoms (all electrons):
               1          2          3          4          5          6
     1  O    7.832579   0.348656   0.346992  -0.000763   0.000125   0.000042
     2  H    0.348656   0.416396  -0.038418   0.009306  -0.001142  -0.000383
     3  H    0.346992  -0.038418   0.436914  -0.000226   0.000026   0.000013
     4  O   -0.000763   0.009306  -0.000226   7.838735   0.331695   0.331899
     5  H    0.000125  -0.001142   0.000026   0.331695   0.437624  -0.028058
     6  H    0.000042  -0.000383   0.000013   0.331899  -0.028058   0.438224
 Mulliken charges:
               1
     1  O   -0.527630
     2  H    0.265585
     3  H    0.254699
     4  O   -0.510646
     5  H    0.259729
     6  H    0.258263
 Sum of Mulliken charges =  -0.00000
 Mulliken charges with hydrogens summed into heavy atoms:
               1
     1  O   -0.007346
     4  O    0.007346
 Electronic spatial extent (au):  <R**2>=            296.1624
 Charge=             -0.0000 electrons
 Dipole moment (field-independent basis, Debye):
    X=              0.4687    Y=             -2.9538    Z=              0.0000  Tot=              2.9907
 Quadrupole moment (field-independent basis, Debye-Ang):
   XX=             -9.6499   YY=             -8.2697   ZZ=            -14.7242
   XY=              5.3110   XZ=              0.0000   YZ=              0.0000
 Traceless Quadrupole moment (field-independent basis, Debye-Ang):
   XX=              1.2314   YY=              2.6115   ZZ=             -3.8429
   XY=              5.3110   XZ=              0.0000   YZ=              0.0000
 Octapole moment (field-independent basis, Debye-Ang**2):
  XXX=             -0.3051  YYY=            -31.2357  ZZZ=              0.0000  XYY=              9.9162
  XXY=             -0.9872  XXZ=              0.0000  XZZ=              0.0637  YZZ=             -0.4454
  YYZ=              0.0000  XYZ=              0.0000
 Hexadecapole moment (field-independent basis, Debye-Ang**3):
 XXXX=            -10.4816 YYYY=           -217.6808 ZZZZ=            -11.3653 XXXY=              3.1310
 XXXZ=              0.0000 YYYX=             13.6963 YYYZ=              0.0000 ZZZX=              0.0000
 ZZZY=              0.0000 XXYY=            -36.5571 XXZZ=             -4.4111 YYZZ=            -57.4268
 XXYZ=              0.0000 YYXZ=              0.0000 ZZXY=             -1.5198
 N-N= 3.190193033077D+01 E-N=-4.251936996321D+02  KE= 1.517951282717D+02
 Symmetry A'   KE= 1.427611584227D+02
 Symmetry A"   KE= 9.033969849007D+00
 Leave Link  601 at Sun Aug 28 05:22:45 2022, MaxMem=   536870912 cpu:               0.3 elap:               0.1
 (Enter /usr/site/hpc/x86_64/glibc-2.17/broadwell/gaussian/g16_a.03/pgi-16.5/g16/l9999.exe)
 1\1\GINC-N002\SP\RCCSD(T)-FC\CC-pVTZ\H4O2\ROOT\28-Aug-2022\0\\#p CCSD(
 T)/cc-pVTZ\\H2O_H2O_2199\\0,1\O,0,0.,-0.009833,0.\H,0,-0.799571,-0.580
 965,0.\H,0,0.799571,-0.580965,0.\O,0,-3.082532,-2.194822,0.\H,0,-3.653
 664,-1.39525,0.\H,0,-3.653664,-2.994393,0.\\Version=ES64L-G16RevA.03\S
 tate=1-A'\HF=-152.1112909\MP2=-152.6375363\MP3=-152.6449574\MP4D=-152.
 6540412\MP4DQ=-152.6464804\MP4SDQ=-152.6495516\CCSD=-152.6489506\CCSD(
 T)=-152.6646317\RMSD=6.515e-09\PG=CS [SG(H4O2)]\\@


 THE MEEK SHALL INHERIT THE EARTH.
 (THE REST OF US WILL ESCAPE TO THE STARS)
 Job cpu time:       0 days  0 hours  1 minutes 38.0 seconds.
 Elapsed time:       0 days  0 hours  0 minutes 26.0 seconds.
 File lengths (MBytes):  RWF=    348 Int=      0 D2E=      0 Chk=      8 Scr=      8
 Normal termination of Gaussian 16 at Sun Aug 28 05:22:45 2022.
