 Entering Gaussian System, Link 0=g16
 Input=H2O_H2O_1597.com
 Output=H2O_H2O_1597.log
 Initial command:
 /usr/site/hpc/x86_64/glibc-2.17/broadwell/gaussian/g16_a.03/pgi-16.5/g16/l1.exe "/gpfs/gpfs1/scratch/c7441284/ForceFieldModel/FittingData2/Gau-850516.inp" -scrdir="/gpfs/gpfs1/scratch/c7441284/ForceFieldModel/FittingData2/"
 Entering Link 1 = /usr/site/hpc/x86_64/glibc-2.17/broadwell/gaussian/g16_a.03/pgi-16.5/g16/l1.exe PID=    850517.
  
 Copyright (c) 1988,1990,1992,1993,1995,1998,2003,2009,2016,
            Gaussian, Inc.  All Rights Reserved.
  
 This is part of the Gaussian(R) 16 program.  It is based on
 the Gaussian(R) 09 system (copyright 2009, Gaussian, Inc.),
 the Gaussian(R) 03 system (copyright 2003, Gaussian, Inc.),
 the Gaussian(R) 98 system (copyright 1998, Gaussian, Inc.),
 the Gaussian(R) 94 system (copyright 1995, Gaussian, Inc.),
 the Gaussian 92(TM) system (copyright 1992, Gaussian, Inc.),
 the Gaussian 90(TM) system (copyright 1990, Gaussian, Inc.),
 the Gaussian 88(TM) system (copyright 1988, Gaussian, Inc.),
 the Gaussian 86(TM) system (copyright 1986, Carnegie Mellon
 University), and the Gaussian 82(TM) system (copyright 1983,
 Carnegie Mellon University). Gaussian is a federally registered
 trademark of Gaussian, Inc.
  
 This software contains proprietary and confidential information,
 including trade secrets, belonging to Gaussian, Inc.
  
 This software is provided under written license and may be
 used, copied, transmitted, or stored only in accord with that
 written license.
  
 The following legend is applicable only to US Government
 contracts under FAR:
  
                    RESTRICTED RIGHTS LEGEND
  
 Use, reproduction and disclosure by the US Government is
 subject to restrictions as set forth in subparagraphs (a)
 and (c) of the Commercial Computer Software - Restricted
 Rights clause in FAR 52.227-19.
  
 Gaussian, Inc.
 340 Quinnipiac St., Bldg. 40, Wallingford CT 06492
  
  
 ---------------------------------------------------------------
 Warning -- This program may not be used in any manner that
 competes with the business of Gaussian, Inc. or will provide
 assistance to any competitor of Gaussian, Inc.  The licensee
 of this program is prohibited from giving any competitor of
 Gaussian, Inc. access to this program.  By using this program,
 the user acknowledges that Gaussian, Inc. is engaged in the
 business of creating and licensing software in the field of
 computational chemistry and represents and warrants to the
 licensee that it is not a competitor of Gaussian, Inc. and that
 it will not use this program in any manner prohibited above.
 ---------------------------------------------------------------
  

 Cite this work as:
 Gaussian 16, Revision A.03,
 M. J. Frisch, G. W. Trucks, H. B. Schlegel, G. E. Scuseria, 
 M. A. Robb, J. R. Cheeseman, G. Scalmani, V. Barone, 
 G. A. Petersson, H. Nakatsuji, X. Li, M. Caricato, A. V. Marenich, 
 J. Bloino, B. G. Janesko, R. Gomperts, B. Mennucci, H. P. Hratchian, 
 J. V. Ortiz, A. F. Izmaylov, J. L. Sonnenberg, D. Williams-Young, 
 F. Ding, F. Lipparini, F. Egidi, J. Goings, B. Peng, A. Petrone, 
 T. Henderson, D. Ranasinghe, V. G. Zakrzewski, J. Gao, N. Rega, 
 G. Zheng, W. Liang, M. Hada, M. Ehara, K. Toyota, R. Fukuda, 
 J. Hasegawa, M. Ishida, T. Nakajima, Y. Honda, O. Kitao, H. Nakai, 
 T. Vreven, K. Throssell, J. A. Montgomery, Jr., J. E. Peralta, 
 F. Ogliaro, M. J. Bearpark, J. J. Heyd, E. N. Brothers, K. N. Kudin, 
 V. N. Staroverov, T. A. Keith, R. Kobayashi, J. Normand, 
 K. Raghavachari, A. P. Rendell, J. C. Burant, S. S. Iyengar, 
 J. Tomasi, M. Cossi, J. M. Millam, M. Klene, C. Adamo, R. Cammi, 
 J. W. Ochterski, R. L. Martin, K. Morokuma, O. Farkas, 
 J. B. Foresman, and D. J. Fox, Gaussian, Inc., Wallingford CT, 2016.
 
 ******************************************
 Gaussian 16:  ES64L-G16RevA.03 25-Dec-2016
                27-Aug-2022 
 ******************************************
 %NProcShared=4
 Will use up to    4 processors via shared memory.
 %Mem=4GB
 %Chk=H2O_H2O_1597.chk
 ------------------
 #p CCSD(T)/cc-pVTZ
 ------------------
 1/38=1,172=1/1;
 2/12=2,17=6,18=5,40=1/2;
 3/5=16,6=1,11=9,25=1,30=1/1,2,3;
 4//1;
 5/5=2,38=5/2;
 8/6=4,9=120000,10=1/1,4;
 9/5=7,14=2/13;
 6/7=2,8=2,9=2,10=2/1;
 99/5=1,9=1/99;
 Leave Link    1 at Sat Aug 27 23:42:55 2022, MaxMem=   536870912 cpu:               2.6 elap:               0.9
 (Enter /usr/site/hpc/x86_64/glibc-2.17/broadwell/gaussian/g16_a.03/pgi-16.5/g16/l101.exe)
 ------------
 H2O_H2O_1597
 ------------
 Symbolic Z-matrix:
 Charge =  0 Multiplicity = 1
 O                     0.       -0.00983   0. 
 H                    -0.79957  -0.58097   0. 
 H                     0.79957  -0.58097   0. 
 O                    -2.69296  -1.91789   0. 
 H                    -3.36357  -1.19971   0. 
 H                    -3.15484  -2.78517   0. 
 
 ITRead=  0  0  0  0  0  0
 MicOpt= -1 -1 -1 -1 -1 -1
 NAtoms=      6 NQM=        6 NQMF=       0 NMMI=      0 NMMIF=      0
                NMic=       0 NMicF=      0.
                    Isotopes and Nuclear Properties:
 (Nuclear quadrupole moments (NQMom) in fm**2, nuclear magnetic moments (NMagM)
  in nuclear magnetons)

  Atom         1           2           3           4           5           6
 IAtWgt=          16           1           1          16           1           1
 AtmWgt=  15.9949146   1.0078250   1.0078250  15.9949146   1.0078250   1.0078250
 NucSpn=           0           1           1           0           1           1
 AtZEff=  -0.0000000  -0.0000000  -0.0000000  -0.0000000  -0.0000000  -0.0000000
 NQMom=    0.0000000   0.0000000   0.0000000   0.0000000   0.0000000   0.0000000
 NMagM=    0.0000000   2.7928460   2.7928460   0.0000000   2.7928460   2.7928460
 AtZNuc=   8.0000000   1.0000000   1.0000000   8.0000000   1.0000000   1.0000000
 Leave Link  101 at Sat Aug 27 23:42:55 2022, MaxMem=   536870912 cpu:               0.6 elap:               0.2
 (Enter /usr/site/hpc/x86_64/glibc-2.17/broadwell/gaussian/g16_a.03/pgi-16.5/g16/l202.exe)
                          Input orientation:                          
 ---------------------------------------------------------------------
 Center     Atomic      Atomic             Coordinates (Angstroms)
 Number     Number       Type             X           Y           Z
 ---------------------------------------------------------------------
      1          8           0        0.000000   -0.009833    0.000000
      2          1           0       -0.799571   -0.580965    0.000000
      3          1           0        0.799571   -0.580965    0.000000
      4          8           0       -2.692955   -1.917891    0.000000
      5          1           0       -3.363566   -1.199708    0.000000
      6          1           0       -3.154835   -2.785170    0.000000
 ---------------------------------------------------------------------
                    Distance matrix (angstroms):
                    1          2          3          4          5
     1  O    0.000000
     2  H    0.982601   0.000000
     3  H    0.982601   1.599142   0.000000
     4  O    3.300408   2.317817   3.739667   0.000000
     5  H    3.567825   2.637596   4.208866   0.982602   0.000000
     6  H    4.201842   3.225800   4.527234   0.982602   1.599143
                    6
     6  H    0.000000
 Stoichiometry    H4O2
 Framework group  CS[SG(H4O2)]
 Deg. of freedom     9
 Full point group                 CS      NOp   2
 Largest Abelian subgroup         CS      NOp   2
 Largest concise Abelian subgroup C1      NOp   1
                         Standard orientation:                         
 ---------------------------------------------------------------------
 Center     Atomic      Atomic             Coordinates (Angstroms)
 Number     Number       Type             X           Y           Z
 ---------------------------------------------------------------------
      1          8           0       -0.019948    1.733735    0.000000
      2          1           0       -0.016189    0.751141    0.000000
      3          1           0        0.908320    2.055955    0.000000
      4          8           0       -0.019948   -1.566673    0.000000
      5          1           0       -0.993645   -1.698654    0.000000
      6          1           0        0.420679   -2.444940    0.000000
 ---------------------------------------------------------------------
 Rotational constants (GHZ):         258.8464852           4.9982023           4.9035177
 Leave Link  202 at Sat Aug 27 23:42:55 2022, MaxMem=   536870912 cpu:               0.0 elap:               0.0
 (Enter /usr/site/hpc/x86_64/glibc-2.17/broadwell/gaussian/g16_a.03/pgi-16.5/g16/l301.exe)
 Standard basis: CC-pVTZ (5D, 7F)
 Ernie: Thresh=  0.10000D-02 Tol=  0.10000D-05 Strict=F.
 Ernie:  6 primitive shells out of 84 were deleted.
 There are    92 symmetry adapted cartesian basis functions of A'  symmetry.
 There are    38 symmetry adapted cartesian basis functions of A"  symmetry.
 There are    80 symmetry adapted basis functions of A'  symmetry.
 There are    36 symmetry adapted basis functions of A"  symmetry.
   116 basis functions,   172 primitive gaussians,   130 cartesian basis functions
    10 alpha electrons       10 beta electrons
       nuclear repulsion energy        33.9167539887 Hartrees.
 IExCor=    0 DFT=F Ex=HF Corr=None ExCW=0 ScaHFX=  1.000000
 ScaDFX=  1.000000  1.000000  1.000000  1.000000 ScalE2=  1.000000  1.000000
 IRadAn=      5 IRanWt=     -1 IRanGd=            0 ICorTp=0 IEmpDi=  4
 NAtoms=    6 NActive=    6 NUniq=    6 SFac= 1.00D+00 NAtFMM=   60 NAOKFM=F Big=F
 Integral buffers will be    131072 words long.
 Raffenetti 1 integral format.
 Two-electron integral symmetry is turned on.
 Leave Link  301 at Sat Aug 27 23:42:55 2022, MaxMem=   536870912 cpu:               0.2 elap:               0.0
 (Enter /usr/site/hpc/x86_64/glibc-2.17/broadwell/gaussian/g16_a.03/pgi-16.5/g16/l302.exe)
 NPDir=0 NMtPBC=     1 NCelOv=     1 NCel=       1 NClECP=     1 NCelD=      1
         NCelK=      1 NCelE2=     1 NClLst=     1 CellRange=     0.0.
 One-electron integrals computed using PRISM.
 One-electron integral symmetry used in STVInt
 NBasis=   116 RedAO= T EigKep=  2.23D-03  NBF=    80    36
 NBsUse=   116 1.00D-06 EigRej= -1.00D+00 NBFU=    80    36
 Leave Link  302 at Sat Aug 27 23:42:56 2022, MaxMem=   536870912 cpu:               0.4 elap:               0.1
 (Enter /usr/site/hpc/x86_64/glibc-2.17/broadwell/gaussian/g16_a.03/pgi-16.5/g16/l303.exe)
 DipDrv:  MaxL=1.
 Leave Link  303 at Sat Aug 27 23:42:56 2022, MaxMem=   536870912 cpu:               0.1 elap:               0.0
 (Enter /usr/site/hpc/x86_64/glibc-2.17/broadwell/gaussian/g16_a.03/pgi-16.5/g16/l401.exe)
 ExpMin= 1.03D-01 ExpMax= 1.53D+04 ExpMxC= 5.22D+02 IAcc=3 IRadAn=         5 AccDes= 0.00D+00
 Harris functional with IExCor=  205 and IRadAn=       5 diagonalized for initial guess.
 HarFok:  IExCor=  205 AccDes= 0.00D+00 IRadAn=         5 IDoV= 1 UseB2=F ITyADJ=14
 ICtDFT=  3500011 ScaDFX=  1.000000  1.000000  1.000000  1.000000
 FoFCou: FMM=F IPFlag=           0 FMFlag=      100000 FMFlg1=           0
         NFxFlg=           0 DoJE=T BraDBF=F KetDBF=T FulRan=T
         wScrn=  0.000000 ICntrl=       500 IOpCl=  0 I1Cent=   200000004 NGrid=           0
         NMat0=    1 NMatS0=      1 NMatT0=    0 NMatD0=    1 NMtDS0=    0 NMtDT0=    0
 Petite list used in FoFCou.
 Harris En= -152.301423589786    
 JPrj=0 DoOrth=F DoCkMO=F.
 Initial guess orbital symmetries:
       Occupied  (A') (A') (A') (A') (A') (A') (A') (A') (A") (A")
       Virtual   (A') (A') (A') (A') (A') (A') (A') (A') (A') (A")
                 (A') (A") (A') (A') (A") (A") (A') (A') (A") (A")
                 (A') (A') (A') (A') (A') (A') (A') (A') (A") (A")
                 (A") (A") (A') (A') (A') (A') (A') (A') (A') (A')
                 (A') (A') (A") (A") (A') (A') (A") (A") (A") (A")
                 (A') (A') (A') (A') (A') (A") (A") (A') (A') (A')
                 (A') (A") (A") (A') (A") (A") (A') (A') (A') (A")
                 (A") (A') (A') (A') (A') (A') (A') (A') (A') (A')
                 (A") (A") (A') (A') (A") (A") (A") (A") (A') (A")
                 (A") (A') (A') (A') (A') (A') (A") (A") (A') (A')
                 (A') (A') (A') (A') (A') (A')
 The electronic state of the initial guess is 1-A'.
 Leave Link  401 at Sat Aug 27 23:42:56 2022, MaxMem=   536870912 cpu:               0.8 elap:               0.2
 (Enter /usr/site/hpc/x86_64/glibc-2.17/broadwell/gaussian/g16_a.03/pgi-16.5/g16/l502.exe)
 Keep R1 ints in memory in symmetry-blocked form, NReq=34823457.
 FoFCou: FMM=F IPFlag=           0 FMFlag=           0 FMFlg1=           0
         NFxFlg=           0 DoJE=F BraDBF=F KetDBF=F FulRan=T
         wScrn=  0.000000 ICntrl=       600 IOpCl=  0 I1Cent=           0 NGrid=           0
         NMat0=    1 NMatS0=   6786 NMatT0=    0 NMatD0=    1 NMtDS0=    0 NMtDT0=    0
 Petite list used in FoFCou.
 Closed shell SCF:
 Using DIIS extrapolation, IDIIS=  1040.
 NGot=   536870912 LenX=   525040673 LenY=   525023332
 Requested convergence on RMS density matrix=1.00D-08 within 128 cycles.
 Requested convergence on MAX density matrix=1.00D-06.
 Requested convergence on             energy=1.00D-06.
 No special actions if energy rises.

 Cycle   1  Pass 1  IDiag  1:
 E= -151.941584923902    
 DIIS: error= 6.53D-02 at cycle   1 NSaved=   1.
 NSaved= 1 IEnMin= 1 EnMin= -151.941584923902     IErMin= 1 ErrMin= 6.53D-02
 ErrMax= 6.53D-02  0.00D+00 EMaxC= 1.00D-01 BMatC= 3.91D-01 BMatP= 3.91D-01
 IDIUse=3 WtCom= 3.47D-01 WtEn= 6.53D-01
 Coeff-Com:  0.100D+01
 Coeff-En:   0.100D+01
 Coeff:      0.100D+01
 Gap=     0.505 Goal=   None    Shift=    0.000
 GapD=    0.505 DampG=2.000 DampE=0.500 DampFc=1.0000 IDamp=-1.
 RMSDP=2.54D-03 MaxDP=6.95D-02              OVMax= 1.22D-01

 Cycle   2  Pass 1  IDiag  1:
 E= -152.049615550199     Delta-E=       -0.108030626297 Rises=F Damp=F
 DIIS: error= 4.01D-02 at cycle   2 NSaved=   2.
 NSaved= 2 IEnMin= 2 EnMin= -152.049615550199     IErMin= 2 ErrMin= 4.01D-02
 ErrMax= 4.01D-02  0.00D+00 EMaxC= 1.00D-01 BMatC= 1.05D-01 BMatP= 3.91D-01
 IDIUse=3 WtCom= 5.99D-01 WtEn= 4.01D-01
 Coeff-Com:  0.312D+00 0.688D+00
 Coeff-En:   0.154D+00 0.846D+00
 Coeff:      0.249D+00 0.751D+00
 Gap=     0.625 Goal=   None    Shift=    0.000
 RMSDP=1.36D-03 MaxDP=4.00D-02 DE=-1.08D-01 OVMax= 5.61D-02

 Cycle   3  Pass 1  IDiag  1:
 E= -152.109502987223     Delta-E=       -0.059887437025 Rises=F Damp=F
 DIIS: error= 9.08D-03 at cycle   3 NSaved=   3.
 NSaved= 3 IEnMin= 3 EnMin= -152.109502987223     IErMin= 3 ErrMin= 9.08D-03
 ErrMax= 9.08D-03  0.00D+00 EMaxC= 1.00D-01 BMatC= 5.93D-03 BMatP= 1.05D-01
 IDIUse=3 WtCom= 9.09D-01 WtEn= 9.08D-02
 Coeff-Com: -0.301D-01 0.161D+00 0.869D+00
 Coeff-En:   0.000D+00 0.000D+00 0.100D+01
 Coeff:     -0.274D-01 0.146D+00 0.881D+00
 Gap=     0.597 Goal=   None    Shift=    0.000
 RMSDP=2.51D-04 MaxDP=6.00D-03 DE=-5.99D-02 OVMax= 1.32D-02

 Cycle   4  Pass 1  IDiag  1:
 E= -152.113161598471     Delta-E=       -0.003658611248 Rises=F Damp=F
 DIIS: error= 8.04D-04 at cycle   4 NSaved=   4.
 NSaved= 4 IEnMin= 4 EnMin= -152.113161598471     IErMin= 4 ErrMin= 8.04D-04
 ErrMax= 8.04D-04  0.00D+00 EMaxC= 1.00D-01 BMatC= 3.53D-05 BMatP= 5.93D-03
 IDIUse=3 WtCom= 9.92D-01 WtEn= 8.04D-03
 Coeff-Com:  0.666D-02-0.617D-01-0.233D+00 0.129D+01
 Coeff-En:   0.000D+00 0.000D+00 0.000D+00 0.100D+01
 Coeff:      0.660D-02-0.612D-01-0.231D+00 0.129D+01
 Gap=     0.600 Goal=   None    Shift=    0.000
 RMSDP=5.25D-05 MaxDP=1.01D-03 DE=-3.66D-03 OVMax= 2.49D-03

 Cycle   5  Pass 1  IDiag  1:
 E= -152.113210103890     Delta-E=       -0.000048505419 Rises=F Damp=F
 DIIS: error= 1.82D-04 at cycle   5 NSaved=   5.
 NSaved= 5 IEnMin= 5 EnMin= -152.113210103890     IErMin= 5 ErrMin= 1.82D-04
 ErrMax= 1.82D-04  0.00D+00 EMaxC= 1.00D-01 BMatC= 1.54D-06 BMatP= 3.53D-05
 IDIUse=3 WtCom= 9.98D-01 WtEn= 1.82D-03
 Coeff-Com:  0.130D-02-0.657D-02-0.306D-01-0.776D-01 0.111D+01
 Coeff-En:   0.000D+00 0.000D+00 0.000D+00 0.000D+00 0.100D+01
 Coeff:      0.130D-02-0.656D-02-0.306D-01-0.775D-01 0.111D+01
 Gap=     0.601 Goal=   None    Shift=    0.000
 RMSDP=1.42D-05 MaxDP=3.39D-04 DE=-4.85D-05 OVMax= 7.02D-04

 Cycle   6  Pass 1  IDiag  1:
 E= -152.113212872956     Delta-E=       -0.000002769067 Rises=F Damp=F
 DIIS: error= 4.80D-05 at cycle   6 NSaved=   6.
 NSaved= 6 IEnMin= 6 EnMin= -152.113212872956     IErMin= 6 ErrMin= 4.80D-05
 ErrMax= 4.80D-05  0.00D+00 EMaxC= 1.00D-01 BMatC= 1.93D-07 BMatP= 1.54D-06
 IDIUse=1 WtCom= 1.00D+00 WtEn= 0.00D+00
 Coeff-Com: -0.751D-04 0.239D-02 0.786D-02-0.120D+00 0.323D+00 0.787D+00
 Coeff:     -0.751D-04 0.239D-02 0.786D-02-0.120D+00 0.323D+00 0.787D+00
 Gap=     0.601 Goal=   None    Shift=    0.000
 RMSDP=3.21D-06 MaxDP=9.04D-05 DE=-2.77D-06 OVMax= 1.78D-04

 Cycle   7  Pass 1  IDiag  1:
 E= -152.113213088672     Delta-E=       -0.000000215716 Rises=F Damp=F
 DIIS: error= 9.82D-06 at cycle   7 NSaved=   7.
 NSaved= 7 IEnMin= 7 EnMin= -152.113213088672     IErMin= 7 ErrMin= 9.82D-06
 ErrMax= 9.82D-06  0.00D+00 EMaxC= 1.00D-01 BMatC= 8.11D-09 BMatP= 1.93D-07
 IDIUse=1 WtCom= 1.00D+00 WtEn= 0.00D+00
 Coeff-Com: -0.969D-04 0.346D-03 0.160D-02 0.152D-01-0.129D+00-0.608D-01
 Coeff-Com:  0.117D+01
 Coeff:     -0.969D-04 0.346D-03 0.160D-02 0.152D-01-0.129D+00-0.608D-01
 Coeff:      0.117D+01
 Gap=     0.601 Goal=   None    Shift=    0.000
 RMSDP=1.40D-06 MaxDP=3.80D-05 DE=-2.16D-07 OVMax= 7.08D-05

 Cycle   8  Pass 1  IDiag  1:
 E= -152.113213107948     Delta-E=       -0.000000019276 Rises=F Damp=F
 DIIS: error= 1.97D-06 at cycle   8 NSaved=   8.
 NSaved= 8 IEnMin= 8 EnMin= -152.113213107948     IErMin= 8 ErrMin= 1.97D-06
 ErrMax= 1.97D-06  0.00D+00 EMaxC= 1.00D-01 BMatC= 3.77D-10 BMatP= 8.11D-09
 IDIUse=1 WtCom= 1.00D+00 WtEn= 0.00D+00
 Coeff-Com:  0.244D-04-0.212D-03-0.831D-03 0.388D-02 0.996D-02-0.270D-01
 Coeff-Com: -0.222D+00 0.124D+01
 Coeff:      0.244D-04-0.212D-03-0.831D-03 0.388D-02 0.996D-02-0.270D-01
 Coeff:     -0.222D+00 0.124D+01
 Gap=     0.601 Goal=   None    Shift=    0.000
 RMSDP=2.13D-07 MaxDP=3.84D-06 DE=-1.93D-08 OVMax= 1.39D-05

 Cycle   9  Pass 1  IDiag  1:
 E= -152.113213108816     Delta-E=       -0.000000000867 Rises=F Damp=F
 DIIS: error= 5.68D-07 at cycle   9 NSaved=   9.
 NSaved= 9 IEnMin= 9 EnMin= -152.113213108816     IErMin= 9 ErrMin= 5.68D-07
 ErrMax= 5.68D-07  0.00D+00 EMaxC= 1.00D-01 BMatC= 2.27D-11 BMatP= 3.77D-10
 IDIUse=1 WtCom= 1.00D+00 WtEn= 0.00D+00
 Coeff-Com:  0.128D-05 0.261D-04 0.104D-03-0.228D-02 0.746D-02 0.118D-01
 Coeff-Com: -0.332D-01-0.267D+00 0.128D+01
 Coeff:      0.128D-05 0.261D-04 0.104D-03-0.228D-02 0.746D-02 0.118D-01
 Coeff:     -0.332D-01-0.267D+00 0.128D+01
 Gap=     0.601 Goal=   None    Shift=    0.000
 RMSDP=5.41D-08 MaxDP=8.02D-07 DE=-8.67D-10 OVMax= 3.10D-06

 Cycle  10  Pass 1  IDiag  1:
 E= -152.113213108865     Delta-E=       -0.000000000049 Rises=F Damp=F
 DIIS: error= 6.94D-08 at cycle  10 NSaved=  10.
 NSaved=10 IEnMin=10 EnMin= -152.113213108865     IErMin=10 ErrMin= 6.94D-08
 ErrMax= 6.94D-08  0.00D+00 EMaxC= 1.00D-01 BMatC= 3.83D-13 BMatP= 2.27D-11
 IDIUse=1 WtCom= 1.00D+00 WtEn= 0.00D+00
 Coeff-Com: -0.630D-06 0.716D-06 0.130D-05 0.222D-03-0.996D-03-0.107D-02
 Coeff-Com:  0.658D-02 0.270D-01-0.230D+00 0.120D+01
 Coeff:     -0.630D-06 0.716D-06 0.130D-05 0.222D-03-0.996D-03-0.107D-02
 Coeff:      0.658D-02 0.270D-01-0.230D+00 0.120D+01
 Gap=     0.601 Goal=   None    Shift=    0.000
 RMSDP=6.27D-09 MaxDP=1.35D-07 DE=-4.95D-11 OVMax= 3.52D-07

 SCF Done:  E(RHF) =  -152.113213109     A.U. after   10 cycles
            NFock= 10  Conv=0.63D-08     -V/T= 2.0021
 KE= 1.517953936730D+02 PE=-4.292379140251D+02 EE= 9.141255325450D+01
 Leave Link  502 at Sat Aug 27 23:42:57 2022, MaxMem=   536870912 cpu:               4.5 elap:               1.3
 (Enter /usr/site/hpc/x86_64/glibc-2.17/broadwell/gaussian/g16_a.03/pgi-16.5/g16/l801.exe)
 Windowed orbitals will be sorted by symmetry type.
 ExpMin= 1.03D-01 ExpMax= 1.53D+04 ExpMxC= 5.22D+02 IAcc=3 IRadAn=         5 AccDes= 0.00D+00
 HarFok:  IExCor=  205 AccDes= 0.00D+00 IRadAn=         5 IDoV=-2 UseB2=F ITyADJ=14
 ICtDFT= 12500011 ScaDFX=  1.000000  1.000000  1.000000  1.000000
 Largest valence mixing into a core orbital is  1.12D-04
 Largest core mixing into a valence orbital is  1.77D-05
 Range of M.O.s used for correlation:     3   116
 NBasis=   116 NAE=    10 NBE=    10 NFC=     2 NFV=     0
 NROrb=    114 NOA=     8 NOB=     8 NVA=   106 NVB=   106
 Leave Link  801 at Sat Aug 27 23:42:57 2022, MaxMem=   536870912 cpu:               0.5 elap:               0.2
 (Enter /usr/site/hpc/x86_64/glibc-2.17/broadwell/gaussian/g16_a.03/pgi-16.5/g16/l804.exe)
 Closed-shell transformation, MDV=   536870912 ITran=4 ISComp=2.
 Unit  1 TFree=        834515 TCopy=        406125.
 Semi-Direct transformation.
 ModeAB=           4 MOrb=             8 LenV=     536364953
 LASXX=      2873146 LTotXX=     2873146 LenRXX=     5831278
 LTotAB=     2958132 MaxLAS=     7391760 LenRXY=           0
 NonZer=     8704424 LenScr=    13107200 LnRSAI=     7391760
 LnScr1=    11534336 LExtra=           0 Total=     37864574
 MaxDsk=          -1 SrtSym=           T ITran=            4
 DoSDTr:  NPSUse=  4
 JobTyp=0 Pass  1:  I=   1 to   8.
 (rs|ai) integrals will be sorted in core.
 Complete sort for first half transformation.
 First half transformation complete.
 Complete sort for second half transformation.
 Second half transformation complete.
 Spin components of T(2) and E(2):
     alpha-alpha T2 =       0.1565615193D-01 E2=     -0.6412618353D-01
     alpha-beta  T2 =       0.9187777994D-01 E2=     -0.3986530361D+00
     beta-beta   T2 =       0.1565615193D-01 E2=     -0.6412618353D-01
 ANorm=    0.1059806626D+01
 E2 =    -0.5269054032D+00 EUMP2 =    -0.15264011851205D+03
 Leave Link  804 at Sat Aug 27 23:42:59 2022, MaxMem=   536870912 cpu:               5.2 elap:               1.4
 (Enter /usr/site/hpc/x86_64/glibc-2.17/broadwell/gaussian/g16_a.03/pgi-16.5/g16/l913.exe)
 CIDS:  MDV=   536870912.
 Frozen-core window:  NFC=   2 NFV=   0.
 IFCWin=0 IBDFC=1 NFBD=     0     0 NFCmp=     0     0 NFFFC=     0     0
 Using DD3R+UMP44R for 1st iteration.
 Using DD4RQ for 2nd and later iterations.
 Keep R2 and R3 ints in memory in symmetry-blocked form, NReq=35357534.
 FoFCou: FMM=F IPFlag=           0 FMFlag=           0 FMFlg1=           0
         NFxFlg=           0 DoJE=F BraDBF=F KetDBF=F FulRan=T
         wScrn=  0.000000 ICntrl=       600 IOpCl=  0 I1Cent=           0 NGrid=           0
         NMat0=    1 NMatS0=   6786 NMatT0=    0 NMatD0=    1 NMtDS0=    0 NMtDT0=    0
 Petite list used in FoFCou.
 CIDS: In Core Option IDoMem=           1.
 CCSD(T)
 =======
 Iterations=  50 Convergence= 0.100D-06
 Produce multiple copies of IABC intergrals
 Iteration Nr.   1
 **********************
 DD1Dir will call FoFMem   1 times, MxPair=        72
 NAB=    36 NAA=     0 NBB=     0.
 MP4(R+Q)=  0.76158210D-02
 Maximum subspace dimension=  5
 A-vector RMS=  1.7877991D-03 Max=  5.6570770D-03 conv= 1.00D-05.
 RLE energy=       -0.5265198276
 E3=       -0.72981989D-02        EUMP3=      -0.15264741671D+03
 E4(DQ)=   -0.14521685D-02        UMP4(DQ)=   -0.15264886888D+03
 E4(SDQ)=  -0.45519059D-02        UMP4(SDQ)=  -0.15265196862D+03
 VARIATIONAL ENERGIES WITH THE FIRST-ORDER WAVEFUNCTION:
 DE(Corr)= -0.52651955     E(Corr)=     -152.63973266    
 NORM(A)=   0.10600708D+01
 Iteration Nr.   2
 **********************
 DD1Dir will call FoFMem   1 times, MxPair=        72
 NAB=    36 NAA=     0 NBB=     0.
 A-vector RMS=  2.1267004D-04 Max=  1.9789801D-03 conv= 1.00D-05.
 RLE energy=       -0.5375591517
 DE(Corr)= -0.53643665     E(CORR)=     -152.64964976     Delta=-9.92D-03
 NORM(A)=   0.10638048D+01
 Iteration Nr.   3
 **********************
 DD1Dir will call FoFMem   1 times, MxPair=        72
 NAB=    36 NAA=     0 NBB=     0.
 A-vector RMS=  1.5180236D-04 Max=  7.7088125D-04 conv= 1.00D-05.
 RLE energy=       -0.5380518221
 DE(Corr)= -0.53746556     E(CORR)=     -152.65067867     Delta=-1.03D-03
 NORM(A)=   0.10644330D+01
 Iteration Nr.   4
 **********************
 DD1Dir will call FoFMem   1 times, MxPair=        72
 NAB=    36 NAA=     0 NBB=     0.
 A-vector RMS=  3.0297289D-05 Max=  1.3910074D-04 conv= 1.00D-05.
 RLE energy=       -0.5381308852
 DE(Corr)= -0.53809732     E(CORR)=     -152.65131043     Delta=-6.32D-04
 NORM(A)=   0.10645428D+01
 Iteration Nr.   5
 **********************
 DD1Dir will call FoFMem   1 times, MxPair=        72
 NAB=    36 NAA=     0 NBB=     0.
 A-vector RMS=  1.8577079D-05 Max=  1.5994490D-04 conv= 1.00D-05.
 RLE energy=       -0.5381426849
 DE(Corr)= -0.53813540     E(CORR)=     -152.65134851     Delta=-3.81D-05
 NORM(A)=   0.10645542D+01
 Iteration Nr.   6
 **********************
 DD1Dir will call FoFMem   1 times, MxPair=        72
 NAB=    36 NAA=     0 NBB=     0.
 A-vector RMS=  5.7413410D-06 Max=  4.5534187D-05 conv= 1.00D-05.
 RLE energy=       -0.5381348539
 DE(Corr)= -0.53813904     E(CORR)=     -152.65135215     Delta=-3.65D-06
 NORM(A)=   0.10645537D+01
 Iteration Nr.   7
 **********************
 DD1Dir will call FoFMem   1 times, MxPair=        72
 NAB=    36 NAA=     0 NBB=     0.
 A-vector RMS=  2.6506238D-06 Max=  2.5892625D-05 conv= 1.00D-05.
 RLE energy=       -0.5381386461
 DE(Corr)= -0.53813924     E(CORR)=     -152.65135235     Delta=-1.98D-07
 NORM(A)=   0.10645552D+01
 Iteration Nr.   8
 **********************
 DD1Dir will call FoFMem   1 times, MxPair=        72
 NAB=    36 NAA=     0 NBB=     0.
 A-vector RMS=  1.0225819D-06 Max=  9.0906946D-06 conv= 1.00D-05.
 RLE energy=       -0.5381386029
 DE(Corr)= -0.53813882     E(CORR)=     -152.65135193     Delta= 4.21D-07
 NORM(A)=   0.10645554D+01
 Iteration Nr.   9
 **********************
 DD1Dir will call FoFMem   1 times, MxPair=        72
 NAB=    36 NAA=     0 NBB=     0.
 A-vector RMS=  2.3771336D-07 Max=  3.0190931D-06 conv= 1.00D-05.
 RLE energy=       -0.5381388354
 DE(Corr)= -0.53813891     E(CORR)=     -152.65135202     Delta=-8.84D-08
 NORM(A)=   0.10645558D+01
 CI/CC converged in    9 iterations to DelEn=-8.84D-08 Conv= 1.00D-07 ErrA1= 2.38D-07 Conv= 1.00D-05
 Wavefunction amplitudes converged. E(Corr)=     -152.65135202    
 Largest amplitude= 4.19D-02
 IPart=  3 IA=    7   11.05% done.
 IPart=  3 IA=   13   21.46% done.
 IPart=  3 IA=   19   31.21% done.
 IPart=  2 IA=   25   40.32% done.
 IPart=  1 IA=   32   50.13% done.
 IPart=  2 IA=   40   60.27% done.
 IPart=  3 IA=   49   70.30% done.
 IPart=  3 IA=   60   80.58% done.
 IPart=  1 IA=   74   90.51% done.
 Time for triples=       62.17 seconds.
 T4(CCSD)= -0.16200670D-01
 T5(CCSD)=  0.41076200D-03
 CCSD(T)= -0.15266714193D+03
 Discarding MO integrals.
 Leave Link  913 at Sat Aug 27 23:43:23 2022, MaxMem=   536870912 cpu:              90.1 elap:              24.3
 (Enter /usr/site/hpc/x86_64/glibc-2.17/broadwell/gaussian/g16_a.03/pgi-16.5/g16/l601.exe)
 Copying SCF densities to generalized density rwf, IOpCl= 0 IROHF=0.

 **********************************************************************

            Population analysis using the SCF density.

 **********************************************************************

 Orbital symmetries:
       Occupied  (A') (A') (A') (A') (A') (A') (A') (A') (A") (A")
       Virtual   (A') (A') (A') (A') (A') (A') (A') (A') (A') (A')
                 (A") (A') (A") (A") (A') (A") (A') (A') (A") (A")
                 (A') (A') (A') (A') (A') (A') (A') (A') (A") (A")
                 (A") (A') (A") (A') (A') (A') (A') (A') (A') (A')
                 (A') (A') (A") (A") (A') (A") (A') (A") (A') (A')
                 (A") (A") (A') (A') (A') (A") (A') (A") (A") (A')
                 (A") (A') (A') (A") (A') (A") (A') (A') (A') (A')
                 (A") (A") (A') (A') (A') (A') (A') (A') (A') (A')
                 (A") (A") (A') (A') (A") (A") (A") (A") (A') (A")
                 (A") (A') (A') (A') (A') (A") (A') (A") (A') (A')
                 (A') (A') (A') (A') (A') (A')
 The electronic state is 1-A'.
 Alpha  occ. eigenvalues --  -20.57758 -20.53364  -1.35058  -1.30778  -0.72492
 Alpha  occ. eigenvalues --   -0.68300  -0.58849  -0.54155  -0.52181  -0.47935
 Alpha virt. eigenvalues --    0.12172   0.17461   0.19103   0.28380   0.51104
 Alpha virt. eigenvalues --    0.54309   0.55867   0.60187   0.68918   0.73603
 Alpha virt. eigenvalues --    0.74621   0.77400   0.81175   0.83002   0.84323
 Alpha virt. eigenvalues --    0.86863   0.87141   0.93512   0.94789   1.03610
 Alpha virt. eigenvalues --    1.11150   1.17422   1.22639   1.23254   1.49757
 Alpha virt. eigenvalues --    1.51123   1.54408   1.85772   1.98319   2.02382
 Alpha virt. eigenvalues --    2.04819   2.07648   2.09908   2.12175   2.15130
 Alpha virt. eigenvalues --    2.23691   2.25737   2.36842   2.59895   2.64463
 Alpha virt. eigenvalues --    2.92091   2.98199   3.37380   3.41569   3.48272
 Alpha virt. eigenvalues --    3.51207   3.52148   3.55395   3.57927   3.62078
 Alpha virt. eigenvalues --    3.76506   3.80644   3.82270   3.86137   3.89326
 Alpha virt. eigenvalues --    3.91576   3.94273   3.95308   4.02656   4.05636
 Alpha virt. eigenvalues --    4.05982   4.13055   4.13891   4.28315   4.30333
 Alpha virt. eigenvalues --    4.32388   4.40561   4.43596   4.45505   4.54399
 Alpha virt. eigenvalues --    4.64926   4.68621   4.81910   4.85306   5.02977
 Alpha virt. eigenvalues --    5.08236   5.24100   5.31074   5.53662   5.58055
 Alpha virt. eigenvalues --    5.95618   5.99951   6.38535   6.44110   6.83921
 Alpha virt. eigenvalues --    6.87446   6.88262   6.91938   6.92157   6.96756
 Alpha virt. eigenvalues --    7.01325   7.06831   7.07130   7.10530   7.14731
 Alpha virt. eigenvalues --    7.16037   7.18279   7.20417   7.45658   7.51823
 Alpha virt. eigenvalues --    7.70290   7.73573   8.16264   8.19038  12.49588
 Alpha virt. eigenvalues --   12.85558
          Condensed to atoms (all electrons):
               1          2          3          4          5          6
     1  O    7.846656   0.350388   0.346830  -0.003590   0.000430   0.000152
     2  H    0.350388   0.399633  -0.038790   0.019182  -0.002561  -0.001032
     3  H    0.346830  -0.038790   0.439836  -0.000390   0.000054   0.000037
     4  O   -0.003590   0.019182  -0.000390   7.841680   0.321718   0.325555
     5  H    0.000430  -0.002561   0.000054   0.321718   0.440099  -0.023077
     6  H    0.000152  -0.001032   0.000037   0.325555  -0.023077   0.442283
 Mulliken charges:
               1
     1  O   -0.540867
     2  H    0.273179
     3  H    0.252423
     4  O   -0.504155
     5  H    0.263338
     6  H    0.256082
 Sum of Mulliken charges =  -0.00000
 Mulliken charges with hydrogens summed into heavy atoms:
               1
     1  O   -0.015265
     4  O    0.015265
 Electronic spatial extent (au):  <R**2>=            236.0885
 Charge=             -0.0000 electrons
 Dipole moment (field-independent basis, Debye):
    X=              0.6783    Y=             -3.2433    Z=              0.0000  Tot=              3.3135
 Quadrupole moment (field-independent basis, Debye-Ang):
   XX=             -9.4475   YY=             -8.3812   ZZ=            -14.7314
   XY=              4.4272   XZ=              0.0000   YZ=              0.0000
 Traceless Quadrupole moment (field-independent basis, Debye-Ang):
   XX=              1.4058   YY=              2.4722   ZZ=             -3.8780
   XY=              4.4272   XZ=              0.0000   YZ=              0.0000
 Octapole moment (field-independent basis, Debye-Ang**2):
  XXX=             -0.1956  YYY=            -25.0707  ZZZ=              0.0000  XYY=              8.8723
  XXY=             -1.7659  XXZ=              0.0000  XZZ=              0.0901  YZZ=             -0.5278
  YYZ=              0.0000  XYZ=              0.0000
 Hexadecapole moment (field-independent basis, Debye-Ang**3):
 XXXX=            -10.5721 YYYY=           -175.0285 ZZZZ=            -11.3855 XXXY=              3.0494
 XXXZ=              0.0000 YYYX=              7.7520 YYYZ=              0.0000 ZZZX=              0.0000
 ZZZY=              0.0000 XXYY=            -26.8692 XXZZ=             -4.4342 YYZZ=            -45.0635
 XXYZ=              0.0000 YYXZ=              0.0000 ZZXY=             -1.2351
 N-N= 3.391675398869D+01 E-N=-4.292379134838D+02  KE= 1.517953936730D+02
 Symmetry A'   KE= 1.427662922572D+02
 Symmetry A"   KE= 9.029101415873D+00
 Leave Link  601 at Sat Aug 27 23:43:23 2022, MaxMem=   536870912 cpu:               0.4 elap:               0.1
 (Enter /usr/site/hpc/x86_64/glibc-2.17/broadwell/gaussian/g16_a.03/pgi-16.5/g16/l9999.exe)
 1\1\GINC-N002\SP\RCCSD(T)-FC\CC-pVTZ\H4O2\ROOT\27-Aug-2022\0\\#p CCSD(
 T)/cc-pVTZ\\H2O_H2O_1597\\0,1\O,0,0.,-0.009833,0.\H,0,-0.799571,-0.580
 965,0.\H,0,0.799571,-0.580965,0.\O,0,-2.692955,-1.917891,0.\H,0,-3.363
 566,-1.199708,0.\H,0,-3.154835,-2.78517,0.\\Version=ES64L-G16RevA.03\S
 tate=1-A'\HF=-152.1132131\MP2=-152.6401185\MP3=-152.6474167\MP4D=-152.
 6564847\MP4DQ=-152.6488689\MP4SDQ=-152.6519686\CCSD=-152.651352\CCSD(T
 )=-152.6671419\RMSD=6.273e-09\PG=CS [SG(H4O2)]\\@


 ALMOST ALL THE CHEMICAL PROCESSES WHICH OCCUR IN NATURE,
 WHETHER IN ANIMAL OR VEGETABLE ORGANISMS,
 OR IN THE NON-LIVING SURFACE OF THE EARTH ... 
 TAKE PLACE BETWEEN SUBSTANCES IN SOLUTION

                                    -- W. OSTWALD, 1890
 Job cpu time:       0 days  0 hours  1 minutes 45.8 seconds.
 Elapsed time:       0 days  0 hours  0 minutes 28.8 seconds.
 File lengths (MBytes):  RWF=    360 Int=      0 D2E=      0 Chk=      8 Scr=      8
 Normal termination of Gaussian 16 at Sat Aug 27 23:43:23 2022.
