 Entering Gaussian System, Link 0=g16
 Input=H2O_H2O_3931.com
 Output=H2O_H2O_3931.log
 Initial command:
 /usr/site/hpc/x86_64/glibc-2.17/broadwell/gaussian/g16_a.03/pgi-16.5/g16/l1.exe "/gpfs/gpfs1/scratch/c7441284/ForceFieldModel/FittingData2/Gau-608024.inp" -scrdir="/gpfs/gpfs1/scratch/c7441284/ForceFieldModel/FittingData2/"
 Entering Link 1 = /usr/site/hpc/x86_64/glibc-2.17/broadwell/gaussian/g16_a.03/pgi-16.5/g16/l1.exe PID=    608025.
  
 Copyright (c) 1988,1990,1992,1993,1995,1998,2003,2009,2016,
            Gaussian, Inc.  All Rights Reserved.
  
 This is part of the Gaussian(R) 16 program.  It is based on
 the Gaussian(R) 09 system (copyright 2009, Gaussian, Inc.),
 the Gaussian(R) 03 system (copyright 2003, Gaussian, Inc.),
 the Gaussian(R) 98 system (copyright 1998, Gaussian, Inc.),
 the Gaussian(R) 94 system (copyright 1995, Gaussian, Inc.),
 the Gaussian 92(TM) system (copyright 1992, Gaussian, Inc.),
 the Gaussian 90(TM) system (copyright 1990, Gaussian, Inc.),
 the Gaussian 88(TM) system (copyright 1988, Gaussian, Inc.),
 the Gaussian 86(TM) system (copyright 1986, Carnegie Mellon
 University), and the Gaussian 82(TM) system (copyright 1983,
 Carnegie Mellon University). Gaussian is a federally registered
 trademark of Gaussian, Inc.
  
 This software contains proprietary and confidential information,
 including trade secrets, belonging to Gaussian, Inc.
  
 This software is provided under written license and may be
 used, copied, transmitted, or stored only in accord with that
 written license.
  
 The following legend is applicable only to US Government
 contracts under FAR:
  
                    RESTRICTED RIGHTS LEGEND
  
 Use, reproduction and disclosure by the US Government is
 subject to restrictions as set forth in subparagraphs (a)
 and (c) of the Commercial Computer Software - Restricted
 Rights clause in FAR 52.227-19.
  
 Gaussian, Inc.
 340 Quinnipiac St., Bldg. 40, Wallingford CT 06492
  
  
 ---------------------------------------------------------------
 Warning -- This program may not be used in any manner that
 competes with the business of Gaussian, Inc. or will provide
 assistance to any competitor of Gaussian, Inc.  The licensee
 of this program is prohibited from giving any competitor of
 Gaussian, Inc. access to this program.  By using this program,
 the user acknowledges that Gaussian, Inc. is engaged in the
 business of creating and licensing software in the field of
 computational chemistry and represents and warrants to the
 licensee that it is not a competitor of Gaussian, Inc. and that
 it will not use this program in any manner prohibited above.
 ---------------------------------------------------------------
  

 Cite this work as:
 Gaussian 16, Revision A.03,
 M. J. Frisch, G. W. Trucks, H. B. Schlegel, G. E. Scuseria, 
 M. A. Robb, J. R. Cheeseman, G. Scalmani, V. Barone, 
 G. A. Petersson, H. Nakatsuji, X. Li, M. Caricato, A. V. Marenich, 
 J. Bloino, B. G. Janesko, R. Gomperts, B. Mennucci, H. P. Hratchian, 
 J. V. Ortiz, A. F. Izmaylov, J. L. Sonnenberg, D. Williams-Young, 
 F. Ding, F. Lipparini, F. Egidi, J. Goings, B. Peng, A. Petrone, 
 T. Henderson, D. Ranasinghe, V. G. Zakrzewski, J. Gao, N. Rega, 
 G. Zheng, W. Liang, M. Hada, M. Ehara, K. Toyota, R. Fukuda, 
 J. Hasegawa, M. Ishida, T. Nakajima, Y. Honda, O. Kitao, H. Nakai, 
 T. Vreven, K. Throssell, J. A. Montgomery, Jr., J. E. Peralta, 
 F. Ogliaro, M. J. Bearpark, J. J. Heyd, E. N. Brothers, K. N. Kudin, 
 V. N. Staroverov, T. A. Keith, R. Kobayashi, J. Normand, 
 K. Raghavachari, A. P. Rendell, J. C. Burant, S. S. Iyengar, 
 J. Tomasi, M. Cossi, J. M. Millam, M. Klene, C. Adamo, R. Cammi, 
 J. W. Ochterski, R. L. Martin, K. Morokuma, O. Farkas, 
 J. B. Foresman, and D. J. Fox, Gaussian, Inc., Wallingford CT, 2016.
 
 ******************************************
 Gaussian 16:  ES64L-G16RevA.03 25-Dec-2016
                27-Aug-2022 
 ******************************************
 %NProcShared=4
 Will use up to    4 processors via shared memory.
 %Mem=4GB
 %Chk=H2O_H2O_3931.chk
 ------------------
 #p CCSD(T)/cc-pVTZ
 ------------------
 1/38=1,172=1/1;
 2/12=2,17=6,18=5,40=1/2;
 3/5=16,6=1,11=9,25=1,30=1/1,2,3;
 4//1;
 5/5=2,38=5/2;
 8/6=4,9=120000,10=1/1,4;
 9/5=7,14=2/13;
 6/7=2,8=2,9=2,10=2/1;
 99/5=1,9=1/99;
 Leave Link    1 at Sat Aug 27 00:31:54 2022, MaxMem=   536870912 cpu:               1.1 elap:               0.4
 (Enter /usr/site/hpc/x86_64/glibc-2.17/broadwell/gaussian/g16_a.03/pgi-16.5/g16/l101.exe)
 ------------
 H2O_H2O_3931
 ------------
 Symbolic Z-matrix:
 Charge =  0 Multiplicity = 1
 O                     0.       -0.00983   0. 
 H                    -0.79957  -0.58097   0. 
 H                     0.79957  -0.58097   0. 
 O                    -4.21249  -3.01537   0. 
 H                    -5.16976  -3.23704   0. 
 H                    -3.69234  -3.84901   0. 
 
 ITRead=  0  0  0  0  0  0
 MicOpt= -1 -1 -1 -1 -1 -1
 NAtoms=      6 NQM=        6 NQMF=       0 NMMI=      0 NMMIF=      0
                NMic=       0 NMicF=      0.
                    Isotopes and Nuclear Properties:
 (Nuclear quadrupole moments (NQMom) in fm**2, nuclear magnetic moments (NMagM)
  in nuclear magnetons)

  Atom         1           2           3           4           5           6
 IAtWgt=          16           1           1          16           1           1
 AtmWgt=  15.9949146   1.0078250   1.0078250  15.9949146   1.0078250   1.0078250
 NucSpn=           0           1           1           0           1           1
 AtZEff=  -0.0000000  -0.0000000  -0.0000000  -0.0000000  -0.0000000  -0.0000000
 NQMom=    0.0000000   0.0000000   0.0000000   0.0000000   0.0000000   0.0000000
 NMagM=    0.0000000   2.7928460   2.7928460   0.0000000   2.7928460   2.7928460
 AtZNuc=   8.0000000   1.0000000   1.0000000   8.0000000   1.0000000   1.0000000
 Leave Link  101 at Sat Aug 27 00:31:54 2022, MaxMem=   536870912 cpu:               0.6 elap:               0.2
 (Enter /usr/site/hpc/x86_64/glibc-2.17/broadwell/gaussian/g16_a.03/pgi-16.5/g16/l202.exe)
                          Input orientation:                          
 ---------------------------------------------------------------------
 Center     Atomic      Atomic             Coordinates (Angstroms)
 Number     Number       Type             X           Y           Z
 ---------------------------------------------------------------------
      1          8           0        0.000000   -0.009833    0.000000
      2          1           0       -0.799571   -0.580965    0.000000
      3          1           0        0.799571   -0.580965    0.000000
      4          8           0       -4.212485   -3.015365    0.000000
      5          1           0       -5.169755   -3.237039    0.000000
      6          1           0       -3.692340   -3.849005    0.000000
 ---------------------------------------------------------------------
                    Distance matrix (angstroms):
                    1          2          3          4          5
     1  O    0.000000
     2  H    0.982601   0.000000
     3  H    0.982601   1.599142   0.000000
     4  O    5.174771   4.192170   5.571984   0.000000
     5  H    6.094360   5.114024   6.533573   0.982601   0.000000
     6  H    5.326595   4.364424   5.554939   0.982602   1.599143
                    6
     6  H    0.000000
 Stoichiometry    H4O2
 Framework group  CS[SG(H4O2)]
 Deg. of freedom     9
 Full point group                 CS      NOp   2
 Largest Abelian subgroup         CS      NOp   2
 Largest concise Abelian subgroup C1      NOp   1
                         Standard orientation:                         
 ---------------------------------------------------------------------
 Center     Atomic      Atomic             Coordinates (Angstroms)
 Number     Number       Type             X           Y           Z
 ---------------------------------------------------------------------
      1          8           0        0.076752    2.668996   -0.000000
      2          1           0        0.076221    1.686394   -0.000000
      3          1           0       -0.852569    2.988164   -0.000000
      4          8           0        0.076752   -2.505775    0.000000
      5          1           0        0.452287   -3.413783    0.000000
      6          1           0       -0.903969   -2.566537    0.000000
 ---------------------------------------------------------------------
 Rotational constants (GHZ):         265.1294214           2.0662913           2.0503121
 Leave Link  202 at Sat Aug 27 00:31:54 2022, MaxMem=   536870912 cpu:               0.0 elap:               0.0
 (Enter /usr/site/hpc/x86_64/glibc-2.17/broadwell/gaussian/g16_a.03/pgi-16.5/g16/l301.exe)
 Standard basis: CC-pVTZ (5D, 7F)
 Ernie: Thresh=  0.10000D-02 Tol=  0.10000D-05 Strict=F.
 Ernie:  6 primitive shells out of 84 were deleted.
 There are    92 symmetry adapted cartesian basis functions of A'  symmetry.
 There are    38 symmetry adapted cartesian basis functions of A"  symmetry.
 There are    80 symmetry adapted basis functions of A'  symmetry.
 There are    36 symmetry adapted basis functions of A"  symmetry.
   116 basis functions,   172 primitive gaussians,   130 cartesian basis functions
    10 alpha electrons       10 beta electrons
       nuclear repulsion energy        28.1000404810 Hartrees.
 IExCor=    0 DFT=F Ex=HF Corr=None ExCW=0 ScaHFX=  1.000000
 ScaDFX=  1.000000  1.000000  1.000000  1.000000 ScalE2=  1.000000  1.000000
 IRadAn=      5 IRanWt=     -1 IRanGd=            0 ICorTp=0 IEmpDi=  4
 NAtoms=    6 NActive=    6 NUniq=    6 SFac= 1.00D+00 NAtFMM=   60 NAOKFM=F Big=F
 Integral buffers will be    131072 words long.
 Raffenetti 1 integral format.
 Two-electron integral symmetry is turned on.
 Leave Link  301 at Sat Aug 27 00:31:54 2022, MaxMem=   536870912 cpu:               0.2 elap:               0.0
 (Enter /usr/site/hpc/x86_64/glibc-2.17/broadwell/gaussian/g16_a.03/pgi-16.5/g16/l302.exe)
 NPDir=0 NMtPBC=     1 NCelOv=     1 NCel=       1 NClECP=     1 NCelD=      1
         NCelK=      1 NCelE2=     1 NClLst=     1 CellRange=     0.0.
 One-electron integrals computed using PRISM.
 One-electron integral symmetry used in STVInt
 NBasis=   116 RedAO= T EigKep=  2.63D-03  NBF=    80    36
 NBsUse=   116 1.00D-06 EigRej= -1.00D+00 NBFU=    80    36
 Leave Link  302 at Sat Aug 27 00:31:54 2022, MaxMem=   536870912 cpu:               0.5 elap:               0.1
 (Enter /usr/site/hpc/x86_64/glibc-2.17/broadwell/gaussian/g16_a.03/pgi-16.5/g16/l303.exe)
 DipDrv:  MaxL=1.
 Leave Link  303 at Sat Aug 27 00:31:54 2022, MaxMem=   536870912 cpu:               0.1 elap:               0.0
 (Enter /usr/site/hpc/x86_64/glibc-2.17/broadwell/gaussian/g16_a.03/pgi-16.5/g16/l401.exe)
 ExpMin= 1.03D-01 ExpMax= 1.53D+04 ExpMxC= 5.22D+02 IAcc=3 IRadAn=         5 AccDes= 0.00D+00
 Harris functional with IExCor=  205 and IRadAn=       5 diagonalized for initial guess.
 HarFok:  IExCor=  205 AccDes= 0.00D+00 IRadAn=         5 IDoV= 1 UseB2=F ITyADJ=14
 ICtDFT=  3500011 ScaDFX=  1.000000  1.000000  1.000000  1.000000
 FoFCou: FMM=F IPFlag=           0 FMFlag=      100000 FMFlg1=           0
         NFxFlg=           0 DoJE=T BraDBF=F KetDBF=T FulRan=T
         wScrn=  0.000000 ICntrl=       500 IOpCl=  0 I1Cent=   200000004 NGrid=           0
         NMat0=    1 NMatS0=      1 NMatT0=    0 NMatD0=    1 NMtDS0=    0 NMtDT0=    0
 Petite list used in FoFCou.
 Harris En= -152.298698030459    
 JPrj=0 DoOrth=F DoCkMO=F.
 Initial guess orbital symmetries:
       Occupied  (A') (A') (A') (A') (A') (A') (A') (A') (A") (A")
       Virtual   (A') (A') (A') (A') (A') (A') (A') (A') (A') (A')
                 (A") (A") (A') (A') (A') (A') (A") (A") (A") (A")
                 (A') (A') (A') (A') (A') (A') (A') (A') (A") (A")
                 (A") (A") (A') (A') (A') (A') (A') (A') (A') (A')
                 (A') (A') (A") (A") (A') (A') (A") (A") (A") (A")
                 (A') (A') (A') (A') (A') (A') (A") (A") (A') (A')
                 (A') (A') (A") (A") (A") (A") (A') (A') (A') (A')
                 (A") (A") (A') (A') (A') (A') (A') (A') (A') (A')
                 (A") (A") (A') (A') (A") (A") (A") (A") (A') (A')
                 (A") (A") (A') (A') (A') (A') (A") (A") (A') (A')
                 (A') (A') (A') (A') (A') (A')
 The electronic state of the initial guess is 1-A'.
 Leave Link  401 at Sat Aug 27 00:31:55 2022, MaxMem=   536870912 cpu:               0.7 elap:               0.2
 (Enter /usr/site/hpc/x86_64/glibc-2.17/broadwell/gaussian/g16_a.03/pgi-16.5/g16/l502.exe)
 Keep R1 ints in memory in symmetry-blocked form, NReq=34823457.
 FoFCou: FMM=F IPFlag=           0 FMFlag=           0 FMFlg1=           0
         NFxFlg=           0 DoJE=F BraDBF=F KetDBF=F FulRan=T
         wScrn=  0.000000 ICntrl=       600 IOpCl=  0 I1Cent=           0 NGrid=           0
         NMat0=    1 NMatS0=   6786 NMatT0=    0 NMatD0=    1 NMtDS0=    0 NMtDT0=    0
 Petite list used in FoFCou.
 Closed shell SCF:
 Using DIIS extrapolation, IDIIS=  1040.
 NGot=   536870912 LenX=   525040673 LenY=   525023332
 Requested convergence on RMS density matrix=1.00D-08 within 128 cycles.
 Requested convergence on MAX density matrix=1.00D-06.
 Requested convergence on             energy=1.00D-06.
 No special actions if energy rises.

 Cycle   1  Pass 1  IDiag  1:
 E= -151.928660772137    
 DIIS: error= 6.59D-02 at cycle   1 NSaved=   1.
 NSaved= 1 IEnMin= 1 EnMin= -151.928660772137     IErMin= 1 ErrMin= 6.59D-02
 ErrMax= 6.59D-02  0.00D+00 EMaxC= 1.00D-01 BMatC= 3.99D-01 BMatP= 3.99D-01
 IDIUse=3 WtCom= 3.41D-01 WtEn= 6.59D-01
 Coeff-Com:  0.100D+01
 Coeff-En:   0.100D+01
 Coeff:      0.100D+01
 Gap=     0.508 Goal=   None    Shift=    0.000
 GapD=    0.508 DampG=2.000 DampE=0.500 DampFc=1.0000 IDamp=-1.
 RMSDP=2.50D-03 MaxDP=6.68D-02              OVMax= 1.26D-01

 Cycle   2  Pass 1  IDiag  1:
 E= -152.040131671566     Delta-E=       -0.111470899428 Rises=F Damp=F
 DIIS: error= 4.14D-02 at cycle   2 NSaved=   2.
 NSaved= 2 IEnMin= 2 EnMin= -152.040131671566     IErMin= 2 ErrMin= 4.14D-02
 ErrMax= 4.14D-02  0.00D+00 EMaxC= 1.00D-01 BMatC= 1.12D-01 BMatP= 3.99D-01
 IDIUse=3 WtCom= 5.86D-01 WtEn= 4.14D-01
 Coeff-Com:  0.319D+00 0.681D+00
 Coeff-En:   0.166D+00 0.834D+00
 Coeff:      0.256D+00 0.744D+00
 Gap=     0.646 Goal=   None    Shift=    0.000
 RMSDP=1.33D-03 MaxDP=3.96D-02 DE=-1.11D-01 OVMax= 5.71D-02

 Cycle   3  Pass 1  IDiag  1:
 E= -152.104539904052     Delta-E=       -0.064408232486 Rises=F Damp=F
 DIIS: error= 8.98D-03 at cycle   3 NSaved=   3.
 NSaved= 3 IEnMin= 3 EnMin= -152.104539904052     IErMin= 3 ErrMin= 8.98D-03
 ErrMax= 8.98D-03  0.00D+00 EMaxC= 1.00D-01 BMatC= 5.96D-03 BMatP= 1.12D-01
 IDIUse=3 WtCom= 9.10D-01 WtEn= 8.98D-02
 Coeff-Com: -0.304D-01 0.156D+00 0.875D+00
 Coeff-En:   0.000D+00 0.000D+00 0.100D+01
 Coeff:     -0.276D-01 0.142D+00 0.886D+00
 Gap=     0.618 Goal=   None    Shift=    0.000
 RMSDP=2.43D-04 MaxDP=5.72D-03 DE=-6.44D-02 OVMax= 1.34D-02

 Cycle   4  Pass 1  IDiag  1:
 E= -152.108250941726     Delta-E=       -0.003711037674 Rises=F Damp=F
 DIIS: error= 8.53D-04 at cycle   4 NSaved=   4.
 NSaved= 4 IEnMin= 4 EnMin= -152.108250941726     IErMin= 4 ErrMin= 8.53D-04
 ErrMax= 8.53D-04  0.00D+00 EMaxC= 1.00D-01 BMatC= 3.70D-05 BMatP= 5.96D-03
 IDIUse=3 WtCom= 9.91D-01 WtEn= 8.53D-03
 Coeff-Com:  0.678D-02-0.612D-01-0.238D+00 0.129D+01
 Coeff-En:   0.000D+00 0.000D+00 0.000D+00 0.100D+01
 Coeff:      0.673D-02-0.607D-01-0.236D+00 0.129D+01
 Gap=     0.621 Goal=   None    Shift=    0.000
 RMSDP=5.18D-05 MaxDP=1.03D-03 DE=-3.71D-03 OVMax= 2.22D-03

 Cycle   5  Pass 1  IDiag  1:
 E= -152.108300631094     Delta-E=       -0.000049689368 Rises=F Damp=F
 DIIS: error= 1.93D-04 at cycle   5 NSaved=   5.
 NSaved= 5 IEnMin= 5 EnMin= -152.108300631094     IErMin= 5 ErrMin= 1.93D-04
 ErrMax= 1.93D-04  0.00D+00 EMaxC= 1.00D-01 BMatC= 1.35D-06 BMatP= 3.70D-05
 IDIUse=3 WtCom= 9.98D-01 WtEn= 1.93D-03
 Coeff-Com:  0.528D-03 0.556D-03-0.252D-02-0.224D+00 0.123D+01
 Coeff-En:   0.000D+00 0.000D+00 0.000D+00 0.000D+00 0.100D+01
 Coeff:      0.527D-03 0.555D-03-0.252D-02-0.223D+00 0.122D+01
 Gap=     0.621 Goal=   None    Shift=    0.000
 RMSDP=1.43D-05 MaxDP=2.94D-04 DE=-4.97D-05 OVMax= 6.86D-04

 Cycle   6  Pass 1  IDiag  1:
 E= -152.108303445803     Delta-E=       -0.000002814709 Rises=F Damp=F
 DIIS: error= 2.78D-05 at cycle   6 NSaved=   6.
 NSaved= 6 IEnMin= 6 EnMin= -152.108303445803     IErMin= 6 ErrMin= 2.78D-05
 ErrMax= 2.78D-05  0.00D+00 EMaxC= 1.00D-01 BMatC= 3.32D-08 BMatP= 1.35D-06
 IDIUse=1 WtCom= 1.00D+00 WtEn= 0.00D+00
 Coeff-Com: -0.262D-03 0.154D-02 0.656D-02 0.176D-03-0.248D+00 0.124D+01
 Coeff:     -0.262D-03 0.154D-02 0.656D-02 0.176D-03-0.248D+00 0.124D+01
 Gap=     0.622 Goal=   None    Shift=    0.000
 RMSDP=2.97D-06 MaxDP=6.64D-05 DE=-2.81D-06 OVMax= 1.54D-04

 Cycle   7  Pass 1  IDiag  1:
 E= -152.108303539057     Delta-E=       -0.000000093254 Rises=F Damp=F
 DIIS: error= 4.78D-06 at cycle   7 NSaved=   7.
 NSaved= 7 IEnMin= 7 EnMin= -152.108303539057     IErMin= 7 ErrMin= 4.78D-06
 ErrMax= 4.78D-06  0.00D+00 EMaxC= 1.00D-01 BMatC= 2.23D-09 BMatP= 3.32D-08
 IDIUse=1 WtCom= 1.00D+00 WtEn= 0.00D+00
 Coeff-Com: -0.123D-04-0.141D-03-0.467D-03 0.137D-01-0.545D-01-0.308D-01
 Coeff-Com:  0.107D+01
 Coeff:     -0.123D-04-0.141D-03-0.467D-03 0.137D-01-0.545D-01-0.308D-01
 Coeff:      0.107D+01
 Gap=     0.622 Goal=   None    Shift=    0.000
 RMSDP=4.20D-07 MaxDP=1.13D-05 DE=-9.33D-08 OVMax= 3.10D-05

 Cycle   8  Pass 1  IDiag  1:
 E= -152.108303542856     Delta-E=       -0.000000003798 Rises=F Damp=F
 DIIS: error= 1.83D-06 at cycle   8 NSaved=   8.
 NSaved= 8 IEnMin= 8 EnMin= -152.108303542856     IErMin= 8 ErrMin= 1.83D-06
 ErrMax= 1.83D-06  0.00D+00 EMaxC= 1.00D-01 BMatC= 3.64D-10 BMatP= 2.23D-09
 IDIUse=1 WtCom= 1.00D+00 WtEn= 0.00D+00
 Coeff-Com:  0.239D-04-0.193D-03-0.782D-03 0.321D-02 0.129D-01-0.132D+00
 Coeff-Com:  0.247D+00 0.870D+00
 Coeff:      0.239D-04-0.193D-03-0.782D-03 0.321D-02 0.129D-01-0.132D+00
 Coeff:      0.247D+00 0.870D+00
 Gap=     0.622 Goal=   None    Shift=    0.000
 RMSDP=1.21D-07 MaxDP=3.15D-06 DE=-3.80D-09 OVMax= 9.28D-06

 Cycle   9  Pass 1  IDiag  1:
 E= -152.108303543317     Delta-E=       -0.000000000461 Rises=F Damp=F
 DIIS: error= 8.51D-07 at cycle   9 NSaved=   9.
 NSaved= 9 IEnMin= 9 EnMin= -152.108303543317     IErMin= 9 ErrMin= 8.51D-07
 ErrMax= 8.51D-07  0.00D+00 EMaxC= 1.00D-01 BMatC= 2.80D-11 BMatP= 3.64D-10
 IDIUse=1 WtCom= 1.00D+00 WtEn= 0.00D+00
 Coeff-Com:  0.844D-06 0.305D-04 0.125D-03-0.245D-02 0.856D-02 0.807D-02
 Coeff-Com: -0.156D+00-0.307D-01 0.117D+01
 Coeff:      0.844D-06 0.305D-04 0.125D-03-0.245D-02 0.856D-02 0.807D-02
 Coeff:     -0.156D+00-0.307D-01 0.117D+01
 Gap=     0.622 Goal=   None    Shift=    0.000
 RMSDP=5.30D-08 MaxDP=1.06D-06 DE=-4.61D-10 OVMax= 3.03D-06

 Cycle  10  Pass 1  IDiag  1:
 E= -152.108303543367     Delta-E=       -0.000000000050 Rises=F Damp=F
 DIIS: error= 1.01D-07 at cycle  10 NSaved=  10.
 NSaved=10 IEnMin=10 EnMin= -152.108303543367     IErMin=10 ErrMin= 1.01D-07
 ErrMax= 1.01D-07  0.00D+00 EMaxC= 1.00D-01 BMatC= 4.36D-13 BMatP= 2.80D-11
 IDIUse=1 WtCom= 1.00D+00 WtEn= 0.00D+00
 Coeff-Com: -0.598D-06-0.392D-05-0.187D-04 0.528D-03-0.197D-02-0.140D-02
 Coeff-Com:  0.406D-01-0.603D-02-0.350D+00 0.132D+01
 Coeff:     -0.598D-06-0.392D-05-0.187D-04 0.528D-03-0.197D-02-0.140D-02
 Coeff:      0.406D-01-0.603D-02-0.350D+00 0.132D+01
 Gap=     0.622 Goal=   None    Shift=    0.000
 RMSDP=7.19D-09 MaxDP=1.93D-07 DE=-5.03D-11 OVMax= 4.20D-07

 SCF Done:  E(RHF) =  -152.108303543     A.U. after   10 cycles
            NFock= 10  Conv=0.72D-08     -V/T= 2.0020
 KE= 1.518030999305D+02 PE=-4.176011029036D+02 EE= 8.558965894873D+01
 Leave Link  502 at Sat Aug 27 00:31:56 2022, MaxMem=   536870912 cpu:               3.8 elap:               1.0
 (Enter /usr/site/hpc/x86_64/glibc-2.17/broadwell/gaussian/g16_a.03/pgi-16.5/g16/l801.exe)
 Windowed orbitals will be sorted by symmetry type.
 ExpMin= 1.03D-01 ExpMax= 1.53D+04 ExpMxC= 5.22D+02 IAcc=3 IRadAn=         5 AccDes= 0.00D+00
 HarFok:  IExCor=  205 AccDes= 0.00D+00 IRadAn=         5 IDoV=-2 UseB2=F ITyADJ=14
 ICtDFT= 12500011 ScaDFX=  1.000000  1.000000  1.000000  1.000000
 Largest valence mixing into a core orbital is  1.12D-04
 Largest core mixing into a valence orbital is  1.76D-05
 Range of M.O.s used for correlation:     3   116
 NBasis=   116 NAE=    10 NBE=    10 NFC=     2 NFV=     0
 NROrb=    114 NOA=     8 NOB=     8 NVA=   106 NVB=   106
 Leave Link  801 at Sat Aug 27 00:31:56 2022, MaxMem=   536870912 cpu:               0.3 elap:               0.1
 (Enter /usr/site/hpc/x86_64/glibc-2.17/broadwell/gaussian/g16_a.03/pgi-16.5/g16/l804.exe)
 Closed-shell transformation, MDV=   536870912 ITran=4 ISComp=2.
 Unit  1 TFree=        834515 TCopy=        406125.
 Semi-Direct transformation.
 ModeAB=           4 MOrb=             8 LenV=     536375737
 LASXX=      2873146 LTotXX=     2873146 LenRXX=     5831278
 LTotAB=     2958132 MaxLAS=     5622480 LenRXY=           0
 NonZer=     8704424 LenScr=    13107200 LnRSAI=     5622480
 LnScr1=     8912896 LExtra=           0 Total=     33473854
 MaxDsk=          -1 SrtSym=           T ITran=            4
 DoSDTr:  NPSUse=  4
 JobTyp=0 Pass  1:  I=   1 to   8.
 (rs|ai) integrals will be sorted in core.
 Complete sort for first half transformation.
 First half transformation complete.
 Complete sort for second half transformation.
 Second half transformation complete.
 Spin components of T(2) and E(2):
     alpha-alpha T2 =       0.1555845090D-01 E2=     -0.6380719247D-01
     alpha-beta  T2 =       0.9186957116D-01 E2=     -0.3982515866D+00
     beta-beta   T2 =       0.1555845090D-01 E2=     -0.6380719247D-01
 ANorm=    0.1059710561D+01
 E2 =    -0.5258659716D+00 EUMP2 =    -0.15263416951494D+03
 Leave Link  804 at Sat Aug 27 00:31:56 2022, MaxMem=   536870912 cpu:               3.1 elap:               0.8
 (Enter /usr/site/hpc/x86_64/glibc-2.17/broadwell/gaussian/g16_a.03/pgi-16.5/g16/l913.exe)
 CIDS:  MDV=   536870912.
 Frozen-core window:  NFC=   2 NFV=   0.
 IFCWin=0 IBDFC=1 NFBD=     0     0 NFCmp=     0     0 NFFFC=     0     0
 Using DD3R+UMP44R for 1st iteration.
 Using DD4RQ for 2nd and later iterations.
 Keep R2 and R3 ints in memory in symmetry-blocked form, NReq=35357534.
 FoFCou: FMM=F IPFlag=           0 FMFlag=           0 FMFlg1=           0
         NFxFlg=           0 DoJE=F BraDBF=F KetDBF=F FulRan=T
         wScrn=  0.000000 ICntrl=       600 IOpCl=  0 I1Cent=           0 NGrid=           0
         NMat0=    1 NMatS0=   6786 NMatT0=    0 NMatD0=    1 NMtDS0=    0 NMtDT0=    0
 Petite list used in FoFCou.
 CIDS: In Core Option IDoMem=           1.
 CCSD(T)
 =======
 Iterations=  50 Convergence= 0.100D-06
 Produce multiple copies of IABC intergrals
 Iteration Nr.   1
 **********************
 DD1Dir will call FoFMem   1 times, MxPair=        72
 NAB=    36 NAA=     0 NBB=     0.
 MP4(R+Q)=  0.75478304D-02
 Maximum subspace dimension=  5
 A-vector RMS=  1.7404935D-03 Max=  6.1883568D-03 conv= 1.00D-05.
 RLE energy=       -0.5258049409
 E3=       -0.75576600D-02        EUMP3=      -0.15264172717D+03
 E4(DQ)=   -0.15491838D-02        UMP4(DQ)=   -0.15264327636D+03
 E4(SDQ)=  -0.46006072D-02        UMP4(SDQ)=  -0.15264632778D+03
 VARIATIONAL ENERGIES WITH THE FIRST-ORDER WAVEFUNCTION:
 DE(Corr)= -0.52580494     E(Corr)=     -152.63410849    
 NORM(A)=   0.10600745D+01
 Iteration Nr.   2
 **********************
 DD1Dir will call FoFMem   1 times, MxPair=        72
 NAB=    36 NAA=     0 NBB=     0.
 A-vector RMS=  2.1267527D-04 Max=  2.3199033D-03 conv= 1.00D-05.
 RLE energy=       -0.5368544030
 DE(Corr)= -0.53569590     E(CORR)=     -152.64399945     Delta=-9.89D-03
 NORM(A)=   0.10638165D+01
 Iteration Nr.   3
 **********************
 DD1Dir will call FoFMem   1 times, MxPair=        72
 NAB=    36 NAA=     0 NBB=     0.
 A-vector RMS=  1.4073647D-04 Max=  7.8819024D-04 conv= 1.00D-05.
 RLE energy=       -0.5373494946
 DE(Corr)= -0.53676475     E(CORR)=     -152.64506829     Delta=-1.07D-03
 NORM(A)=   0.10644527D+01
 Iteration Nr.   4
 **********************
 DD1Dir will call FoFMem   1 times, MxPair=        72
 NAB=    36 NAA=     0 NBB=     0.
 A-vector RMS=  2.6256185D-05 Max=  1.3828384D-04 conv= 1.00D-05.
 RLE energy=       -0.5374324286
 DE(Corr)= -0.53739725     E(CORR)=     -152.64570079     Delta=-6.32D-04
 NORM(A)=   0.10645629D+01
 Iteration Nr.   5
 **********************
 DD1Dir will call FoFMem   1 times, MxPair=        72
 NAB=    36 NAA=     0 NBB=     0.
 A-vector RMS=  1.8631929D-05 Max=  1.4461766D-04 conv= 1.00D-05.
 RLE energy=       -0.5374408529
 DE(Corr)= -0.53743411     E(CORR)=     -152.64573765     Delta=-3.69D-05
 NORM(A)=   0.10645724D+01
 Iteration Nr.   6
 **********************
 DD1Dir will call FoFMem   1 times, MxPair=        72
 NAB=    36 NAA=     0 NBB=     0.
 A-vector RMS=  5.5843054D-06 Max=  4.2900454D-05 conv= 1.00D-05.
 RLE energy=       -0.5374318240
 DE(Corr)= -0.53743728     E(CORR)=     -152.64574083     Delta=-3.17D-06
 NORM(A)=   0.10645724D+01
 Iteration Nr.   7
 **********************
 DD1Dir will call FoFMem   1 times, MxPair=        72
 NAB=    36 NAA=     0 NBB=     0.
 A-vector RMS=  2.6650310D-06 Max=  2.0311159D-05 conv= 1.00D-05.
 RLE energy=       -0.5374382614
 DE(Corr)= -0.53743744     E(CORR)=     -152.64574098     Delta=-1.52D-07
 NORM(A)=   0.10645747D+01
 Iteration Nr.   8
 **********************
 DD1Dir will call FoFMem   1 times, MxPair=        72
 NAB=    36 NAA=     0 NBB=     0.
 A-vector RMS=  6.4441392D-07 Max=  5.4497928D-06 conv= 1.00D-05.
 RLE energy=       -0.5374368340
 DE(Corr)= -0.53743700     E(CORR)=     -152.64574055     Delta= 4.34D-07
 NORM(A)=   0.10645748D+01
 Iteration Nr.   9
 **********************
 DD1Dir will call FoFMem   1 times, MxPair=        72
 NAB=    36 NAA=     0 NBB=     0.
 A-vector RMS=  1.7263769D-07 Max=  1.5826317D-06 conv= 1.00D-05.
 RLE energy=       -0.5374371791
 DE(Corr)= -0.53743724     E(CORR)=     -152.64574078     Delta=-2.36D-07
 NORM(A)=   0.10645751D+01
 Iteration Nr.  10
 **********************
 DD1Dir will call FoFMem   1 times, MxPair=        72
 NAB=    36 NAA=     0 NBB=     0.
 A-vector RMS=  5.9709846D-08 Max=  5.0591625D-07 conv= 1.00D-05.
 RLE energy=       -0.5374372843
 DE(Corr)= -0.53743726     E(CORR)=     -152.64574080     Delta=-1.92D-08
 NORM(A)=   0.10645752D+01
 CI/CC converged in   10 iterations to DelEn=-1.92D-08 Conv= 1.00D-07 ErrA1= 5.97D-08 Conv= 1.00D-05
 Wavefunction amplitudes converged. E(Corr)=     -152.64574080    
 Largest amplitude= 4.79D-02
 IPart=  4 IA=    7   11.05% done.
 IPart=  1 IA=   13   21.46% done.
 IPart=  1 IA=   19   31.21% done.
 IPart=  3 IA=   25   40.32% done.
 IPart=  3 IA=   32   50.13% done.
 IPart=  4 IA=   40   60.27% done.
 IPart=  2 IA=   49   70.30% done.
 IPart=  1 IA=   60   80.58% done.
 IPart=  4 IA=   74   90.51% done.
 Time for triples=       47.13 seconds.
 T4(CCSD)= -0.16024785D-01
 T5(CCSD)=  0.40207925D-03
 CCSD(T)= -0.15266136351D+03
 Discarding MO integrals.
 Leave Link  913 at Sat Aug 27 00:32:15 2022, MaxMem=   536870912 cpu:              71.1 elap:              18.2
 (Enter /usr/site/hpc/x86_64/glibc-2.17/broadwell/gaussian/g16_a.03/pgi-16.5/g16/l601.exe)
 Copying SCF densities to generalized density rwf, IOpCl= 0 IROHF=0.

 **********************************************************************

            Population analysis using the SCF density.

 **********************************************************************

 Orbital symmetries:
       Occupied  (A') (A') (A') (A') (A') (A') (A') (A') (A") (A")
       Virtual   (A') (A') (A') (A') (A') (A') (A') (A') (A') (A')
                 (A") (A') (A") (A') (A') (A") (A') (A") (A") (A")
                 (A') (A') (A') (A') (A') (A') (A') (A') (A") (A")
                 (A") (A") (A') (A') (A') (A') (A') (A') (A') (A')
                 (A') (A') (A") (A") (A') (A') (A") (A") (A') (A')
                 (A") (A") (A') (A') (A') (A') (A") (A") (A") (A")
                 (A') (A') (A') (A') (A") (A") (A') (A') (A') (A')
                 (A") (A") (A') (A') (A') (A') (A') (A') (A') (A')
                 (A") (A") (A') (A') (A") (A") (A") (A") (A') (A')
                 (A") (A") (A') (A') (A') (A') (A") (A") (A') (A')
                 (A') (A') (A') (A') (A') (A')
 The electronic state is 1-A'.
 Alpha  occ. eigenvalues --  -20.56321 -20.54983  -1.33620  -1.32290  -0.71031
 Alpha  occ. eigenvalues --   -0.69684  -0.57104  -0.55755  -0.50736  -0.49410
 Alpha virt. eigenvalues --    0.12744   0.15132   0.19362   0.21540   0.53265
 Alpha virt. eigenvalues --    0.55014   0.56515   0.57890   0.66708   0.69000
 Alpha virt. eigenvalues --    0.78161   0.78973   0.79448   0.80636   0.82696
 Alpha virt. eigenvalues --    0.84093   0.84513   0.85400   0.96497   0.97804
 Alpha virt. eigenvalues --    1.13752   1.15290   1.17260   1.17758   1.50965
 Alpha virt. eigenvalues --    1.51246   1.52346   1.52838   1.99877   2.01207
 Alpha virt. eigenvalues --    2.05943   2.07281   2.08855   2.10152   2.14095
 Alpha virt. eigenvalues --    2.15430   2.24634   2.25754   2.60712   2.62303
 Alpha virt. eigenvalues --    2.91985   2.94101   3.38593   3.39923   3.49153
 Alpha virt. eigenvalues --    3.50493   3.52359   3.53676   3.58743   3.60122
 Alpha virt. eigenvalues --    3.77875   3.79204   3.84680   3.85977   3.86941
 Alpha virt. eigenvalues --    3.88190   3.92804   3.94140   4.02262   4.03594
 Alpha virt. eigenvalues --    4.07410   4.08824   4.14522   4.15901   4.29335
 Alpha virt. eigenvalues --    4.30673   4.39179   4.40468   4.44815   4.46151
 Alpha virt. eigenvalues --    4.65734   4.67059   4.80147   4.81606   5.03497
 Alpha virt. eigenvalues --    5.04834   5.23286   5.24647   5.53375   5.54577
 Alpha virt. eigenvalues --    5.97112   5.98448   6.39588   6.40925   6.85367
 Alpha virt. eigenvalues --    6.86708   6.88856   6.90192   6.93788   6.95160
 Alpha virt. eigenvalues --    6.98303   6.99643   7.07172   7.08423   7.11896
 Alpha virt. eigenvalues --    7.13019   7.17470   7.18815   7.46366   7.47797
 Alpha virt. eigenvalues --    7.69584   7.70875   8.14269   8.15766  12.48262
 Alpha virt. eigenvalues --   12.50507
          Condensed to atoms (all electrons):
               1          2          3          4          5          6
     1  O    7.820720   0.346357   0.345392  -0.000005   0.000000   0.000003
     2  H    0.346357   0.429725  -0.036787   0.000392  -0.000013  -0.000031
     3  H    0.345392  -0.036787   0.439721  -0.000006   0.000000   0.000002
     4  O   -0.000005   0.000392  -0.000006   7.821120   0.347589   0.344169
     5  H    0.000000  -0.000013   0.000000   0.347589   0.429104  -0.036064
     6  H    0.000003  -0.000031   0.000002   0.344169  -0.036064   0.437612
 Mulliken charges:
               1
     1  O   -0.512467
     2  H    0.260358
     3  H    0.251677
     4  O   -0.513259
     5  H    0.259383
     6  H    0.254308
 Sum of Mulliken charges =  -0.00000
 Mulliken charges with hydrogens summed into heavy atoms:
               1
     1  O   -0.000432
     4  O    0.000432
 Electronic spatial extent (au):  <R**2>=            520.5660
 Charge=             -0.0000 electrons
 Dipole moment (field-independent basis, Debye):
    X=             -2.6271    Y=             -2.8826    Z=              0.0000  Tot=              3.9002
 Quadrupole moment (field-independent basis, Debye-Ang):
   XX=             -9.9500   YY=             -7.4740   ZZ=            -14.7143
   XY=             -3.5772   XZ=              0.0000   YZ=             -0.0000
 Traceless Quadrupole moment (field-independent basis, Debye-Ang):
   XX=              0.7628   YY=              3.2388   ZZ=             -4.0016
   XY=             -3.5772   XZ=              0.0000   YZ=             -0.0000
 Octapole moment (field-independent basis, Debye-Ang**2):
  XXX=             -3.5890  YYY=            -55.3057  ZZZ=             -0.0000  XYY=            -17.6176
  XXY=             -2.1582  XXZ=              0.0000  XZZ=             -0.3431  YZZ=             -0.3977
  YYZ=              0.0000  XYZ=              0.0000
 Hexadecapole moment (field-independent basis, Debye-Ang**3):
 XXXX=            -11.3099 YYYY=           -391.1656 ZZZZ=            -11.3409 XXXY=              0.9792
 XXXZ=             -0.0000 YYYX=            -58.3158 YYYZ=              0.0000 ZZZX=             -0.0000
 ZZZY=              0.0000 XXYY=            -66.6648 XXZZ=             -4.3828 YYZZ=           -103.6606
 XXYZ=              0.0000 YYXZ=              0.0000 ZZXY=              0.6141
 N-N= 2.810004048096D+01 E-N=-4.176011017209D+02  KE= 1.518030999305D+02
 Symmetry A'   KE= 1.427667300107D+02
 Symmetry A"   KE= 9.036369919803D+00
 Leave Link  601 at Sat Aug 27 00:32:15 2022, MaxMem=   536870912 cpu:               0.1 elap:               0.0
 (Enter /usr/site/hpc/x86_64/glibc-2.17/broadwell/gaussian/g16_a.03/pgi-16.5/g16/l9999.exe)
 1\1\GINC-N004\SP\RCCSD(T)-FC\CC-pVTZ\H4O2\C7441284\27-Aug-2022\0\\#p C
 CSD(T)/cc-pVTZ\\H2O_H2O_3931\\0,1\O,0,0.,-0.009833,0.\H,0,-0.799571,-0
 .580965,0.\H,0,0.799571,-0.580965,0.\O,0,-4.212485,-3.015365,0.\H,0,-5
 .169755,-3.237039,0.\H,0,-3.69234,-3.849005,0.\\Version=ES64L-G16RevA.
 03\State=1-A'\HF=-152.1083035\MP2=-152.6341695\MP3=-152.6417272\MP4D=-
 152.6508242\MP4DQ=-152.6432764\MP4SDQ=-152.6463278\CCSD=-152.6457408\C
 CSD(T)=-152.6613635\RMSD=7.189e-09\PG=CS [SG(H4O2)]\\@


 TO BEHOLD HARMS OF OUR OWN HANDS DOING,
 WHERE NONE BESIDE US WROUGHT,
 CAUSES SHARP RUING...

                                         SOPHOCLES
 Job cpu time:       0 days  0 hours  1 minutes 21.8 seconds.
 Elapsed time:       0 days  0 hours  0 minutes 21.1 seconds.
 File lengths (MBytes):  RWF=    324 Int=      0 D2E=      0 Chk=      8 Scr=      8
 Normal termination of Gaussian 16 at Sat Aug 27 00:32:15 2022.
