 Entering Gaussian System, Link 0=g16
 Input=H2O_H2O_3734.com
 Output=H2O_H2O_3734.log
 Initial command:
 /usr/site/hpc/x86_64/glibc-2.17/broadwell/gaussian/g16_a.03/pgi-16.5/g16/l1.exe "/gpfs/gpfs1/scratch/c7441284/ForceFieldModel/FittingData2/Gau-575712.inp" -scrdir="/gpfs/gpfs1/scratch/c7441284/ForceFieldModel/FittingData2/"
 Entering Link 1 = /usr/site/hpc/x86_64/glibc-2.17/broadwell/gaussian/g16_a.03/pgi-16.5/g16/l1.exe PID=    575713.
  
 Copyright (c) 1988,1990,1992,1993,1995,1998,2003,2009,2016,
            Gaussian, Inc.  All Rights Reserved.
  
 This is part of the Gaussian(R) 16 program.  It is based on
 the Gaussian(R) 09 system (copyright 2009, Gaussian, Inc.),
 the Gaussian(R) 03 system (copyright 2003, Gaussian, Inc.),
 the Gaussian(R) 98 system (copyright 1998, Gaussian, Inc.),
 the Gaussian(R) 94 system (copyright 1995, Gaussian, Inc.),
 the Gaussian 92(TM) system (copyright 1992, Gaussian, Inc.),
 the Gaussian 90(TM) system (copyright 1990, Gaussian, Inc.),
 the Gaussian 88(TM) system (copyright 1988, Gaussian, Inc.),
 the Gaussian 86(TM) system (copyright 1986, Carnegie Mellon
 University), and the Gaussian 82(TM) system (copyright 1983,
 Carnegie Mellon University). Gaussian is a federally registered
 trademark of Gaussian, Inc.
  
 This software contains proprietary and confidential information,
 including trade secrets, belonging to Gaussian, Inc.
  
 This software is provided under written license and may be
 used, copied, transmitted, or stored only in accord with that
 written license.
  
 The following legend is applicable only to US Government
 contracts under FAR:
  
                    RESTRICTED RIGHTS LEGEND
  
 Use, reproduction and disclosure by the US Government is
 subject to restrictions as set forth in subparagraphs (a)
 and (c) of the Commercial Computer Software - Restricted
 Rights clause in FAR 52.227-19.
  
 Gaussian, Inc.
 340 Quinnipiac St., Bldg. 40, Wallingford CT 06492
  
  
 ---------------------------------------------------------------
 Warning -- This program may not be used in any manner that
 competes with the business of Gaussian, Inc. or will provide
 assistance to any competitor of Gaussian, Inc.  The licensee
 of this program is prohibited from giving any competitor of
 Gaussian, Inc. access to this program.  By using this program,
 the user acknowledges that Gaussian, Inc. is engaged in the
 business of creating and licensing software in the field of
 computational chemistry and represents and warrants to the
 licensee that it is not a competitor of Gaussian, Inc. and that
 it will not use this program in any manner prohibited above.
 ---------------------------------------------------------------
  

 Cite this work as:
 Gaussian 16, Revision A.03,
 M. J. Frisch, G. W. Trucks, H. B. Schlegel, G. E. Scuseria, 
 M. A. Robb, J. R. Cheeseman, G. Scalmani, V. Barone, 
 G. A. Petersson, H. Nakatsuji, X. Li, M. Caricato, A. V. Marenich, 
 J. Bloino, B. G. Janesko, R. Gomperts, B. Mennucci, H. P. Hratchian, 
 J. V. Ortiz, A. F. Izmaylov, J. L. Sonnenberg, D. Williams-Young, 
 F. Ding, F. Lipparini, F. Egidi, J. Goings, B. Peng, A. Petrone, 
 T. Henderson, D. Ranasinghe, V. G. Zakrzewski, J. Gao, N. Rega, 
 G. Zheng, W. Liang, M. Hada, M. Ehara, K. Toyota, R. Fukuda, 
 J. Hasegawa, M. Ishida, T. Nakajima, Y. Honda, O. Kitao, H. Nakai, 
 T. Vreven, K. Throssell, J. A. Montgomery, Jr., J. E. Peralta, 
 F. Ogliaro, M. J. Bearpark, J. J. Heyd, E. N. Brothers, K. N. Kudin, 
 V. N. Staroverov, T. A. Keith, R. Kobayashi, J. Normand, 
 K. Raghavachari, A. P. Rendell, J. C. Burant, S. S. Iyengar, 
 J. Tomasi, M. Cossi, J. M. Millam, M. Klene, C. Adamo, R. Cammi, 
 J. W. Ochterski, R. L. Martin, K. Morokuma, O. Farkas, 
 J. B. Foresman, and D. J. Fox, Gaussian, Inc., Wallingford CT, 2016.
 
 ******************************************
 Gaussian 16:  ES64L-G16RevA.03 25-Dec-2016
                26-Aug-2022 
 ******************************************
 %NProcShared=4
 Will use up to    4 processors via shared memory.
 %Mem=4GB
 %Chk=H2O_H2O_3734.chk
 ------------------
 #p CCSD(T)/cc-pVTZ
 ------------------
 1/38=1,172=1/1;
 2/12=2,17=6,18=5,40=1/2;
 3/5=16,6=1,11=9,25=1,30=1/1,2,3;
 4//1;
 5/5=2,38=5/2;
 8/6=4,9=120000,10=1/1,4;
 9/5=7,14=2/13;
 6/7=2,8=2,9=2,10=2/1;
 99/5=1,9=1/99;
 Leave Link    1 at Fri Aug 26 23:22:19 2022, MaxMem=   536870912 cpu:               0.2 elap:               0.1
 (Enter /usr/site/hpc/x86_64/glibc-2.17/broadwell/gaussian/g16_a.03/pgi-16.5/g16/l101.exe)
 ------------
 H2O_H2O_3734
 ------------
 Symbolic Z-matrix:
 Charge =  0 Multiplicity = 1
 O                     0.       -0.00983   0. 
 H                    -0.79957  -0.58097   0. 
 H                     0.79957  -0.58097   0. 
 O                    -4.08435  -2.92172   0. 
 H                    -5.06648  -2.95238   0. 
 H                    -3.73684  -3.84082   0. 
 
 ITRead=  0  0  0  0  0  0
 MicOpt= -1 -1 -1 -1 -1 -1
 NAtoms=      6 NQM=        6 NQMF=       0 NMMI=      0 NMMIF=      0
                NMic=       0 NMicF=      0.
                    Isotopes and Nuclear Properties:
 (Nuclear quadrupole moments (NQMom) in fm**2, nuclear magnetic moments (NMagM)
  in nuclear magnetons)

  Atom         1           2           3           4           5           6
 IAtWgt=          16           1           1          16           1           1
 AtmWgt=  15.9949146   1.0078250   1.0078250  15.9949146   1.0078250   1.0078250
 NucSpn=           0           1           1           0           1           1
 AtZEff=  -0.0000000  -0.0000000  -0.0000000  -0.0000000  -0.0000000  -0.0000000
 NQMom=    0.0000000   0.0000000   0.0000000   0.0000000   0.0000000   0.0000000
 NMagM=    0.0000000   2.7928460   2.7928460   0.0000000   2.7928460   2.7928460
 AtZNuc=   8.0000000   1.0000000   1.0000000   8.0000000   1.0000000   1.0000000
 Leave Link  101 at Fri Aug 26 23:22:19 2022, MaxMem=   536870912 cpu:               0.3 elap:               0.1
 (Enter /usr/site/hpc/x86_64/glibc-2.17/broadwell/gaussian/g16_a.03/pgi-16.5/g16/l202.exe)
                          Input orientation:                          
 ---------------------------------------------------------------------
 Center     Atomic      Atomic             Coordinates (Angstroms)
 Number     Number       Type             X           Y           Z
 ---------------------------------------------------------------------
      1          8           0        0.000000   -0.009833    0.000000
      2          1           0       -0.799571   -0.580965    0.000000
      3          1           0        0.799571   -0.580965    0.000000
      4          8           0       -4.084354   -2.921718    0.000000
      5          1           0       -5.066477   -2.952379    0.000000
      6          1           0       -3.736838   -3.840815    0.000000
 ---------------------------------------------------------------------
                    Distance matrix (angstroms):
                    1          2          3          4          5
     1  O    0.000000
     2  H    0.982601   0.000000
     3  H    0.982601   1.599142   0.000000
     4  O    5.016076   4.033475   5.415888   0.000000
     5  H    5.858990   4.881607   6.327252   0.982601   0.000000
     6  H    5.351671   4.387956   5.586200   0.982602   1.599143
                    6
     6  H    0.000000
 Stoichiometry    H4O2
 Framework group  CS[SG(H4O2)]
 Deg. of freedom     9
 Full point group                 CS      NOp   2
 Largest Abelian subgroup         CS      NOp   2
 Largest concise Abelian subgroup C1      NOp   1
                         Standard orientation:                         
 ---------------------------------------------------------------------
 Center     Atomic      Atomic             Coordinates (Angstroms)
 Number     Number       Type             X           Y           Z
 ---------------------------------------------------------------------
      1          8           0        0.066752    2.594597   -0.000000
      2          1           0        0.065865    1.611996   -0.000000
      3          1           0       -0.862453    2.914102    0.000000
      4          8           0        0.066752   -2.421480   -0.000000
      5          1           0        0.611919   -3.238975   -0.000000
      6          1           0       -0.883362   -2.672059    0.000000
 ---------------------------------------------------------------------
 Rotational constants (GHZ):         251.0048123           2.1937380           2.1747312
 Leave Link  202 at Fri Aug 26 23:22:19 2022, MaxMem=   536870912 cpu:               0.0 elap:               0.0
 (Enter /usr/site/hpc/x86_64/glibc-2.17/broadwell/gaussian/g16_a.03/pgi-16.5/g16/l301.exe)
 Standard basis: CC-pVTZ (5D, 7F)
 Ernie: Thresh=  0.10000D-02 Tol=  0.10000D-05 Strict=F.
 Ernie:  6 primitive shells out of 84 were deleted.
 There are    92 symmetry adapted cartesian basis functions of A'  symmetry.
 There are    38 symmetry adapted cartesian basis functions of A"  symmetry.
 There are    80 symmetry adapted basis functions of A'  symmetry.
 There are    36 symmetry adapted basis functions of A"  symmetry.
   116 basis functions,   172 primitive gaussians,   130 cartesian basis functions
    10 alpha electrons       10 beta electrons
       nuclear repulsion energy        28.3992899926 Hartrees.
 IExCor=    0 DFT=F Ex=HF Corr=None ExCW=0 ScaHFX=  1.000000
 ScaDFX=  1.000000  1.000000  1.000000  1.000000 ScalE2=  1.000000  1.000000
 IRadAn=      5 IRanWt=     -1 IRanGd=            0 ICorTp=0 IEmpDi=  4
 NAtoms=    6 NActive=    6 NUniq=    6 SFac= 1.00D+00 NAtFMM=   60 NAOKFM=F Big=F
 Integral buffers will be    131072 words long.
 Raffenetti 1 integral format.
 Two-electron integral symmetry is turned on.
 Leave Link  301 at Fri Aug 26 23:22:19 2022, MaxMem=   536870912 cpu:               0.2 elap:               0.0
 (Enter /usr/site/hpc/x86_64/glibc-2.17/broadwell/gaussian/g16_a.03/pgi-16.5/g16/l302.exe)
 NPDir=0 NMtPBC=     1 NCelOv=     1 NCel=       1 NClECP=     1 NCelD=      1
         NCelK=      1 NCelE2=     1 NClLst=     1 CellRange=     0.0.
 One-electron integrals computed using PRISM.
 One-electron integral symmetry used in STVInt
 NBasis=   116 RedAO= T EigKep=  2.62D-03  NBF=    80    36
 NBsUse=   116 1.00D-06 EigRej= -1.00D+00 NBFU=    80    36
 Leave Link  302 at Fri Aug 26 23:22:19 2022, MaxMem=   536870912 cpu:               0.4 elap:               0.1
 (Enter /usr/site/hpc/x86_64/glibc-2.17/broadwell/gaussian/g16_a.03/pgi-16.5/g16/l303.exe)
 DipDrv:  MaxL=1.
 Leave Link  303 at Fri Aug 26 23:22:19 2022, MaxMem=   536870912 cpu:               0.1 elap:               0.0
 (Enter /usr/site/hpc/x86_64/glibc-2.17/broadwell/gaussian/g16_a.03/pgi-16.5/g16/l401.exe)
 ExpMin= 1.03D-01 ExpMax= 1.53D+04 ExpMxC= 5.22D+02 IAcc=3 IRadAn=         5 AccDes= 0.00D+00
 Harris functional with IExCor=  205 and IRadAn=       5 diagonalized for initial guess.
 HarFok:  IExCor=  205 AccDes= 0.00D+00 IRadAn=         5 IDoV= 1 UseB2=F ITyADJ=14
 ICtDFT=  3500011 ScaDFX=  1.000000  1.000000  1.000000  1.000000
 FoFCou: FMM=F IPFlag=           0 FMFlag=      100000 FMFlg1=           0
         NFxFlg=           0 DoJE=T BraDBF=F KetDBF=T FulRan=T
         wScrn=  0.000000 ICntrl=       500 IOpCl=  0 I1Cent=   200000004 NGrid=           0
         NMat0=    1 NMatS0=      1 NMatT0=    0 NMatD0=    1 NMtDS0=    0 NMtDT0=    0
 Petite list used in FoFCou.
 Harris En= -152.298729665256    
 JPrj=0 DoOrth=F DoCkMO=F.
 Initial guess orbital symmetries:
       Occupied  (A') (A') (A') (A') (A') (A') (A') (A') (A") (A")
       Virtual   (A') (A') (A') (A') (A') (A') (A') (A') (A') (A')
                 (A") (A") (A') (A') (A') (A") (A") (A') (A") (A")
                 (A') (A') (A') (A') (A') (A') (A') (A') (A") (A")
                 (A") (A") (A') (A') (A') (A') (A') (A') (A') (A')
                 (A') (A') (A") (A") (A') (A') (A") (A") (A") (A")
                 (A') (A') (A') (A') (A') (A') (A") (A") (A') (A')
                 (A') (A') (A") (A") (A") (A") (A') (A') (A') (A')
                 (A") (A") (A') (A') (A') (A') (A') (A') (A') (A')
                 (A") (A") (A') (A') (A") (A") (A") (A") (A') (A')
                 (A") (A") (A') (A') (A') (A') (A") (A") (A') (A')
                 (A') (A') (A') (A') (A') (A')
 The electronic state of the initial guess is 1-A'.
 Leave Link  401 at Fri Aug 26 23:22:20 2022, MaxMem=   536870912 cpu:               0.8 elap:               0.2
 (Enter /usr/site/hpc/x86_64/glibc-2.17/broadwell/gaussian/g16_a.03/pgi-16.5/g16/l502.exe)
 Keep R1 ints in memory in symmetry-blocked form, NReq=34823457.
 FoFCou: FMM=F IPFlag=           0 FMFlag=           0 FMFlg1=           0
         NFxFlg=           0 DoJE=F BraDBF=F KetDBF=F FulRan=T
         wScrn=  0.000000 ICntrl=       600 IOpCl=  0 I1Cent=           0 NGrid=           0
         NMat0=    1 NMatS0=   6786 NMatT0=    0 NMatD0=    1 NMtDS0=    0 NMtDT0=    0
 Petite list used in FoFCou.
 Closed shell SCF:
 Using DIIS extrapolation, IDIIS=  1040.
 NGot=   536870912 LenX=   525040673 LenY=   525023332
 Requested convergence on RMS density matrix=1.00D-08 within 128 cycles.
 Requested convergence on MAX density matrix=1.00D-06.
 Requested convergence on             energy=1.00D-06.
 No special actions if energy rises.

 Cycle   1  Pass 1  IDiag  1:
 E= -151.929367458783    
 DIIS: error= 6.59D-02 at cycle   1 NSaved=   1.
 NSaved= 1 IEnMin= 1 EnMin= -151.929367458783     IErMin= 1 ErrMin= 6.59D-02
 ErrMax= 6.59D-02  0.00D+00 EMaxC= 1.00D-01 BMatC= 3.99D-01 BMatP= 3.99D-01
 IDIUse=3 WtCom= 3.41D-01 WtEn= 6.59D-01
 Coeff-Com:  0.100D+01
 Coeff-En:   0.100D+01
 Coeff:      0.100D+01
 Gap=     0.509 Goal=   None    Shift=    0.000
 GapD=    0.509 DampG=2.000 DampE=0.500 DampFc=1.0000 IDamp=-1.
 RMSDP=2.50D-03 MaxDP=6.69D-02              OVMax= 1.26D-01

 Cycle   2  Pass 1  IDiag  1:
 E= -152.040674663270     Delta-E=       -0.111307204486 Rises=F Damp=F
 DIIS: error= 4.14D-02 at cycle   2 NSaved=   2.
 NSaved= 2 IEnMin= 2 EnMin= -152.040674663270     IErMin= 2 ErrMin= 4.14D-02
 ErrMax= 4.14D-02  0.00D+00 EMaxC= 1.00D-01 BMatC= 1.12D-01 BMatP= 3.99D-01
 IDIUse=3 WtCom= 5.86D-01 WtEn= 4.14D-01
 Coeff-Com:  0.319D+00 0.681D+00
 Coeff-En:   0.166D+00 0.834D+00
 Coeff:      0.255D+00 0.745D+00
 Gap=     0.645 Goal=   None    Shift=    0.000
 RMSDP=1.33D-03 MaxDP=3.96D-02 DE=-1.11D-01 OVMax= 5.70D-02

 Cycle   3  Pass 1  IDiag  1:
 E= -152.104919851389     Delta-E=       -0.064245188119 Rises=F Damp=F
 DIIS: error= 8.97D-03 at cycle   3 NSaved=   3.
 NSaved= 3 IEnMin= 3 EnMin= -152.104919851389     IErMin= 3 ErrMin= 8.97D-03
 ErrMax= 8.97D-03  0.00D+00 EMaxC= 1.00D-01 BMatC= 5.95D-03 BMatP= 1.12D-01
 IDIUse=3 WtCom= 9.10D-01 WtEn= 8.97D-02
 Coeff-Com: -0.303D-01 0.156D+00 0.874D+00
 Coeff-En:   0.000D+00 0.000D+00 0.100D+01
 Coeff:     -0.276D-01 0.142D+00 0.886D+00
 Gap=     0.617 Goal=   None    Shift=    0.000
 RMSDP=2.43D-04 MaxDP=5.73D-03 DE=-6.42D-02 OVMax= 1.33D-02

 Cycle   4  Pass 1  IDiag  1:
 E= -152.108623824650     Delta-E=       -0.003703973261 Rises=F Damp=F
 DIIS: error= 8.50D-04 at cycle   4 NSaved=   4.
 NSaved= 4 IEnMin= 4 EnMin= -152.108623824650     IErMin= 4 ErrMin= 8.50D-04
 ErrMax= 8.50D-04  0.00D+00 EMaxC= 1.00D-01 BMatC= 3.68D-05 BMatP= 5.95D-03
 IDIUse=3 WtCom= 9.91D-01 WtEn= 8.50D-03
 Coeff-Com:  0.678D-02-0.611D-01-0.238D+00 0.129D+01
 Coeff-En:   0.000D+00 0.000D+00 0.000D+00 0.100D+01
 Coeff:      0.672D-02-0.606D-01-0.236D+00 0.129D+01
 Gap=     0.619 Goal=   None    Shift=    0.000
 RMSDP=5.17D-05 MaxDP=1.03D-03 DE=-3.70D-03 OVMax= 2.20D-03

 Cycle   5  Pass 1  IDiag  1:
 E= -152.108673181860     Delta-E=       -0.000049357210 Rises=F Damp=F
 DIIS: error= 1.93D-04 at cycle   5 NSaved=   5.
 NSaved= 5 IEnMin= 5 EnMin= -152.108673181860     IErMin= 5 ErrMin= 1.93D-04
 ErrMax= 1.93D-04  0.00D+00 EMaxC= 1.00D-01 BMatC= 1.34D-06 BMatP= 3.68D-05
 IDIUse=3 WtCom= 9.98D-01 WtEn= 1.93D-03
 Coeff-Com:  0.528D-03 0.544D-03-0.258D-02-0.224D+00 0.123D+01
 Coeff-En:   0.000D+00 0.000D+00 0.000D+00 0.000D+00 0.100D+01
 Coeff:      0.527D-03 0.543D-03-0.258D-02-0.224D+00 0.123D+01
 Gap=     0.620 Goal=   None    Shift=    0.000
 RMSDP=1.43D-05 MaxDP=2.98D-04 DE=-4.94D-05 OVMax= 6.87D-04

 Cycle   6  Pass 1  IDiag  1:
 E= -152.108675984147     Delta-E=       -0.000002802287 Rises=F Damp=F
 DIIS: error= 2.77D-05 at cycle   6 NSaved=   6.
 NSaved= 6 IEnMin= 6 EnMin= -152.108675984147     IErMin= 6 ErrMin= 2.77D-05
 ErrMax= 2.77D-05  0.00D+00 EMaxC= 1.00D-01 BMatC= 3.47D-08 BMatP= 1.34D-06
 IDIUse=1 WtCom= 1.00D+00 WtEn= 0.00D+00
 Coeff-Com: -0.245D-03 0.157D-02 0.653D-02-0.736D-02-0.206D+00 0.121D+01
 Coeff:     -0.245D-03 0.157D-02 0.653D-02-0.736D-02-0.206D+00 0.121D+01
 Gap=     0.620 Goal=   None    Shift=    0.000
 RMSDP=2.91D-06 MaxDP=6.87D-05 DE=-2.80D-06 OVMax= 1.54D-04

 Cycle   7  Pass 1  IDiag  1:
 E= -152.108676076501     Delta-E=       -0.000000092354 Rises=F Damp=F
 DIIS: error= 6.17D-06 at cycle   7 NSaved=   7.
 NSaved= 7 IEnMin= 7 EnMin= -152.108676076501     IErMin= 7 ErrMin= 6.17D-06
 ErrMax= 6.17D-06  0.00D+00 EMaxC= 1.00D-01 BMatC= 3.76D-09 BMatP= 3.47D-08
 IDIUse=1 WtCom= 1.00D+00 WtEn= 0.00D+00
 Coeff-Com: -0.621D-04 0.146D-03 0.784D-03 0.141D-01-0.104D+00 0.187D+00
 Coeff-Com:  0.902D+00
 Coeff:     -0.621D-04 0.146D-03 0.784D-03 0.141D-01-0.104D+00 0.187D+00
 Coeff:      0.902D+00
 Gap=     0.620 Goal=   None    Shift=    0.000
 RMSDP=4.49D-07 MaxDP=1.38D-05 DE=-9.24D-08 OVMax= 3.32D-05

 Cycle   8  Pass 1  IDiag  1:
 E= -152.108676081382     Delta-E=       -0.000000004881 Rises=F Damp=F
 DIIS: error= 2.23D-06 at cycle   8 NSaved=   8.
 NSaved= 8 IEnMin= 8 EnMin= -152.108676081382     IErMin= 8 ErrMin= 2.23D-06
 ErrMax= 2.23D-06  0.00D+00 EMaxC= 1.00D-01 BMatC= 4.95D-10 BMatP= 3.76D-09
 IDIUse=1 WtCom= 1.00D+00 WtEn= 0.00D+00
 Coeff-Com:  0.255D-04-0.213D-03-0.863D-03 0.390D-02 0.123D-01-0.139D+00
 Coeff-Com:  0.140D+00 0.985D+00
 Coeff:      0.255D-04-0.213D-03-0.863D-03 0.390D-02 0.123D-01-0.139D+00
 Coeff:      0.140D+00 0.985D+00
 Gap=     0.620 Goal=   None    Shift=    0.000
 RMSDP=1.66D-07 MaxDP=3.90D-06 DE=-4.88D-09 OVMax= 1.26D-05

 Cycle   9  Pass 1  IDiag  1:
 E= -152.108676082123     Delta-E=       -0.000000000740 Rises=F Damp=F
 DIIS: error= 9.01D-07 at cycle   9 NSaved=   9.
 NSaved= 9 IEnMin= 9 EnMin= -152.108676082123     IErMin= 9 ErrMin= 9.01D-07
 ErrMax= 9.01D-07  0.00D+00 EMaxC= 1.00D-01 BMatC= 2.59D-11 BMatP= 4.95D-10
 IDIUse=1 WtCom= 1.00D+00 WtEn= 0.00D+00
 Coeff-Com:  0.849D-06 0.304D-04 0.125D-03-0.245D-02 0.856D-02 0.803D-02
 Coeff-Com: -0.105D+00-0.174D+00 0.126D+01
 Coeff:      0.849D-06 0.304D-04 0.125D-03-0.245D-02 0.856D-02 0.803D-02
 Coeff:     -0.105D+00-0.174D+00 0.126D+01
 Gap=     0.620 Goal=   None    Shift=    0.000
 RMSDP=5.63D-08 MaxDP=1.07D-06 DE=-7.40D-10 OVMax= 3.06D-06

 Cycle  10  Pass 1  IDiag  1:
 E= -152.108676082176     Delta-E=       -0.000000000053 Rises=F Damp=F
 DIIS: error= 1.01D-07 at cycle  10 NSaved=  10.
 NSaved=10 IEnMin=10 EnMin= -152.108676082176     IErMin=10 ErrMin= 1.01D-07
 ErrMax= 1.01D-07  0.00D+00 EMaxC= 1.00D-01 BMatC= 4.27D-13 BMatP= 2.59D-11
 IDIUse=1 WtCom= 1.00D+00 WtEn= 0.00D+00
 Coeff-Com: -0.596D-06-0.378D-05-0.180D-04 0.518D-03-0.194D-02-0.133D-02
 Coeff-Com:  0.270D-01 0.365D-01-0.377D+00 0.132D+01
 Coeff:     -0.596D-06-0.378D-05-0.180D-04 0.518D-03-0.194D-02-0.133D-02
 Coeff:      0.270D-01 0.365D-01-0.377D+00 0.132D+01
 Gap=     0.620 Goal=   None    Shift=    0.000
 RMSDP=7.11D-09 MaxDP=1.89D-07 DE=-5.33D-11 OVMax= 4.12D-07

 SCF Done:  E(RHF) =  -152.108676082     A.U. after   10 cycles
            NFock= 10  Conv=0.71D-08     -V/T= 2.0020
 KE= 1.518023156329D+02 PE=-4.182099170050D+02 EE= 8.589963529735D+01
 Leave Link  502 at Fri Aug 26 23:22:21 2022, MaxMem=   536870912 cpu:               3.9 elap:               1.0
 (Enter /usr/site/hpc/x86_64/glibc-2.17/broadwell/gaussian/g16_a.03/pgi-16.5/g16/l801.exe)
 Windowed orbitals will be sorted by symmetry type.
 ExpMin= 1.03D-01 ExpMax= 1.53D+04 ExpMxC= 5.22D+02 IAcc=3 IRadAn=         5 AccDes= 0.00D+00
 HarFok:  IExCor=  205 AccDes= 0.00D+00 IRadAn=         5 IDoV=-2 UseB2=F ITyADJ=14
 ICtDFT= 12500011 ScaDFX=  1.000000  1.000000  1.000000  1.000000
 Largest valence mixing into a core orbital is  1.12D-04
 Largest core mixing into a valence orbital is  1.76D-05
 Range of M.O.s used for correlation:     3   116
 NBasis=   116 NAE=    10 NBE=    10 NFC=     2 NFV=     0
 NROrb=    114 NOA=     8 NOB=     8 NVA=   106 NVB=   106
 Leave Link  801 at Fri Aug 26 23:22:21 2022, MaxMem=   536870912 cpu:               0.3 elap:               0.1
 (Enter /usr/site/hpc/x86_64/glibc-2.17/broadwell/gaussian/g16_a.03/pgi-16.5/g16/l804.exe)
 Closed-shell transformation, MDV=   536870912 ITran=4 ISComp=2.
 Unit  1 TFree=        834515 TCopy=        406125.
 Semi-Direct transformation.
 ModeAB=           4 MOrb=             8 LenV=     536375335
 LASXX=      2873146 LTotXX=     2873146 LenRXX=     5831278
 LTotAB=     2958132 MaxLAS=     5705472 LenRXY=           0
 NonZer=     8704424 LenScr=    13107200 LnRSAI=     5705472
 LnScr1=     8912896 LExtra=           0 Total=     33556846
 MaxDsk=          -1 SrtSym=           T ITran=            4
 DoSDTr:  NPSUse=  4
 JobTyp=0 Pass  1:  I=   1 to   8.
 (rs|ai) integrals will be sorted in core.
 Complete sort for first half transformation.
 First half transformation complete.
 Complete sort for second half transformation.
 Second half transformation complete.
 Spin components of T(2) and E(2):
     alpha-alpha T2 =       0.1555875076D-01 E2=     -0.6381081802D-01
     alpha-beta  T2 =       0.9185955656D-01 E2=     -0.3982411898D+00
     beta-beta   T2 =       0.1555875076D-01 E2=     -0.6381081802D-01
 ANorm=    0.1059706119D+01
 E2 =    -0.5258628259D+00 EUMP2 =    -0.15263453890806D+03
 Leave Link  804 at Fri Aug 26 23:22:22 2022, MaxMem=   536870912 cpu:               4.1 elap:               1.1
 (Enter /usr/site/hpc/x86_64/glibc-2.17/broadwell/gaussian/g16_a.03/pgi-16.5/g16/l913.exe)
 CIDS:  MDV=   536870912.
 Frozen-core window:  NFC=   2 NFV=   0.
 IFCWin=0 IBDFC=1 NFBD=     0     0 NFCmp=     0     0 NFFFC=     0     0
 Using DD3R+UMP44R for 1st iteration.
 Using DD4RQ for 2nd and later iterations.
 Keep R2 and R3 ints in memory in symmetry-blocked form, NReq=35357534.
 FoFCou: FMM=F IPFlag=           0 FMFlag=           0 FMFlg1=           0
         NFxFlg=           0 DoJE=F BraDBF=F KetDBF=F FulRan=T
         wScrn=  0.000000 ICntrl=       600 IOpCl=  0 I1Cent=           0 NGrid=           0
         NMat0=    1 NMatS0=   6786 NMatT0=    0 NMatD0=    1 NMtDS0=    0 NMtDT0=    0
 Petite list used in FoFCou.
 CIDS: In Core Option IDoMem=           1.
 CCSD(T)
 =======
 Iterations=  50 Convergence= 0.100D-06
 Produce multiple copies of IABC intergrals
 Iteration Nr.   1
 **********************
 DD1Dir will call FoFMem   1 times, MxPair=        72
 NAB=    36 NAA=     0 NBB=     0.
 MP4(R+Q)=  0.75455716D-02
 Maximum subspace dimension=  5
 A-vector RMS=  1.7402958D-03 Max=  6.1855869D-03 conv= 1.00D-05.
 RLE energy=       -0.5257954640
 E3=       -0.75489637D-02        EUMP3=      -0.15264208787D+03
 E4(DQ)=   -0.15492995D-02        UMP4(DQ)=   -0.15264363717D+03
 E4(SDQ)=  -0.45997269D-02        UMP4(SDQ)=  -0.15264668760D+03
 VARIATIONAL ENERGIES WITH THE FIRST-ORDER WAVEFUNCTION:
 DE(Corr)= -0.52579546     E(Corr)=     -152.63447155    
 NORM(A)=   0.10600671D+01
 Iteration Nr.   2
 **********************
 DD1Dir will call FoFMem   1 times, MxPair=        72
 NAB=    36 NAA=     0 NBB=     0.
 A-vector RMS=  2.1279593D-04 Max=  2.3188245D-03 conv= 1.00D-05.
 RLE energy=       -0.5368414465
 DE(Corr)= -0.53568381     E(CORR)=     -152.64435990     Delta=-9.89D-03
 NORM(A)=   0.10638071D+01
 Iteration Nr.   3
 **********************
 DD1Dir will call FoFMem   1 times, MxPair=        72
 NAB=    36 NAA=     0 NBB=     0.
 A-vector RMS=  1.4057248D-04 Max=  7.9737509D-04 conv= 1.00D-05.
 RLE energy=       -0.5373364016
 DE(Corr)= -0.53675196     E(CORR)=     -152.64542804     Delta=-1.07D-03
 NORM(A)=   0.10644426D+01
 Iteration Nr.   4
 **********************
 DD1Dir will call FoFMem   1 times, MxPair=        72
 NAB=    36 NAA=     0 NBB=     0.
 A-vector RMS=  2.6387000D-05 Max=  1.3829168D-04 conv= 1.00D-05.
 RLE energy=       -0.5374192162
 DE(Corr)= -0.53738409     E(CORR)=     -152.64606017     Delta=-6.32D-04
 NORM(A)=   0.10645526D+01
 Iteration Nr.   5
 **********************
 DD1Dir will call FoFMem   1 times, MxPair=        72
 NAB=    36 NAA=     0 NBB=     0.
 A-vector RMS=  1.8554331D-05 Max=  1.4622476D-04 conv= 1.00D-05.
 RLE energy=       -0.5374276780
 DE(Corr)= -0.53742095     E(CORR)=     -152.64609703     Delta=-3.69D-05
 NORM(A)=   0.10645620D+01
 Iteration Nr.   6
 **********************
 DD1Dir will call FoFMem   1 times, MxPair=        72
 NAB=    36 NAA=     0 NBB=     0.
 A-vector RMS=  5.5882933D-06 Max=  4.3808250D-05 conv= 1.00D-05.
 RLE energy=       -0.5374187113
 DE(Corr)= -0.53742412     E(CORR)=     -152.64610020     Delta=-3.17D-06
 NORM(A)=   0.10645620D+01
 Iteration Nr.   7
 **********************
 DD1Dir will call FoFMem   1 times, MxPair=        72
 NAB=    36 NAA=     0 NBB=     0.
 A-vector RMS=  2.6561086D-06 Max=  2.0586602D-05 conv= 1.00D-05.
 RLE energy=       -0.5374250278
 DE(Corr)= -0.53742427     E(CORR)=     -152.64610035     Delta=-1.55D-07
 NORM(A)=   0.10645642D+01
 Iteration Nr.   8
 **********************
 DD1Dir will call FoFMem   1 times, MxPair=        72
 NAB=    36 NAA=     0 NBB=     0.
 A-vector RMS=  6.6860151D-07 Max=  5.7771994D-06 conv= 1.00D-05.
 RLE energy=       -0.5374236697
 DE(Corr)= -0.53742384     E(CORR)=     -152.64609992     Delta= 4.34D-07
 NORM(A)=   0.10645643D+01
 Iteration Nr.   9
 **********************
 DD1Dir will call FoFMem   1 times, MxPair=        72
 NAB=    36 NAA=     0 NBB=     0.
 A-vector RMS=  1.6823304D-07 Max=  1.5063970D-06 conv= 1.00D-05.
 RLE energy=       -0.5374239939
 DE(Corr)= -0.53742406     E(CORR)=     -152.64610014     Delta=-2.21D-07
 NORM(A)=   0.10645646D+01
 Iteration Nr.  10
 **********************
 DD1Dir will call FoFMem   1 times, MxPair=        72
 NAB=    36 NAA=     0 NBB=     0.
 A-vector RMS=  6.0441488D-08 Max=  5.0875704D-07 conv= 1.00D-05.
 RLE energy=       -0.5374241165
 DE(Corr)= -0.53742409     E(CORR)=     -152.64610017     Delta=-3.08D-08
 NORM(A)=   0.10645647D+01
 CI/CC converged in   10 iterations to DelEn=-3.08D-08 Conv= 1.00D-07 ErrA1= 6.04D-08 Conv= 1.00D-05
 Wavefunction amplitudes converged. E(Corr)=     -152.64610017    
 Largest amplitude= 4.79D-02
 IPart=  4 IA=    7   11.05% done.
 IPart=  1 IA=   13   21.46% done.
 IPart=  1 IA=   19   31.21% done.
 IPart=  2 IA=   25   40.32% done.
 IPart=  2 IA=   32   50.13% done.
 IPart=  2 IA=   40   60.27% done.
 IPart=  2 IA=   49   70.30% done.
 IPart=  3 IA=   60   80.58% done.
 IPart=  1 IA=   74   90.51% done.
 Time for triples=       45.75 seconds.
 T4(CCSD)= -0.16023123D-01
 T5(CCSD)=  0.40183860D-03
 CCSD(T)= -0.15266172146D+03
 Discarding MO integrals.
 Leave Link  913 at Fri Aug 26 23:22:39 2022, MaxMem=   536870912 cpu:              66.5 elap:              16.7
 (Enter /usr/site/hpc/x86_64/glibc-2.17/broadwell/gaussian/g16_a.03/pgi-16.5/g16/l601.exe)
 Copying SCF densities to generalized density rwf, IOpCl= 0 IROHF=0.

 **********************************************************************

            Population analysis using the SCF density.

 **********************************************************************

 Orbital symmetries:
       Occupied  (A') (A') (A') (A') (A') (A') (A') (A') (A") (A")
       Virtual   (A') (A') (A') (A') (A') (A') (A') (A') (A') (A')
                 (A") (A') (A") (A') (A') (A") (A") (A') (A") (A")
                 (A') (A') (A') (A') (A') (A') (A') (A') (A") (A")
                 (A") (A") (A') (A') (A') (A') (A') (A') (A') (A')
                 (A') (A') (A") (A") (A') (A') (A") (A") (A') (A')
                 (A") (A") (A') (A') (A') (A') (A") (A") (A") (A")
                 (A') (A') (A') (A') (A") (A") (A') (A') (A') (A')
                 (A") (A") (A') (A') (A') (A') (A') (A') (A') (A')
                 (A") (A") (A') (A') (A") (A") (A") (A") (A') (A')
                 (A") (A") (A') (A') (A') (A') (A") (A") (A') (A')
                 (A') (A') (A') (A') (A') (A')
 The electronic state is 1-A'.
 Alpha  occ. eigenvalues --  -20.56372 -20.54824  -1.33667  -1.32134  -0.71075
 Alpha  occ. eigenvalues --   -0.69528  -0.57167  -0.55605  -0.50787  -0.49258
 Alpha virt. eigenvalues --    0.12775   0.15307   0.19504   0.21568   0.53374
 Alpha virt. eigenvalues --    0.55020   0.56497   0.57940   0.66767   0.69190
 Alpha virt. eigenvalues --    0.78113   0.78910   0.79591   0.80128   0.82870
 Alpha virt. eigenvalues --    0.84070   0.85571   0.85955   0.96453   0.97966
 Alpha virt. eigenvalues --    1.13804   1.15397   1.17276   1.17911   1.50922
 Alpha virt. eigenvalues --    1.51225   1.52494   1.53088   1.99823   2.01359
 Alpha virt. eigenvalues --    2.05897   2.07434   2.08779   2.10178   2.14093
 Alpha virt. eigenvalues --    2.15594   2.24913   2.25895   2.60677   2.62511
 Alpha virt. eigenvalues --    2.91998   2.94304   3.38559   3.40088   3.49120
 Alpha virt. eigenvalues --    3.50659   3.52327   3.53846   3.58707   3.60297
 Alpha virt. eigenvalues --    3.77830   3.79364   3.84644   3.86084   3.87108
 Alpha virt. eigenvalues --    3.88369   3.92773   3.94306   4.02225   4.03764
 Alpha virt. eigenvalues --    4.07370   4.08992   4.14458   4.16085   4.29297
 Alpha virt. eigenvalues --    4.30841   4.39193   4.40637   4.44783   4.46325
 Alpha virt. eigenvalues --    4.65691   4.67218   4.80134   4.81734   5.03476
 Alpha virt. eigenvalues --    5.05001   5.23239   5.24809   5.53285   5.54739
 Alpha virt. eigenvalues --    5.97058   5.98603   6.39539   6.41089   6.85318
 Alpha virt. eigenvalues --    6.86864   6.88810   6.90350   6.93746   6.95323
 Alpha virt. eigenvalues --    6.98247   6.99795   7.07099   7.08576   7.12004
 Alpha virt. eigenvalues --    7.13184   7.17416   7.18967   7.46318   7.47991
 Alpha virt. eigenvalues --    7.69493   7.71029   8.14225   8.15928  12.47861
 Alpha virt. eigenvalues --   12.51290
          Condensed to atoms (all electrons):
               1          2          3          4          5          6
     1  O    7.822320   0.346326   0.345503  -0.000011   0.000001   0.000003
     2  H    0.346326   0.428303  -0.036891   0.000691  -0.000023  -0.000044
     3  H    0.345503  -0.036891   0.439651  -0.000012   0.000000   0.000002
     4  O   -0.000011   0.000691  -0.000012   7.822712   0.346908   0.344050
     5  H    0.000001  -0.000023   0.000000   0.346908   0.429287  -0.035837
     6  H    0.000003  -0.000044   0.000002   0.344050  -0.035837   0.436394
 Mulliken charges:
               1
     1  O   -0.514142
     2  H    0.261638
     3  H    0.251746
     4  O   -0.514338
     5  H    0.259664
     6  H    0.255431
 Sum of Mulliken charges =  -0.00000
 Mulliken charges with hydrogens summed into heavy atoms:
               1
     1  O   -0.000758
     4  O    0.000758
 Electronic spatial extent (au):  <R**2>=            492.7482
 Charge=             -0.0000 electrons
 Dipole moment (field-independent basis, Debye):
    X=             -2.2833    Y=             -3.0675    Z=              0.0000  Tot=              3.8239
 Quadrupole moment (field-independent basis, Debye-Ang):
   XX=             -9.5619   YY=             -7.0584   ZZ=            -14.7157
   XY=             -4.1547   XZ=              0.0000   YZ=              0.0000
 Traceless Quadrupole moment (field-independent basis, Debye-Ang):
   XX=              0.8834   YY=              3.3869   ZZ=             -4.2704
   XY=             -4.1547   XZ=              0.0000   YZ=              0.0000
 Octapole moment (field-independent basis, Debye-Ang**2):
  XXX=             -3.1087  YYY=            -52.6703  ZZZ=              0.0000  XYY=            -15.6052
  XXY=             -3.4501  XXZ=              0.0000  XZZ=             -0.2982  YZZ=             -0.4263
  YYZ=              0.0000  XYZ=              0.0000
 Hexadecapole moment (field-independent basis, Debye-Ang**3):
 XXXX=            -11.3258 YYYY=           -377.0939 ZZZZ=            -11.3440 XXXY=              0.5656
 XXXZ=              0.0000 YYYX=            -54.8723 YYYZ=              0.0000 ZZZX=              0.0000
 ZZZY=             -0.0000 XXYY=            -57.5074 XXZZ=             -4.4154 YYZZ=            -97.9244
 XXYZ=              0.0000 YYXZ=              0.0000 ZZXY=              0.8325
 N-N= 2.839928999257D+01 E-N=-4.182099158487D+02  KE= 1.518023156329D+02
 Symmetry A'   KE= 1.427664600009D+02
 Symmetry A"   KE= 9.035855632052D+00
 Leave Link  601 at Fri Aug 26 23:22:39 2022, MaxMem=   536870912 cpu:               0.2 elap:               0.0
 (Enter /usr/site/hpc/x86_64/glibc-2.17/broadwell/gaussian/g16_a.03/pgi-16.5/g16/l9999.exe)
 1\1\GINC-N004\SP\RCCSD(T)-FC\CC-pVTZ\H4O2\C7441284\26-Aug-2022\0\\#p C
 CSD(T)/cc-pVTZ\\H2O_H2O_3734\\0,1\O,0,0.,-0.009833,0.\H,0,-0.799571,-0
 .580965,0.\H,0,0.799571,-0.580965,0.\O,0,-4.084354,-2.921718,0.\H,0,-5
 .066477,-2.952379,0.\H,0,-3.736838,-3.840815,0.\\Version=ES64L-G16RevA
 .03\State=1-A'\HF=-152.1086761\MP2=-152.6345389\MP3=-152.6420879\MP4D=
 -152.6511827\MP4DQ=-152.6436372\MP4SDQ=-152.6466876\CCSD=-152.6461002\
 CCSD(T)=-152.6617215\RMSD=7.114e-09\PG=CS [SG(H4O2)]\\@


 THE ONLY DIFFERENCE BETWEEN ECCENTRICS AND JOGGERS
 IS THAT JOGGERS WEAR SWEATBANDS WHEN THEY RUN IN THE RAIN.
 Job cpu time:       0 days  0 hours  1 minutes 17.2 seconds.
 Elapsed time:       0 days  0 hours  0 minutes 19.5 seconds.
 File lengths (MBytes):  RWF=    328 Int=      0 D2E=      0 Chk=      8 Scr=      8
 Normal termination of Gaussian 16 at Fri Aug 26 23:22:39 2022.
