 Entering Gaussian System, Link 0=g16
 Input=H2O_H2O_4445.com
 Output=H2O_H2O_4445.log
 Initial command:
 /usr/site/hpc/x86_64/glibc-2.17/broadwell/gaussian/g16_a.03/pgi-16.5/g16/l1.exe "/gpfs/gpfs1/scratch/c7441284/ForceFieldModel/FittingData2/Gau-948279.inp" -scrdir="/gpfs/gpfs1/scratch/c7441284/ForceFieldModel/FittingData2/"
 Entering Link 1 = /usr/site/hpc/x86_64/glibc-2.17/broadwell/gaussian/g16_a.03/pgi-16.5/g16/l1.exe PID=    948280.
  
 Copyright (c) 1988,1990,1992,1993,1995,1998,2003,2009,2016,
            Gaussian, Inc.  All Rights Reserved.
  
 This is part of the Gaussian(R) 16 program.  It is based on
 the Gaussian(R) 09 system (copyright 2009, Gaussian, Inc.),
 the Gaussian(R) 03 system (copyright 2003, Gaussian, Inc.),
 the Gaussian(R) 98 system (copyright 1998, Gaussian, Inc.),
 the Gaussian(R) 94 system (copyright 1995, Gaussian, Inc.),
 the Gaussian 92(TM) system (copyright 1992, Gaussian, Inc.),
 the Gaussian 90(TM) system (copyright 1990, Gaussian, Inc.),
 the Gaussian 88(TM) system (copyright 1988, Gaussian, Inc.),
 the Gaussian 86(TM) system (copyright 1986, Carnegie Mellon
 University), and the Gaussian 82(TM) system (copyright 1983,
 Carnegie Mellon University). Gaussian is a federally registered
 trademark of Gaussian, Inc.
  
 This software contains proprietary and confidential information,
 including trade secrets, belonging to Gaussian, Inc.
  
 This software is provided under written license and may be
 used, copied, transmitted, or stored only in accord with that
 written license.
  
 The following legend is applicable only to US Government
 contracts under FAR:
  
                    RESTRICTED RIGHTS LEGEND
  
 Use, reproduction and disclosure by the US Government is
 subject to restrictions as set forth in subparagraphs (a)
 and (c) of the Commercial Computer Software - Restricted
 Rights clause in FAR 52.227-19.
  
 Gaussian, Inc.
 340 Quinnipiac St., Bldg. 40, Wallingford CT 06492
  
  
 ---------------------------------------------------------------
 Warning -- This program may not be used in any manner that
 competes with the business of Gaussian, Inc. or will provide
 assistance to any competitor of Gaussian, Inc.  The licensee
 of this program is prohibited from giving any competitor of
 Gaussian, Inc. access to this program.  By using this program,
 the user acknowledges that Gaussian, Inc. is engaged in the
 business of creating and licensing software in the field of
 computational chemistry and represents and warrants to the
 licensee that it is not a competitor of Gaussian, Inc. and that
 it will not use this program in any manner prohibited above.
 ---------------------------------------------------------------
  

 Cite this work as:
 Gaussian 16, Revision A.03,
 M. J. Frisch, G. W. Trucks, H. B. Schlegel, G. E. Scuseria, 
 M. A. Robb, J. R. Cheeseman, G. Scalmani, V. Barone, 
 G. A. Petersson, H. Nakatsuji, X. Li, M. Caricato, A. V. Marenich, 
 J. Bloino, B. G. Janesko, R. Gomperts, B. Mennucci, H. P. Hratchian, 
 J. V. Ortiz, A. F. Izmaylov, J. L. Sonnenberg, D. Williams-Young, 
 F. Ding, F. Lipparini, F. Egidi, J. Goings, B. Peng, A. Petrone, 
 T. Henderson, D. Ranasinghe, V. G. Zakrzewski, J. Gao, N. Rega, 
 G. Zheng, W. Liang, M. Hada, M. Ehara, K. Toyota, R. Fukuda, 
 J. Hasegawa, M. Ishida, T. Nakajima, Y. Honda, O. Kitao, H. Nakai, 
 T. Vreven, K. Throssell, J. A. Montgomery, Jr., J. E. Peralta, 
 F. Ogliaro, M. J. Bearpark, J. J. Heyd, E. N. Brothers, K. N. Kudin, 
 V. N. Staroverov, T. A. Keith, R. Kobayashi, J. Normand, 
 K. Raghavachari, A. P. Rendell, J. C. Burant, S. S. Iyengar, 
 J. Tomasi, M. Cossi, J. M. Millam, M. Klene, C. Adamo, R. Cammi, 
 J. W. Ochterski, R. L. Martin, K. Morokuma, O. Farkas, 
 J. B. Foresman, and D. J. Fox, Gaussian, Inc., Wallingford CT, 2016.
 
 ******************************************
 Gaussian 16:  ES64L-G16RevA.03 25-Dec-2016
                28-Aug-2022 
 ******************************************
 %NProcShared=4
 Will use up to    4 processors via shared memory.
 %Mem=4GB
 %Chk=H2O_H2O_4445.chk
 ------------------
 #p CCSD(T)/cc-pVTZ
 ------------------
 1/38=1,172=1/1;
 2/12=2,17=6,18=5,40=1/2;
 3/5=16,6=1,11=9,25=1,30=1/1,2,3;
 4//1;
 5/5=2,38=5/2;
 8/6=4,9=120000,10=1/1,4;
 9/5=7,14=2/13;
 6/7=2,8=2,9=2,10=2/1;
 99/5=1,9=1/99;
 Leave Link    1 at Sun Aug 28 02:53:06 2022, MaxMem=   536870912 cpu:               0.3 elap:               0.1
 (Enter /usr/site/hpc/x86_64/glibc-2.17/broadwell/gaussian/g16_a.03/pgi-16.5/g16/l101.exe)
 ------------
 H2O_H2O_4445
 ------------
 Symbolic Z-matrix:
 Charge =  0 Multiplicity = 1
 O                     0.       -0.00983   0. 
 H                    -0.79957  -0.58097   0. 
 H                     0.79957  -0.58097   0. 
 O                    -4.5428   -3.24067   0. 
 H                    -5.30141  -2.61616   0. 
 H                    -4.88753  -4.16082   0. 
 
 ITRead=  0  0  0  0  0  0
 MicOpt= -1 -1 -1 -1 -1 -1
 NAtoms=      6 NQM=        6 NQMF=       0 NMMI=      0 NMMIF=      0
                NMic=       0 NMicF=      0.
                    Isotopes and Nuclear Properties:
 (Nuclear quadrupole moments (NQMom) in fm**2, nuclear magnetic moments (NMagM)
  in nuclear magnetons)

  Atom         1           2           3           4           5           6
 IAtWgt=          16           1           1          16           1           1
 AtmWgt=  15.9949146   1.0078250   1.0078250  15.9949146   1.0078250   1.0078250
 NucSpn=           0           1           1           0           1           1
 AtZEff=  -0.0000000  -0.0000000  -0.0000000  -0.0000000  -0.0000000  -0.0000000
 NQMom=    0.0000000   0.0000000   0.0000000   0.0000000   0.0000000   0.0000000
 NMagM=    0.0000000   2.7928460   2.7928460   0.0000000   2.7928460   2.7928460
 AtZNuc=   8.0000000   1.0000000   1.0000000   8.0000000   1.0000000   1.0000000
 Leave Link  101 at Sun Aug 28 02:53:06 2022, MaxMem=   536870912 cpu:               0.7 elap:               0.2
 (Enter /usr/site/hpc/x86_64/glibc-2.17/broadwell/gaussian/g16_a.03/pgi-16.5/g16/l202.exe)
                          Input orientation:                          
 ---------------------------------------------------------------------
 Center     Atomic      Atomic             Coordinates (Angstroms)
 Number     Number       Type             X           Y           Z
 ---------------------------------------------------------------------
      1          8           0        0.000000   -0.009833    0.000000
      2          1           0       -0.799571   -0.580965    0.000000
      3          1           0        0.799571   -0.580965    0.000000
      4          8           0       -4.542798   -3.240671    0.000000
      5          1           0       -5.301413   -2.616164    0.000000
      6          1           0       -4.887525   -4.160817    0.000000
 ---------------------------------------------------------------------
                    Distance matrix (angstroms):
                    1          2          3          4          5
     1  O    0.000000
     2  H    0.982601   0.000000
     3  H    0.982601   1.599142   0.000000
     4  O    5.574525   4.591926   5.967826   0.000000
     5  H    5.907448   4.940508   6.431488   0.982602   0.000000
     6  H    6.412376   5.433848   6.720000   0.982601   1.599142
                    6
     6  H    0.000000
 Stoichiometry    H4O2
 Framework group  CS[SG(H4O2)]
 Deg. of freedom     9
 Full point group                 CS      NOp   2
 Largest Abelian subgroup         CS      NOp   2
 Largest concise Abelian subgroup C1      NOp   1
                         Standard orientation:                         
 ---------------------------------------------------------------------
 Center     Atomic      Atomic             Coordinates (Angstroms)
 Number     Number       Type             X           Y           Z
 ---------------------------------------------------------------------
      1          8           0        0.026616    2.873888    0.000000
      2          1           0        0.024597    1.891288    0.000000
      3          1           0       -0.902221    3.194463    0.000000
      4          8           0        0.026616   -2.700637   -0.000000
      5          1           0        0.975211   -2.956902   -0.000000
      6          1           0       -0.523437   -3.514853   -0.000000
 ---------------------------------------------------------------------
 Rotational constants (GHZ):         250.1066892           1.7800311           1.7674520
 Leave Link  202 at Sun Aug 28 02:53:06 2022, MaxMem=   536870912 cpu:               0.0 elap:               0.0
 (Enter /usr/site/hpc/x86_64/glibc-2.17/broadwell/gaussian/g16_a.03/pgi-16.5/g16/l301.exe)
 Standard basis: CC-pVTZ (5D, 7F)
 Ernie: Thresh=  0.10000D-02 Tol=  0.10000D-05 Strict=F.
 Ernie:  6 primitive shells out of 84 were deleted.
 There are    92 symmetry adapted cartesian basis functions of A'  symmetry.
 There are    38 symmetry adapted cartesian basis functions of A"  symmetry.
 There are    80 symmetry adapted basis functions of A'  symmetry.
 There are    36 symmetry adapted basis functions of A"  symmetry.
   116 basis functions,   172 primitive gaussians,   130 cartesian basis functions
    10 alpha electrons       10 beta electrons
       nuclear repulsion energy        27.3443524902 Hartrees.
 IExCor=    0 DFT=F Ex=HF Corr=None ExCW=0 ScaHFX=  1.000000
 ScaDFX=  1.000000  1.000000  1.000000  1.000000 ScalE2=  1.000000  1.000000
 IRadAn=      5 IRanWt=     -1 IRanGd=            0 ICorTp=0 IEmpDi=  4
 NAtoms=    6 NActive=    6 NUniq=    6 SFac= 1.00D+00 NAtFMM=   60 NAOKFM=F Big=F
 Integral buffers will be    131072 words long.
 Raffenetti 1 integral format.
 Two-electron integral symmetry is turned on.
 Leave Link  301 at Sun Aug 28 02:53:06 2022, MaxMem=   536870912 cpu:               0.2 elap:               0.0
 (Enter /usr/site/hpc/x86_64/glibc-2.17/broadwell/gaussian/g16_a.03/pgi-16.5/g16/l302.exe)
 NPDir=0 NMtPBC=     1 NCelOv=     1 NCel=       1 NClECP=     1 NCelD=      1
         NCelK=      1 NCelE2=     1 NClLst=     1 CellRange=     0.0.
 One-electron integrals computed using PRISM.
 One-electron integral symmetry used in STVInt
 NBasis=   116 RedAO= T EigKep=  2.66D-03  NBF=    80    36
 NBsUse=   116 1.00D-06 EigRej= -1.00D+00 NBFU=    80    36
 Leave Link  302 at Sun Aug 28 02:53:06 2022, MaxMem=   536870912 cpu:               0.5 elap:               0.1
 (Enter /usr/site/hpc/x86_64/glibc-2.17/broadwell/gaussian/g16_a.03/pgi-16.5/g16/l303.exe)
 DipDrv:  MaxL=1.
 Leave Link  303 at Sun Aug 28 02:53:06 2022, MaxMem=   536870912 cpu:               0.1 elap:               0.0
 (Enter /usr/site/hpc/x86_64/glibc-2.17/broadwell/gaussian/g16_a.03/pgi-16.5/g16/l401.exe)
 ExpMin= 1.03D-01 ExpMax= 1.53D+04 ExpMxC= 5.22D+02 IAcc=3 IRadAn=         5 AccDes= 0.00D+00
 Harris functional with IExCor=  205 and IRadAn=       5 diagonalized for initial guess.
 HarFok:  IExCor=  205 AccDes= 0.00D+00 IRadAn=         5 IDoV= 1 UseB2=F ITyADJ=14
 ICtDFT=  3500011 ScaDFX=  1.000000  1.000000  1.000000  1.000000
 FoFCou: FMM=F IPFlag=           0 FMFlag=      100000 FMFlg1=           0
         NFxFlg=           0 DoJE=T BraDBF=F KetDBF=T FulRan=T
         wScrn=  0.000000 ICntrl=       500 IOpCl=  0 I1Cent=   200000004 NGrid=           0
         NMat0=    1 NMatS0=      1 NMatT0=    0 NMatD0=    1 NMtDS0=    0 NMtDT0=    0
 Petite list used in FoFCou.
 Harris En= -152.298688886344    
 JPrj=0 DoOrth=F DoCkMO=F.
 Initial guess orbital symmetries:
       Occupied  (A') (A') (A') (A') (A') (A') (A') (A') (A") (A")
       Virtual   (A') (A') (A') (A') (A') (A') (A') (A') (A') (A')
                 (A") (A") (A') (A') (A') (A') (A") (A") (A") (A")
                 (A') (A') (A') (A') (A') (A') (A') (A') (A") (A")
                 (A") (A") (A') (A') (A') (A') (A') (A') (A') (A')
                 (A') (A') (A") (A") (A') (A') (A") (A") (A") (A")
                 (A') (A') (A') (A') (A') (A') (A") (A") (A') (A')
                 (A') (A') (A") (A") (A") (A") (A') (A') (A') (A')
                 (A") (A") (A') (A') (A') (A') (A') (A') (A') (A')
                 (A") (A") (A') (A') (A") (A") (A") (A") (A') (A')
                 (A") (A") (A') (A') (A') (A') (A") (A") (A') (A')
                 (A') (A') (A') (A') (A') (A')
 The electronic state of the initial guess is 1-A'.
 Leave Link  401 at Sun Aug 28 02:53:06 2022, MaxMem=   536870912 cpu:               0.8 elap:               0.2
 (Enter /usr/site/hpc/x86_64/glibc-2.17/broadwell/gaussian/g16_a.03/pgi-16.5/g16/l502.exe)
 Keep R1 ints in memory in symmetry-blocked form, NReq=34823457.
 FoFCou: FMM=F IPFlag=           0 FMFlag=           0 FMFlg1=           0
         NFxFlg=           0 DoJE=F BraDBF=F KetDBF=F FulRan=T
         wScrn=  0.000000 ICntrl=       600 IOpCl=  0 I1Cent=           0 NGrid=           0
         NMat0=    1 NMatS0=   6786 NMatT0=    0 NMatD0=    1 NMtDS0=    0 NMtDT0=    0
 Petite list used in FoFCou.
 Closed shell SCF:
 Using DIIS extrapolation, IDIIS=  1040.
 NGot=   536870912 LenX=   525040673 LenY=   525023332
 Requested convergence on RMS density matrix=1.00D-08 within 128 cycles.
 Requested convergence on MAX density matrix=1.00D-06.
 Requested convergence on             energy=1.00D-06.
 No special actions if energy rises.

 Cycle   1  Pass 1  IDiag  1:
 E= -151.929087542553    
 DIIS: error= 6.60D-02 at cycle   1 NSaved=   1.
 NSaved= 1 IEnMin= 1 EnMin= -151.929087542553     IErMin= 1 ErrMin= 6.60D-02
 ErrMax= 6.60D-02  0.00D+00 EMaxC= 1.00D-01 BMatC= 3.99D-01 BMatP= 3.99D-01
 IDIUse=3 WtCom= 3.40D-01 WtEn= 6.60D-01
 Coeff-Com:  0.100D+01
 Coeff-En:   0.100D+01
 Coeff:      0.100D+01
 Gap=     0.514 Goal=   None    Shift=    0.000
 GapD=    0.514 DampG=2.000 DampE=0.500 DampFc=1.0000 IDamp=-1.
 RMSDP=2.50D-03 MaxDP=6.69D-02              OVMax= 1.26D-01

 Cycle   2  Pass 1  IDiag  1:
 E= -152.040528606980     Delta-E=       -0.111441064426 Rises=F Damp=F
 DIIS: error= 4.14D-02 at cycle   2 NSaved=   2.
 NSaved= 2 IEnMin= 2 EnMin= -152.040528606980     IErMin= 2 ErrMin= 4.14D-02
 ErrMax= 4.14D-02  0.00D+00 EMaxC= 1.00D-01 BMatC= 1.12D-01 BMatP= 3.99D-01
 IDIUse=3 WtCom= 5.86D-01 WtEn= 4.14D-01
 Coeff-Com:  0.319D+00 0.681D+00
 Coeff-En:   0.165D+00 0.835D+00
 Coeff:      0.255D+00 0.745D+00
 Gap=     0.651 Goal=   None    Shift=    0.000
 RMSDP=1.32D-03 MaxDP=3.97D-02 DE=-1.11D-01 OVMax= 5.70D-02

 Cycle   3  Pass 1  IDiag  1:
 E= -152.104751499494     Delta-E=       -0.064222892515 Rises=F Damp=F
 DIIS: error= 8.97D-03 at cycle   3 NSaved=   3.
 NSaved= 3 IEnMin= 3 EnMin= -152.104751499494     IErMin= 3 ErrMin= 8.97D-03
 ErrMax= 8.97D-03  0.00D+00 EMaxC= 1.00D-01 BMatC= 5.95D-03 BMatP= 1.12D-01
 IDIUse=3 WtCom= 9.10D-01 WtEn= 8.97D-02
 Coeff-Com: -0.303D-01 0.156D+00 0.874D+00
 Coeff-En:   0.000D+00 0.000D+00 0.100D+01
 Coeff:     -0.276D-01 0.142D+00 0.886D+00
 Gap=     0.623 Goal=   None    Shift=    0.000
 RMSDP=2.42D-04 MaxDP=5.74D-03 DE=-6.42D-02 OVMax= 1.33D-02

 Cycle   4  Pass 1  IDiag  1:
 E= -152.108455335555     Delta-E=       -0.003703836061 Rises=F Damp=F
 DIIS: error= 8.51D-04 at cycle   4 NSaved=   4.
 NSaved= 4 IEnMin= 4 EnMin= -152.108455335555     IErMin= 4 ErrMin= 8.51D-04
 ErrMax= 8.51D-04  0.00D+00 EMaxC= 1.00D-01 BMatC= 3.69D-05 BMatP= 5.95D-03
 IDIUse=3 WtCom= 9.91D-01 WtEn= 8.51D-03
 Coeff-Com:  0.679D-02-0.612D-01-0.239D+00 0.129D+01
 Coeff-En:   0.000D+00 0.000D+00 0.000D+00 0.100D+01
 Coeff:      0.673D-02-0.607D-01-0.237D+00 0.129D+01
 Gap=     0.626 Goal=   None    Shift=    0.000
 RMSDP=5.15D-05 MaxDP=1.03D-03 DE=-3.70D-03 OVMax= 2.20D-03

 Cycle   5  Pass 1  IDiag  1:
 E= -152.108504713617     Delta-E=       -0.000049378061 Rises=F Damp=F
 DIIS: error= 1.93D-04 at cycle   5 NSaved=   5.
 NSaved= 5 IEnMin= 5 EnMin= -152.108504713617     IErMin= 5 ErrMin= 1.93D-04
 ErrMax= 1.93D-04  0.00D+00 EMaxC= 1.00D-01 BMatC= 1.34D-06 BMatP= 3.69D-05
 IDIUse=3 WtCom= 9.98D-01 WtEn= 1.93D-03
 Coeff-Com:  0.512D-03 0.677D-03-0.204D-02-0.226D+00 0.123D+01
 Coeff-En:   0.000D+00 0.000D+00 0.000D+00 0.000D+00 0.100D+01
 Coeff:      0.511D-03 0.675D-03-0.204D-02-0.226D+00 0.123D+01
 Gap=     0.627 Goal=   None    Shift=    0.000
 RMSDP=1.43D-05 MaxDP=2.92D-04 DE=-4.94D-05 OVMax= 6.84D-04

 Cycle   6  Pass 1  IDiag  1:
 E= -152.108507509807     Delta-E=       -0.000002796190 Rises=F Damp=F
 DIIS: error= 2.75D-05 at cycle   6 NSaved=   6.
 NSaved= 6 IEnMin= 6 EnMin= -152.108507509807     IErMin= 6 ErrMin= 2.75D-05
 ErrMax= 2.75D-05  0.00D+00 EMaxC= 1.00D-01 BMatC= 3.23D-08 BMatP= 1.34D-06
 IDIUse=1 WtCom= 1.00D+00 WtEn= 0.00D+00
 Coeff-Com: -0.262D-03 0.150D-02 0.644D-02 0.284D-02-0.259D+00 0.125D+01
 Coeff:     -0.262D-03 0.150D-02 0.644D-02 0.284D-02-0.259D+00 0.125D+01
 Gap=     0.627 Goal=   None    Shift=    0.000
 RMSDP=2.97D-06 MaxDP=6.52D-05 DE=-2.80D-06 OVMax= 1.52D-04

 Cycle   7  Pass 1  IDiag  1:
 E= -152.108507601716     Delta-E=       -0.000000091909 Rises=F Damp=F
 DIIS: error= 5.34D-06 at cycle   7 NSaved=   7.
 NSaved= 7 IEnMin= 7 EnMin= -152.108507601716     IErMin= 7 ErrMin= 5.34D-06
 ErrMax= 5.34D-06  0.00D+00 EMaxC= 1.00D-01 BMatC= 1.85D-09 BMatP= 3.23D-08
 IDIUse=1 WtCom= 1.00D+00 WtEn= 0.00D+00
 Coeff-Com:  0.119D-04-0.278D-03-0.107D-02 0.133D-01-0.302D-01-0.139D+00
 Coeff-Com:  0.116D+01
 Coeff:      0.119D-04-0.278D-03-0.107D-02 0.133D-01-0.302D-01-0.139D+00
 Coeff:      0.116D+01
 Gap=     0.627 Goal=   None    Shift=    0.000
 RMSDP=4.20D-07 MaxDP=1.02D-05 DE=-9.19D-08 OVMax= 3.03D-05

 Cycle   8  Pass 1  IDiag  1:
 E= -152.108507605301     Delta-E=       -0.000000003585 Rises=F Damp=F
 DIIS: error= 1.54D-06 at cycle   8 NSaved=   8.
 NSaved= 8 IEnMin= 8 EnMin= -152.108507605301     IErMin= 8 ErrMin= 1.54D-06
 ErrMax= 1.54D-06  0.00D+00 EMaxC= 1.00D-01 BMatC= 2.29D-10 BMatP= 1.85D-09
 IDIUse=1 WtCom= 1.00D+00 WtEn= 0.00D+00
 Coeff-Com:  0.208D-04-0.154D-03-0.621D-03 0.180D-02 0.143D-01-0.111D+00
 Coeff-Com:  0.190D+00 0.906D+00
 Coeff:      0.208D-04-0.154D-03-0.621D-03 0.180D-02 0.143D-01-0.111D+00
 Coeff:      0.190D+00 0.906D+00
 Gap=     0.627 Goal=   None    Shift=    0.000
 RMSDP=1.01D-07 MaxDP=2.58D-06 DE=-3.58D-09 OVMax= 7.50D-06

 Cycle   9  Pass 1  IDiag  1:
 E= -152.108507605607     Delta-E=       -0.000000000306 Rises=F Damp=F
 DIIS: error= 7.44D-07 at cycle   9 NSaved=   9.
 NSaved= 9 IEnMin= 9 EnMin= -152.108507605607     IErMin= 9 ErrMin= 7.44D-07
 ErrMax= 7.44D-07  0.00D+00 EMaxC= 1.00D-01 BMatC= 2.89D-11 BMatP= 2.29D-10
 IDIUse=1 WtCom= 1.00D+00 WtEn= 0.00D+00
 Coeff-Com:  0.737D-06 0.309D-04 0.127D-03-0.243D-02 0.844D-02 0.811D-02
 Coeff-Com: -0.174D+00 0.118D+00 0.104D+01
 Coeff:      0.737D-06 0.309D-04 0.127D-03-0.243D-02 0.844D-02 0.811D-02
 Coeff:     -0.174D+00 0.118D+00 0.104D+01
 Gap=     0.627 Goal=   None    Shift=    0.000
 RMSDP=4.63D-08 MaxDP=9.81D-07 DE=-3.06D-10 OVMax= 2.79D-06

 Cycle  10  Pass 1  IDiag  1:
 E= -152.108507605650     Delta-E=       -0.000000000043 Rises=F Damp=F
 DIIS: error= 9.89D-08 at cycle  10 NSaved=  10.
 NSaved=10 IEnMin=10 EnMin= -152.108507605650     IErMin=10 ErrMin= 9.89D-08
 ErrMax= 9.89D-08  0.00D+00 EMaxC= 1.00D-01 BMatC= 4.26D-13 BMatP= 2.89D-11
 IDIUse=1 WtCom= 1.00D+00 WtEn= 0.00D+00
 Coeff-Com: -0.575D-06-0.449D-05-0.210D-04 0.558D-03-0.205D-02-0.153D-02
 Coeff-Com:  0.475D-01-0.551D-01-0.315D+00 0.133D+01
 Coeff:     -0.575D-06-0.449D-05-0.210D-04 0.558D-03-0.205D-02-0.153D-02
 Coeff:      0.475D-01-0.551D-01-0.315D+00 0.133D+01
 Gap=     0.627 Goal=   None    Shift=    0.000
 RMSDP=7.12D-09 MaxDP=1.97D-07 DE=-4.26D-11 OVMax= 4.14D-07

 SCF Done:  E(RHF) =  -152.108507606     A.U. after   10 cycles
            NFock= 10  Conv=0.71D-08     -V/T= 2.0020
 KE= 1.518030815849D+02 PE=-4.161030526815D+02 EE= 8.484711100075D+01
 Leave Link  502 at Sun Aug 28 02:53:08 2022, MaxMem=   536870912 cpu:               4.0 elap:               1.1
 (Enter /usr/site/hpc/x86_64/glibc-2.17/broadwell/gaussian/g16_a.03/pgi-16.5/g16/l801.exe)
 Windowed orbitals will be sorted by symmetry type.
 ExpMin= 1.03D-01 ExpMax= 1.53D+04 ExpMxC= 5.22D+02 IAcc=3 IRadAn=         5 AccDes= 0.00D+00
 HarFok:  IExCor=  205 AccDes= 0.00D+00 IRadAn=         5 IDoV=-2 UseB2=F ITyADJ=14
 ICtDFT= 12500011 ScaDFX=  1.000000  1.000000  1.000000  1.000000
 Largest valence mixing into a core orbital is  1.12D-04
 Largest core mixing into a valence orbital is  1.76D-05
 Range of M.O.s used for correlation:     3   116
 NBasis=   116 NAE=    10 NBE=    10 NFC=     2 NFV=     0
 NROrb=    114 NOA=     8 NOB=     8 NVA=   106 NVB=   106
 Leave Link  801 at Sun Aug 28 02:53:08 2022, MaxMem=   536870912 cpu:               0.3 elap:               0.1
 (Enter /usr/site/hpc/x86_64/glibc-2.17/broadwell/gaussian/g16_a.03/pgi-16.5/g16/l804.exe)
 Closed-shell transformation, MDV=   536870912 ITran=4 ISComp=2.
 Unit  1 TFree=        834515 TCopy=        406125.
 Semi-Direct transformation.
 ModeAB=           4 MOrb=             8 LenV=     536377779
 LASXX=      2873146 LTotXX=     2873146 LenRXX=     5831278
 LTotAB=     2958132 MaxLAS=     5318784 LenRXY=           0
 NonZer=     8704424 LenScr=    13107200 LnRSAI=     5318784
 LnScr1=     8388608 LExtra=           0 Total=     32645870
 MaxDsk=          -1 SrtSym=           T ITran=            4
 DoSDTr:  NPSUse=  4
 JobTyp=0 Pass  1:  I=   1 to   8.
 (rs|ai) integrals will be sorted in core.
 Complete sort for first half transformation.
 First half transformation complete.
 Complete sort for second half transformation.
 Second half transformation complete.
 Spin components of T(2) and E(2):
     alpha-alpha T2 =       0.1555092789D-01 E2=     -0.6379582189D-01
     alpha-beta  T2 =       0.9183786079D-01 E2=     -0.3982079277D+00
     beta-beta   T2 =       0.1555092789D-01 E2=     -0.6379582189D-01
 ANorm=    0.1059688500D+01
 E2 =    -0.5257995715D+00 EUMP2 =    -0.15263430717715D+03
 Leave Link  804 at Sun Aug 28 02:53:08 2022, MaxMem=   536870912 cpu:               3.0 elap:               0.7
 (Enter /usr/site/hpc/x86_64/glibc-2.17/broadwell/gaussian/g16_a.03/pgi-16.5/g16/l913.exe)
 CIDS:  MDV=   536870912.
 Frozen-core window:  NFC=   2 NFV=   0.
 IFCWin=0 IBDFC=1 NFBD=     0     0 NFCmp=     0     0 NFFFC=     0     0
 Using DD3R+UMP44R for 1st iteration.
 Using DD4RQ for 2nd and later iterations.
 Keep R2 and R3 ints in memory in symmetry-blocked form, NReq=35357534.
 FoFCou: FMM=F IPFlag=           0 FMFlag=           0 FMFlg1=           0
         NFxFlg=           0 DoJE=F BraDBF=F KetDBF=F FulRan=T
         wScrn=  0.000000 ICntrl=       600 IOpCl=  0 I1Cent=           0 NGrid=           0
         NMat0=    1 NMatS0=   6786 NMatT0=    0 NMatD0=    1 NMtDS0=    0 NMtDT0=    0
 Petite list used in FoFCou.
 CIDS: In Core Option IDoMem=           1.
 CCSD(T)
 =======
 Iterations=  50 Convergence= 0.100D-06
 Produce multiple copies of IABC intergrals
 Iteration Nr.   1
 **********************
 DD1Dir will call FoFMem   1 times, MxPair=        72
 NAB=    36 NAA=     0 NBB=     0.
 MP4(R+Q)=  0.75433559D-02
 Maximum subspace dimension=  5
 A-vector RMS=  1.7369078D-03 Max=  6.1757539D-03 conv= 1.00D-05.
 RLE energy=       -0.5257571142
 E3=       -0.75716608D-02        EUMP3=      -0.15264187884D+03
 E4(DQ)=   -0.15489056D-02        UMP4(DQ)=   -0.15264342774D+03
 E4(SDQ)=  -0.45951589D-02        UMP4(SDQ)=  -0.15264647400D+03
 VARIATIONAL ENERGIES WITH THE FIRST-ORDER WAVEFUNCTION:
 DE(Corr)= -0.52575712     E(Corr)=     -152.63426473    
 NORM(A)=   0.10600568D+01
 Iteration Nr.   2
 **********************
 DD1Dir will call FoFMem   1 times, MxPair=        72
 NAB=    36 NAA=     0 NBB=     0.
 A-vector RMS=  2.1260391D-04 Max=  2.3190703D-03 conv= 1.00D-05.
 RLE energy=       -0.5367997845
 DE(Corr)= -0.53564007     E(CORR)=     -152.64414767     Delta=-9.88D-03
 NORM(A)=   0.10637953D+01
 Iteration Nr.   3
 **********************
 DD1Dir will call FoFMem   1 times, MxPair=        72
 NAB=    36 NAA=     0 NBB=     0.
 A-vector RMS=  1.3997519D-04 Max=  8.5023413D-04 conv= 1.00D-05.
 RLE energy=       -0.5372943087
 DE(Corr)= -0.53671034     E(CORR)=     -152.64521794     Delta=-1.07D-03
 NORM(A)=   0.10644309D+01
 Iteration Nr.   4
 **********************
 DD1Dir will call FoFMem   1 times, MxPair=        72
 NAB=    36 NAA=     0 NBB=     0.
 A-vector RMS=  2.5805908D-05 Max=  1.3904264D-04 conv= 1.00D-05.
 RLE energy=       -0.5373774053
 DE(Corr)= -0.53734218     E(CORR)=     -152.64584978     Delta=-6.32D-04
 NORM(A)=   0.10645409D+01
 Iteration Nr.   5
 **********************
 DD1Dir will call FoFMem   1 times, MxPair=        72
 NAB=    36 NAA=     0 NBB=     0.
 A-vector RMS=  1.8503815D-05 Max=  1.5796198D-04 conv= 1.00D-05.
 RLE energy=       -0.5373855857
 DE(Corr)= -0.53737891     E(CORR)=     -152.64588651     Delta=-3.67D-05
 NORM(A)=   0.10645501D+01
 Iteration Nr.   6
 **********************
 DD1Dir will call FoFMem   1 times, MxPair=        72
 NAB=    36 NAA=     0 NBB=     0.
 A-vector RMS=  5.4985789D-06 Max=  4.3283187D-05 conv= 1.00D-05.
 RLE energy=       -0.5373765528
 DE(Corr)= -0.53738205     E(CORR)=     -152.64588966     Delta=-3.15D-06
 NORM(A)=   0.10645502D+01
 Iteration Nr.   7
 **********************
 DD1Dir will call FoFMem   1 times, MxPair=        72
 NAB=    36 NAA=     0 NBB=     0.
 A-vector RMS=  2.6372855D-06 Max=  2.2710888D-05 conv= 1.00D-05.
 RLE energy=       -0.5373831739
 DE(Corr)= -0.53738220     E(CORR)=     -152.64588981     Delta=-1.48D-07
 NORM(A)=   0.10645525D+01
 Iteration Nr.   8
 **********************
 DD1Dir will call FoFMem   1 times, MxPair=        72
 NAB=    36 NAA=     0 NBB=     0.
 A-vector RMS=  5.5377245D-07 Max=  4.8211290D-06 conv= 1.00D-05.
 RLE energy=       -0.5373816127
 DE(Corr)= -0.53738178     E(CORR)=     -152.64588938     Delta= 4.24D-07
 NORM(A)=   0.10645527D+01
 Iteration Nr.   9
 **********************
 DD1Dir will call FoFMem   1 times, MxPair=        72
 NAB=    36 NAA=     0 NBB=     0.
 A-vector RMS=  1.4075975D-07 Max=  8.8834907D-07 conv= 1.00D-05.
 RLE energy=       -0.5373820309
 DE(Corr)= -0.53738205     E(CORR)=     -152.64588965     Delta=-2.70D-07
 NORM(A)=   0.10645529D+01
 Iteration Nr.  10
 **********************
 DD1Dir will call FoFMem   1 times, MxPair=        72
 NAB=    36 NAA=     0 NBB=     0.
 A-vector RMS=  5.2472687D-08 Max=  4.2547839D-07 conv= 1.00D-05.
 RLE energy=       -0.5373820663
 DE(Corr)= -0.53738204     E(CORR)=     -152.64588964     Delta= 9.71D-09
 NORM(A)=   0.10645529D+01
 CI/CC converged in   10 iterations to DelEn= 9.71D-09 Conv= 1.00D-07 ErrA1= 5.25D-08 Conv= 1.00D-05
 Wavefunction amplitudes converged. E(Corr)=     -152.64588964    
 Largest amplitude= 4.80D-02
 IPart=  2 IA=    7   11.05% done.
 IPart=  4 IA=   13   21.46% done.
 IPart=  1 IA=   19   31.21% done.
 IPart=  1 IA=   25   40.32% done.
 IPart=  1 IA=   32   50.13% done.
 IPart=  1 IA=   40   60.27% done.
 IPart=  4 IA=   49   70.30% done.
 IPart=  3 IA=   60   80.58% done.
 IPart=  3 IA=   74   90.51% done.
 Time for triples=       48.58 seconds.
 T4(CCSD)= -0.16013828D-01
 T5(CCSD)=  0.40088842D-03
 CCSD(T)= -0.15266150258D+03
 Discarding MO integrals.
 Leave Link  913 at Sun Aug 28 02:53:26 2022, MaxMem=   536870912 cpu:              69.7 elap:              17.5
 (Enter /usr/site/hpc/x86_64/glibc-2.17/broadwell/gaussian/g16_a.03/pgi-16.5/g16/l601.exe)
 Copying SCF densities to generalized density rwf, IOpCl= 0 IROHF=0.

 **********************************************************************

            Population analysis using the SCF density.

 **********************************************************************

 Orbital symmetries:
       Occupied  (A') (A') (A') (A') (A') (A') (A') (A') (A") (A")
       Virtual   (A') (A') (A') (A') (A') (A') (A') (A') (A') (A')
                 (A") (A") (A') (A') (A') (A') (A") (A") (A") (A")
                 (A') (A') (A') (A') (A') (A') (A') (A') (A") (A")
                 (A") (A") (A') (A') (A') (A') (A') (A') (A') (A')
                 (A') (A') (A") (A") (A') (A') (A") (A") (A') (A')
                 (A") (A") (A') (A') (A') (A') (A") (A") (A") (A")
                 (A') (A') (A') (A') (A") (A") (A') (A') (A') (A')
                 (A") (A") (A') (A') (A') (A') (A') (A') (A') (A')
                 (A") (A") (A') (A') (A") (A") (A") (A") (A') (A')
                 (A") (A") (A') (A') (A') (A') (A") (A") (A') (A')
                 (A') (A') (A') (A') (A') (A')
 The electronic state is 1-A'.
 Alpha  occ. eigenvalues --  -20.56190 -20.54974  -1.33492  -1.32282  -0.70897
 Alpha  occ. eigenvalues --   -0.69687  -0.56989  -0.55757  -0.50612  -0.49407
 Alpha virt. eigenvalues --    0.13292   0.14956   0.19600   0.21151   0.53546
 Alpha virt. eigenvalues --    0.54901   0.56667   0.57799   0.66808   0.68753
 Alpha virt. eigenvalues --    0.78274   0.79448   0.79490   0.80409   0.82639
 Alpha virt. eigenvalues --    0.83277   0.84229   0.85414   0.96613   0.97811
 Alpha virt. eigenvalues --    1.13953   1.15427   1.16690   1.17731   1.51085
 Alpha virt. eigenvalues --    1.51363   1.52326   1.52729   1.99996   2.01206
 Alpha virt. eigenvalues --    2.06071   2.07275   2.08709   2.09991   2.14209
 Alpha virt. eigenvalues --    2.15405   2.24436   2.25654   2.60850   2.62146
 Alpha virt. eigenvalues --    2.92174   2.93636   3.38729   3.39935   3.49289
 Alpha virt. eigenvalues --    3.50494   3.52494   3.53699   3.58870   3.60102
 Alpha virt. eigenvalues --    3.78004   3.79213   3.84779   3.85984   3.87038
 Alpha virt. eigenvalues --    3.88208   3.92942   3.94143   4.02393   4.03602
 Alpha virt. eigenvalues --    4.07542   4.08810   4.14619   4.15876   4.29466
 Alpha virt. eigenvalues --    4.30682   4.39245   4.40450   4.44941   4.46156
 Alpha virt. eigenvalues --    4.65862   4.67064   4.80218   4.81518   5.03587
 Alpha virt. eigenvalues --    5.04807   5.23405   5.24627   5.53390   5.54568
 Alpha virt. eigenvalues --    5.97237   5.98454   6.39716   6.40935   6.85496
 Alpha virt. eigenvalues --    6.86709   6.88986   6.90195   6.93919   6.95140
 Alpha virt. eigenvalues --    6.98427   6.99643   7.07217   7.08416   7.11883
 Alpha virt. eigenvalues --    7.13017   7.17596   7.18811   7.46496   7.47736
 Alpha virt. eigenvalues --    7.69630   7.70847   8.14398   8.15637  12.48530
 Alpha virt. eigenvalues --   12.50024
          Condensed to atoms (all electrons):
               1          2          3          4          5          6
     1  O    7.822116   0.346364   0.346070  -0.000001   0.000000   0.000000
     2  H    0.346364   0.430014  -0.036645   0.000117  -0.000008  -0.000004
     3  H    0.346070  -0.036645   0.436331  -0.000002   0.000000   0.000000
     4  O   -0.000001   0.000117  -0.000002   7.821525   0.346378   0.347106
     5  H    0.000000  -0.000008   0.000000   0.346378   0.432461  -0.036499
     6  H    0.000000  -0.000004   0.000000   0.347106  -0.036499   0.431797
 Mulliken charges:
               1
     1  O   -0.514549
     2  H    0.260161
     3  H    0.254245
     4  O   -0.515124
     5  H    0.257667
     6  H    0.257599
 Sum of Mulliken charges =  -0.00000
 Mulliken charges with hydrogens summed into heavy atoms:
               1
     1  O   -0.000143
     4  O    0.000143
 Electronic spatial extent (au):  <R**2>=            598.9901
 Charge=             -0.0000 electrons
 Dipole moment (field-independent basis, Debye):
    X=             -0.9135    Y=             -3.0420    Z=             -0.0000  Tot=              3.1761
 Quadrupole moment (field-independent basis, Debye-Ang):
   XX=             -9.2892   YY=             -6.6542   ZZ=            -14.7151
   XY=             -6.8449   XZ=             -0.0000   YZ=              0.0000
 Traceless Quadrupole moment (field-independent basis, Debye-Ang):
   XX=              0.9303   YY=              3.5653   ZZ=             -4.4956
   XY=             -6.8449   XZ=             -0.0000   YZ=              0.0000
 Octapole moment (field-independent basis, Debye-Ang**2):
  XXX=             -0.1542  YYY=            -64.6932  ZZZ=             -0.0000  XYY=            -17.2727
  XXY=             -3.5666  XXZ=             -0.0000  XZZ=             -0.1198  YZZ=             -0.4160
  YYZ=             -0.0000  XYZ=             -0.0000
 Hexadecapole moment (field-independent basis, Debye-Ang**3):
 XXXX=            -10.6993 YYYY=           -455.7389 ZZZZ=            -11.3421 XXXY=             -4.5165
 XXXZ=             -0.0000 YYYX=            -51.8564 YYYZ=             -0.0000 ZZZX=              0.0000
 ZZZY=             -0.0000 XXYY=            -69.0670 XXZZ=             -4.4333 YYZZ=           -119.8097
 XXYZ=             -0.0000 YYXZ=             -0.0000 ZZXY=              1.9108
 N-N= 2.734435249022D+01 E-N=-4.161030514702D+02  KE= 1.518030815849D+02
 Symmetry A'   KE= 1.427678062608D+02
 Symmetry A"   KE= 9.035275324036D+00
 Leave Link  601 at Sun Aug 28 02:53:26 2022, MaxMem=   536870912 cpu:               0.1 elap:               0.0
 (Enter /usr/site/hpc/x86_64/glibc-2.17/broadwell/gaussian/g16_a.03/pgi-16.5/g16/l9999.exe)
 1\1\GINC-N002\SP\RCCSD(T)-FC\CC-pVTZ\H4O2\ROOT\28-Aug-2022\0\\#p CCSD(
 T)/cc-pVTZ\\H2O_H2O_4445\\0,1\O,0,0.,-0.009833,0.\H,0,-0.799571,-0.580
 965,0.\H,0,0.799571,-0.580965,0.\O,0,-4.542798,-3.240671,0.\H,0,-5.301
 413,-2.616164,0.\H,0,-4.887525,-4.160817,0.\\Version=ES64L-G16RevA.03\
 State=1-A'\HF=-152.1085076\MP2=-152.6343072\MP3=-152.6418788\MP4D=-152
 .6509711\MP4DQ=-152.6434277\MP4SDQ=-152.646474\CCSD=-152.6458896\CCSD(
 T)=-152.6615026\RMSD=7.116e-09\PG=CS [SG(H4O2)]\\@


 The number of Unix installations has grown to 10,
  with more expected.
                  -- The Unix Programmer's Manual,
                     2nd Edition, June, 1972.
 Job cpu time:       0 days  0 hours  1 minutes 19.8 seconds.
 Elapsed time:       0 days  0 hours  0 minutes 20.1 seconds.
 File lengths (MBytes):  RWF=    320 Int=      0 D2E=      0 Chk=      8 Scr=      8
 Normal termination of Gaussian 16 at Sun Aug 28 02:53:26 2022.
