 Entering Gaussian System, Link 0=g16
 Input=H2O_H2O_3786.com
 Output=H2O_H2O_3786.log
 Initial command:
 /usr/site/hpc/x86_64/glibc-2.17/broadwell/gaussian/g16_a.03/pgi-16.5/g16/l1.exe "/gpfs/gpfs1/scratch/c7441284/ForceFieldModel/FittingData2/Gau-583181.inp" -scrdir="/gpfs/gpfs1/scratch/c7441284/ForceFieldModel/FittingData2/"
 Entering Link 1 = /usr/site/hpc/x86_64/glibc-2.17/broadwell/gaussian/g16_a.03/pgi-16.5/g16/l1.exe PID=    583182.
  
 Copyright (c) 1988,1990,1992,1993,1995,1998,2003,2009,2016,
            Gaussian, Inc.  All Rights Reserved.
  
 This is part of the Gaussian(R) 16 program.  It is based on
 the Gaussian(R) 09 system (copyright 2009, Gaussian, Inc.),
 the Gaussian(R) 03 system (copyright 2003, Gaussian, Inc.),
 the Gaussian(R) 98 system (copyright 1998, Gaussian, Inc.),
 the Gaussian(R) 94 system (copyright 1995, Gaussian, Inc.),
 the Gaussian 92(TM) system (copyright 1992, Gaussian, Inc.),
 the Gaussian 90(TM) system (copyright 1990, Gaussian, Inc.),
 the Gaussian 88(TM) system (copyright 1988, Gaussian, Inc.),
 the Gaussian 86(TM) system (copyright 1986, Carnegie Mellon
 University), and the Gaussian 82(TM) system (copyright 1983,
 Carnegie Mellon University). Gaussian is a federally registered
 trademark of Gaussian, Inc.
  
 This software contains proprietary and confidential information,
 including trade secrets, belonging to Gaussian, Inc.
  
 This software is provided under written license and may be
 used, copied, transmitted, or stored only in accord with that
 written license.
  
 The following legend is applicable only to US Government
 contracts under FAR:
  
                    RESTRICTED RIGHTS LEGEND
  
 Use, reproduction and disclosure by the US Government is
 subject to restrictions as set forth in subparagraphs (a)
 and (c) of the Commercial Computer Software - Restricted
 Rights clause in FAR 52.227-19.
  
 Gaussian, Inc.
 340 Quinnipiac St., Bldg. 40, Wallingford CT 06492
  
  
 ---------------------------------------------------------------
 Warning -- This program may not be used in any manner that
 competes with the business of Gaussian, Inc. or will provide
 assistance to any competitor of Gaussian, Inc.  The licensee
 of this program is prohibited from giving any competitor of
 Gaussian, Inc. access to this program.  By using this program,
 the user acknowledges that Gaussian, Inc. is engaged in the
 business of creating and licensing software in the field of
 computational chemistry and represents and warrants to the
 licensee that it is not a competitor of Gaussian, Inc. and that
 it will not use this program in any manner prohibited above.
 ---------------------------------------------------------------
  

 Cite this work as:
 Gaussian 16, Revision A.03,
 M. J. Frisch, G. W. Trucks, H. B. Schlegel, G. E. Scuseria, 
 M. A. Robb, J. R. Cheeseman, G. Scalmani, V. Barone, 
 G. A. Petersson, H. Nakatsuji, X. Li, M. Caricato, A. V. Marenich, 
 J. Bloino, B. G. Janesko, R. Gomperts, B. Mennucci, H. P. Hratchian, 
 J. V. Ortiz, A. F. Izmaylov, J. L. Sonnenberg, D. Williams-Young, 
 F. Ding, F. Lipparini, F. Egidi, J. Goings, B. Peng, A. Petrone, 
 T. Henderson, D. Ranasinghe, V. G. Zakrzewski, J. Gao, N. Rega, 
 G. Zheng, W. Liang, M. Hada, M. Ehara, K. Toyota, R. Fukuda, 
 J. Hasegawa, M. Ishida, T. Nakajima, Y. Honda, O. Kitao, H. Nakai, 
 T. Vreven, K. Throssell, J. A. Montgomery, Jr., J. E. Peralta, 
 F. Ogliaro, M. J. Bearpark, J. J. Heyd, E. N. Brothers, K. N. Kudin, 
 V. N. Staroverov, T. A. Keith, R. Kobayashi, J. Normand, 
 K. Raghavachari, A. P. Rendell, J. C. Burant, S. S. Iyengar, 
 J. Tomasi, M. Cossi, J. M. Millam, M. Klene, C. Adamo, R. Cammi, 
 J. W. Ochterski, R. L. Martin, K. Morokuma, O. Farkas, 
 J. B. Foresman, and D. J. Fox, Gaussian, Inc., Wallingford CT, 2016.
 
 ******************************************
 Gaussian 16:  ES64L-G16RevA.03 25-Dec-2016
                26-Aug-2022 
 ******************************************
 %NProcShared=4
 Will use up to    4 processors via shared memory.
 %Mem=4GB
 %Chk=H2O_H2O_3786.chk
 ------------------
 #p CCSD(T)/cc-pVTZ
 ------------------
 1/38=1,172=1/1;
 2/12=2,17=6,18=5,40=1/2;
 3/5=16,6=1,11=9,25=1,30=1/1,2,3;
 4//1;
 5/5=2,38=5/2;
 8/6=4,9=120000,10=1/1,4;
 9/5=7,14=2/13;
 6/7=2,8=2,9=2,10=2/1;
 99/5=1,9=1/99;
 Leave Link    1 at Fri Aug 26 23:39:37 2022, MaxMem=   536870912 cpu:               0.3 elap:               0.1
 (Enter /usr/site/hpc/x86_64/glibc-2.17/broadwell/gaussian/g16_a.03/pgi-16.5/g16/l101.exe)
 ------------
 H2O_H2O_3786
 ------------
 Symbolic Z-matrix:
 Charge =  0 Multiplicity = 1
 O                     0.       -0.00983   0. 
 H                    -0.79957  -0.58097   0. 
 H                     0.79957  -0.58097   0. 
 O                    -4.11783  -2.94412   0. 
 H                    -5.09556  -2.84633   0. 
 H                    -3.89326  -3.90071   0. 
 
 ITRead=  0  0  0  0  0  0
 MicOpt= -1 -1 -1 -1 -1 -1
 NAtoms=      6 NQM=        6 NQMF=       0 NMMI=      0 NMMIF=      0
                NMic=       0 NMicF=      0.
                    Isotopes and Nuclear Properties:
 (Nuclear quadrupole moments (NQMom) in fm**2, nuclear magnetic moments (NMagM)
  in nuclear magnetons)

  Atom         1           2           3           4           5           6
 IAtWgt=          16           1           1          16           1           1
 AtmWgt=  15.9949146   1.0078250   1.0078250  15.9949146   1.0078250   1.0078250
 NucSpn=           0           1           1           0           1           1
 AtZEff=  -0.0000000  -0.0000000  -0.0000000  -0.0000000  -0.0000000  -0.0000000
 NQMom=    0.0000000   0.0000000   0.0000000   0.0000000   0.0000000   0.0000000
 NMagM=    0.0000000   2.7928460   2.7928460   0.0000000   2.7928460   2.7928460
 AtZNuc=   8.0000000   1.0000000   1.0000000   8.0000000   1.0000000   1.0000000
 Leave Link  101 at Fri Aug 26 23:39:37 2022, MaxMem=   536870912 cpu:               0.3 elap:               0.1
 (Enter /usr/site/hpc/x86_64/glibc-2.17/broadwell/gaussian/g16_a.03/pgi-16.5/g16/l202.exe)
                          Input orientation:                          
 ---------------------------------------------------------------------
 Center     Atomic      Atomic             Coordinates (Angstroms)
 Number     Number       Type             X           Y           Z
 ---------------------------------------------------------------------
      1          8           0        0.000000   -0.009833    0.000000
      2          1           0       -0.799571   -0.580965    0.000000
      3          1           0        0.799571   -0.580965    0.000000
      4          8           0       -4.117832   -2.944120    0.000000
      5          1           0       -5.095555   -2.846325    0.000000
      6          1           0       -3.893256   -3.900713    0.000000
 ---------------------------------------------------------------------
                    Distance matrix (angstroms):
                    1          2          3          4          5
     1  O    0.000000
     2  H    0.982601   0.000000
     3  H    0.982601   1.599142   0.000000
     4  O    5.056341   4.073740   5.455763   0.000000
     5  H    5.831841   4.856679   6.315407   0.982602   0.000000
     6  H    5.504216   4.537798   5.748335   0.982601   1.599143
                    6
     6  H    0.000000
 Stoichiometry    H4O2
 Framework group  CS[SG(H4O2)]
 Deg. of freedom     9
 Full point group                 CS      NOp   2
 Largest Abelian subgroup         CS      NOp   2
 Largest concise Abelian subgroup C1      NOp   1
                         Standard orientation:                         
 ---------------------------------------------------------------------
 Center     Atomic      Atomic             Coordinates (Angstroms)
 Number     Number       Type             X           Y           Z
 ---------------------------------------------------------------------
      1          8           0        0.059629    2.616901    0.000000
      2          1           0        0.058511    1.634300    0.000000
      3          1           0       -0.869501    2.936625    0.000000
      4          8           0        0.059629   -2.439440   -0.000000
      5          1           0        0.706663   -3.178935   -0.000000
      6          1           0       -0.849736   -2.811676   -0.000000
 ---------------------------------------------------------------------
 Rotational constants (GHZ):         244.8051994           2.1577059           2.1388541
 Leave Link  202 at Fri Aug 26 23:39:37 2022, MaxMem=   536870912 cpu:               0.1 elap:               0.0
 (Enter /usr/site/hpc/x86_64/glibc-2.17/broadwell/gaussian/g16_a.03/pgi-16.5/g16/l301.exe)
 Standard basis: CC-pVTZ (5D, 7F)
 Ernie: Thresh=  0.10000D-02 Tol=  0.10000D-05 Strict=F.
 Ernie:  6 primitive shells out of 84 were deleted.
 There are    92 symmetry adapted cartesian basis functions of A'  symmetry.
 There are    38 symmetry adapted cartesian basis functions of A"  symmetry.
 There are    80 symmetry adapted basis functions of A'  symmetry.
 There are    36 symmetry adapted basis functions of A"  symmetry.
   116 basis functions,   172 primitive gaussians,   130 cartesian basis functions
    10 alpha electrons       10 beta electrons
       nuclear repulsion energy        28.3049414882 Hartrees.
 IExCor=    0 DFT=F Ex=HF Corr=None ExCW=0 ScaHFX=  1.000000
 ScaDFX=  1.000000  1.000000  1.000000  1.000000 ScalE2=  1.000000  1.000000
 IRadAn=      5 IRanWt=     -1 IRanGd=            0 ICorTp=0 IEmpDi=  4
 NAtoms=    6 NActive=    6 NUniq=    6 SFac= 1.00D+00 NAtFMM=   60 NAOKFM=F Big=F
 Integral buffers will be    131072 words long.
 Raffenetti 1 integral format.
 Two-electron integral symmetry is turned on.
 Leave Link  301 at Fri Aug 26 23:39:38 2022, MaxMem=   536870912 cpu:               0.2 elap:               0.1
 (Enter /usr/site/hpc/x86_64/glibc-2.17/broadwell/gaussian/g16_a.03/pgi-16.5/g16/l302.exe)
 NPDir=0 NMtPBC=     1 NCelOv=     1 NCel=       1 NClECP=     1 NCelD=      1
         NCelK=      1 NCelE2=     1 NClLst=     1 CellRange=     0.0.
 One-electron integrals computed using PRISM.
 One-electron integral symmetry used in STVInt
 NBasis=   116 RedAO= T EigKep=  2.62D-03  NBF=    80    36
 NBsUse=   116 1.00D-06 EigRej= -1.00D+00 NBFU=    80    36
 Leave Link  302 at Fri Aug 26 23:39:38 2022, MaxMem=   536870912 cpu:               0.4 elap:               0.1
 (Enter /usr/site/hpc/x86_64/glibc-2.17/broadwell/gaussian/g16_a.03/pgi-16.5/g16/l303.exe)
 DipDrv:  MaxL=1.
 Leave Link  303 at Fri Aug 26 23:39:38 2022, MaxMem=   536870912 cpu:               0.1 elap:               0.0
 (Enter /usr/site/hpc/x86_64/glibc-2.17/broadwell/gaussian/g16_a.03/pgi-16.5/g16/l401.exe)
 ExpMin= 1.03D-01 ExpMax= 1.53D+04 ExpMxC= 5.22D+02 IAcc=3 IRadAn=         5 AccDes= 0.00D+00
 Harris functional with IExCor=  205 and IRadAn=       5 diagonalized for initial guess.
 HarFok:  IExCor=  205 AccDes= 0.00D+00 IRadAn=         5 IDoV= 1 UseB2=F ITyADJ=14
 ICtDFT=  3500011 ScaDFX=  1.000000  1.000000  1.000000  1.000000
 FoFCou: FMM=F IPFlag=           0 FMFlag=      100000 FMFlg1=           0
         NFxFlg=           0 DoJE=T BraDBF=F KetDBF=T FulRan=T
         wScrn=  0.000000 ICntrl=       500 IOpCl=  0 I1Cent=   200000004 NGrid=           0
         NMat0=    1 NMatS0=      1 NMatT0=    0 NMatD0=    1 NMtDS0=    0 NMtDT0=    0
 Petite list used in FoFCou.
 Harris En= -152.298732549430    
 JPrj=0 DoOrth=F DoCkMO=F.
 Initial guess orbital symmetries:
       Occupied  (A') (A') (A') (A') (A') (A') (A') (A') (A") (A")
       Virtual   (A') (A') (A') (A') (A') (A') (A') (A') (A') (A')
                 (A") (A") (A') (A') (A') (A") (A") (A') (A") (A")
                 (A') (A') (A') (A') (A') (A') (A') (A') (A") (A")
                 (A") (A") (A') (A') (A') (A') (A') (A') (A') (A')
                 (A') (A') (A") (A") (A') (A') (A") (A") (A") (A")
                 (A') (A') (A') (A') (A') (A') (A") (A") (A') (A')
                 (A') (A') (A") (A") (A") (A") (A') (A') (A') (A')
                 (A") (A") (A') (A') (A') (A') (A') (A') (A') (A')
                 (A") (A") (A') (A') (A") (A") (A") (A") (A') (A')
                 (A") (A") (A') (A') (A') (A') (A") (A") (A') (A')
                 (A') (A') (A') (A') (A') (A')
 The electronic state of the initial guess is 1-A'.
 Leave Link  401 at Fri Aug 26 23:39:38 2022, MaxMem=   536870912 cpu:               0.7 elap:               0.2
 (Enter /usr/site/hpc/x86_64/glibc-2.17/broadwell/gaussian/g16_a.03/pgi-16.5/g16/l502.exe)
 Keep R1 ints in memory in symmetry-blocked form, NReq=34823457.
 FoFCou: FMM=F IPFlag=           0 FMFlag=           0 FMFlg1=           0
         NFxFlg=           0 DoJE=F BraDBF=F KetDBF=F FulRan=T
         wScrn=  0.000000 ICntrl=       600 IOpCl=  0 I1Cent=           0 NGrid=           0
         NMat0=    1 NMatS0=   6786 NMatT0=    0 NMatD0=    1 NMtDS0=    0 NMtDT0=    0
 Petite list used in FoFCou.
 Closed shell SCF:
 Using DIIS extrapolation, IDIIS=  1040.
 NGot=   536870912 LenX=   525040673 LenY=   525023332
 Requested convergence on RMS density matrix=1.00D-08 within 128 cycles.
 Requested convergence on MAX density matrix=1.00D-06.
 Requested convergence on             energy=1.00D-06.
 No special actions if energy rises.

 Cycle   1  Pass 1  IDiag  1:
 E= -151.929532705543    
 DIIS: error= 6.59D-02 at cycle   1 NSaved=   1.
 NSaved= 1 IEnMin= 1 EnMin= -151.929532705543     IErMin= 1 ErrMin= 6.59D-02
 ErrMax= 6.59D-02  0.00D+00 EMaxC= 1.00D-01 BMatC= 3.99D-01 BMatP= 3.99D-01
 IDIUse=3 WtCom= 3.41D-01 WtEn= 6.59D-01
 Coeff-Com:  0.100D+01
 Coeff-En:   0.100D+01
 Coeff:      0.100D+01
 Gap=     0.510 Goal=   None    Shift=    0.000
 GapD=    0.510 DampG=2.000 DampE=0.500 DampFc=1.0000 IDamp=-1.
 RMSDP=2.50D-03 MaxDP=6.70D-02              OVMax= 1.26D-01

 Cycle   2  Pass 1  IDiag  1:
 E= -152.040818288792     Delta-E=       -0.111285583248 Rises=F Damp=F
 DIIS: error= 4.14D-02 at cycle   2 NSaved=   2.
 NSaved= 2 IEnMin= 2 EnMin= -152.040818288792     IErMin= 2 ErrMin= 4.14D-02
 ErrMax= 4.14D-02  0.00D+00 EMaxC= 1.00D-01 BMatC= 1.12D-01 BMatP= 3.99D-01
 IDIUse=3 WtCom= 5.86D-01 WtEn= 4.14D-01
 Coeff-Com:  0.319D+00 0.681D+00
 Coeff-En:   0.165D+00 0.835D+00
 Coeff:      0.255D+00 0.745D+00
 Gap=     0.646 Goal=   None    Shift=    0.000
 RMSDP=1.33D-03 MaxDP=3.97D-02 DE=-1.11D-01 OVMax= 5.70D-02

 Cycle   3  Pass 1  IDiag  1:
 E= -152.105011752007     Delta-E=       -0.064193463216 Rises=F Damp=F
 DIIS: error= 8.97D-03 at cycle   3 NSaved=   3.
 NSaved= 3 IEnMin= 3 EnMin= -152.105011752007     IErMin= 3 ErrMin= 8.97D-03
 ErrMax= 8.97D-03  0.00D+00 EMaxC= 1.00D-01 BMatC= 5.95D-03 BMatP= 1.12D-01
 IDIUse=3 WtCom= 9.10D-01 WtEn= 8.97D-02
 Coeff-Com: -0.303D-01 0.156D+00 0.874D+00
 Coeff-En:   0.000D+00 0.000D+00 0.100D+01
 Coeff:     -0.276D-01 0.142D+00 0.886D+00
 Gap=     0.618 Goal=   None    Shift=    0.000
 RMSDP=2.43D-04 MaxDP=5.74D-03 DE=-6.42D-02 OVMax= 1.33D-02

 Cycle   4  Pass 1  IDiag  1:
 E= -152.108713505506     Delta-E=       -0.003701753499 Rises=F Damp=F
 DIIS: error= 8.50D-04 at cycle   4 NSaved=   4.
 NSaved= 4 IEnMin= 4 EnMin= -152.108713505506     IErMin= 4 ErrMin= 8.50D-04
 ErrMax= 8.50D-04  0.00D+00 EMaxC= 1.00D-01 BMatC= 3.68D-05 BMatP= 5.95D-03
 IDIUse=3 WtCom= 9.92D-01 WtEn= 8.50D-03
 Coeff-Com:  0.678D-02-0.611D-01-0.238D+00 0.129D+01
 Coeff-En:   0.000D+00 0.000D+00 0.000D+00 0.100D+01
 Coeff:      0.672D-02-0.606D-01-0.236D+00 0.129D+01
 Gap=     0.620 Goal=   None    Shift=    0.000
 RMSDP=5.17D-05 MaxDP=1.03D-03 DE=-3.70D-03 OVMax= 2.20D-03

 Cycle   5  Pass 1  IDiag  1:
 E= -152.108762752527     Delta-E=       -0.000049247020 Rises=F Damp=F
 DIIS: error= 1.93D-04 at cycle   5 NSaved=   5.
 NSaved= 5 IEnMin= 5 EnMin= -152.108762752527     IErMin= 5 ErrMin= 1.93D-04
 ErrMax= 1.93D-04  0.00D+00 EMaxC= 1.00D-01 BMatC= 1.34D-06 BMatP= 3.68D-05
 IDIUse=3 WtCom= 9.98D-01 WtEn= 1.93D-03
 Coeff-Com:  0.525D-03 0.569D-03-0.248D-02-0.225D+00 0.123D+01
 Coeff-En:   0.000D+00 0.000D+00 0.000D+00 0.000D+00 0.100D+01
 Coeff:      0.524D-03 0.568D-03-0.248D-02-0.224D+00 0.123D+01
 Gap=     0.621 Goal=   None    Shift=    0.000
 RMSDP=1.43D-05 MaxDP=2.98D-04 DE=-4.92D-05 OVMax= 6.87D-04

 Cycle   6  Pass 1  IDiag  1:
 E= -152.108765549279     Delta-E=       -0.000002796752 Rises=F Damp=F
 DIIS: error= 2.76D-05 at cycle   6 NSaved=   6.
 NSaved= 6 IEnMin= 6 EnMin= -152.108765549279     IErMin= 6 ErrMin= 2.76D-05
 ErrMax= 2.76D-05  0.00D+00 EMaxC= 1.00D-01 BMatC= 3.46D-08 BMatP= 1.34D-06
 IDIUse=1 WtCom= 1.00D+00 WtEn= 0.00D+00
 Coeff-Com: -0.244D-03 0.156D-02 0.650D-02-0.743D-02-0.204D+00 0.120D+01
 Coeff:     -0.244D-03 0.156D-02 0.650D-02-0.743D-02-0.204D+00 0.120D+01
 Gap=     0.621 Goal=   None    Shift=    0.000
 RMSDP=2.91D-06 MaxDP=6.87D-05 DE=-2.80D-06 OVMax= 1.54D-04

 Cycle   7  Pass 1  IDiag  1:
 E= -152.108765641248     Delta-E=       -0.000000091969 Rises=F Damp=F
 DIIS: error= 6.18D-06 at cycle   7 NSaved=   7.
 NSaved= 7 IEnMin= 7 EnMin= -152.108765641248     IErMin= 7 ErrMin= 6.18D-06
 ErrMax= 6.18D-06  0.00D+00 EMaxC= 1.00D-01 BMatC= 3.79D-09 BMatP= 3.46D-08
 IDIUse=1 WtCom= 1.00D+00 WtEn= 0.00D+00
 Coeff-Com: -0.628D-04 0.150D-03 0.801D-03 0.141D-01-0.105D+00 0.191D+00
 Coeff-Com:  0.899D+00
 Coeff:     -0.628D-04 0.150D-03 0.801D-03 0.141D-01-0.105D+00 0.191D+00
 Coeff:      0.899D+00
 Gap=     0.621 Goal=   None    Shift=    0.000
 RMSDP=4.50D-07 MaxDP=1.38D-05 DE=-9.20D-08 OVMax= 3.32D-05

 Cycle   8  Pass 1  IDiag  1:
 E= -152.108765646149     Delta-E=       -0.000000004901 Rises=F Damp=F
 DIIS: error= 2.24D-06 at cycle   8 NSaved=   8.
 NSaved= 8 IEnMin= 8 EnMin= -152.108765646149     IErMin= 8 ErrMin= 2.24D-06
 ErrMax= 2.24D-06  0.00D+00 EMaxC= 1.00D-01 BMatC= 4.93D-10 BMatP= 3.79D-09
 IDIUse=1 WtCom= 1.00D+00 WtEn= 0.00D+00
 Coeff-Com:  0.255D-04-0.213D-03-0.861D-03 0.387D-02 0.124D-01-0.139D+00
 Coeff-Com:  0.136D+00 0.988D+00
 Coeff:      0.255D-04-0.213D-03-0.861D-03 0.387D-02 0.124D-01-0.139D+00
 Coeff:      0.136D+00 0.988D+00
 Gap=     0.621 Goal=   None    Shift=    0.000
 RMSDP=1.67D-07 MaxDP=3.91D-06 DE=-4.90D-09 OVMax= 1.26D-05

 Cycle   9  Pass 1  IDiag  1:
 E= -152.108765646891     Delta-E=       -0.000000000742 Rises=F Damp=F
 DIIS: error= 9.00D-07 at cycle   9 NSaved=   9.
 NSaved= 9 IEnMin= 9 EnMin= -152.108765646891     IErMin= 9 ErrMin= 9.00D-07
 ErrMax= 9.00D-07  0.00D+00 EMaxC= 1.00D-01 BMatC= 2.58D-11 BMatP= 4.93D-10
 IDIUse=1 WtCom= 1.00D+00 WtEn= 0.00D+00
 Coeff-Com:  0.832D-06 0.304D-04 0.125D-03-0.245D-02 0.855D-02 0.803D-02
 Coeff-Com: -0.104D+00-0.176D+00 0.127D+01
 Coeff:      0.832D-06 0.304D-04 0.125D-03-0.245D-02 0.855D-02 0.803D-02
 Coeff:     -0.104D+00-0.176D+00 0.127D+01
 Gap=     0.621 Goal=   None    Shift=    0.000
 RMSDP=5.62D-08 MaxDP=1.06D-06 DE=-7.42D-10 OVMax= 3.05D-06

 Cycle  10  Pass 1  IDiag  1:
 E= -152.108765646944     Delta-E=       -0.000000000053 Rises=F Damp=F
 DIIS: error= 1.00D-07 at cycle  10 NSaved=  10.
 NSaved=10 IEnMin=10 EnMin= -152.108765646944     IErMin=10 ErrMin= 1.00D-07
 ErrMax= 1.00D-07  0.00D+00 EMaxC= 1.00D-01 BMatC= 4.24D-13 BMatP= 2.58D-11
 IDIUse=1 WtCom= 1.00D+00 WtEn= 0.00D+00
 Coeff-Com: -0.592D-06-0.386D-05-0.183D-04 0.522D-03-0.196D-02-0.134D-02
 Coeff-Com:  0.269D-01 0.374D-01-0.379D+00 0.132D+01
 Coeff:     -0.592D-06-0.386D-05-0.183D-04 0.522D-03-0.196D-02-0.134D-02
 Coeff:      0.269D-01 0.374D-01-0.379D+00 0.132D+01
 Gap=     0.621 Goal=   None    Shift=    0.000
 RMSDP=7.09D-09 MaxDP=1.89D-07 DE=-5.29D-11 OVMax= 4.10D-07

 SCF Done:  E(RHF) =  -152.108765647     A.U. after   10 cycles
            NFock= 10  Conv=0.71D-08     -V/T= 2.0020
 KE= 1.518022244574D+02 PE=-4.180263306180D+02 EE= 8.581039902545D+01
 Leave Link  502 at Fri Aug 26 23:39:39 2022, MaxMem=   536870912 cpu:               3.6 elap:               1.0
 (Enter /usr/site/hpc/x86_64/glibc-2.17/broadwell/gaussian/g16_a.03/pgi-16.5/g16/l801.exe)
 Windowed orbitals will be sorted by symmetry type.
 ExpMin= 1.03D-01 ExpMax= 1.53D+04 ExpMxC= 5.22D+02 IAcc=3 IRadAn=         5 AccDes= 0.00D+00
 HarFok:  IExCor=  205 AccDes= 0.00D+00 IRadAn=         5 IDoV=-2 UseB2=F ITyADJ=14
 ICtDFT= 12500011 ScaDFX=  1.000000  1.000000  1.000000  1.000000
 Largest valence mixing into a core orbital is  1.12D-04
 Largest core mixing into a valence orbital is  1.76D-05
 Range of M.O.s used for correlation:     3   116
 NBasis=   116 NAE=    10 NBE=    10 NFC=     2 NFV=     0
 NROrb=    114 NOA=     8 NOB=     8 NVA=   106 NVB=   106
 Leave Link  801 at Fri Aug 26 23:39:39 2022, MaxMem=   536870912 cpu:               0.3 elap:               0.1
 (Enter /usr/site/hpc/x86_64/glibc-2.17/broadwell/gaussian/g16_a.03/pgi-16.5/g16/l804.exe)
 Closed-shell transformation, MDV=   536870912 ITran=4 ISComp=2.
 Unit  1 TFree=        834515 TCopy=        406125.
 Semi-Direct transformation.
 ModeAB=           4 MOrb=             8 LenV=     536375960
 LASXX=      2873146 LTotXX=     2873146 LenRXX=     5831278
 LTotAB=     2958132 MaxLAS=     5581440 LenRXY=           0
 NonZer=     8704424 LenScr=    13107200 LnRSAI=     5581440
 LnScr1=     8388608 LExtra=           0 Total=     32908526
 MaxDsk=          -1 SrtSym=           T ITran=            4
 DoSDTr:  NPSUse=  4
 JobTyp=0 Pass  1:  I=   1 to   8.
 (rs|ai) integrals will be sorted in core.
 Complete sort for first half transformation.
 First half transformation complete.
 Complete sort for second half transformation.
 Second half transformation complete.
 Spin components of T(2) and E(2):
     alpha-alpha T2 =       0.1555709343D-01 E2=     -0.6380859282D-01
     alpha-beta  T2 =       0.9185158097D-01 E2=     -0.3982303781D+00
     beta-beta   T2 =       0.1555709343D-01 E2=     -0.6380859282D-01
 ANorm=    0.1059700792D+01
 E2 =    -0.5258475638D+00 EUMP2 =    -0.15263461321074D+03
 Leave Link  804 at Fri Aug 26 23:39:40 2022, MaxMem=   536870912 cpu:               2.9 elap:               0.7
 (Enter /usr/site/hpc/x86_64/glibc-2.17/broadwell/gaussian/g16_a.03/pgi-16.5/g16/l913.exe)
 CIDS:  MDV=   536870912.
 Frozen-core window:  NFC=   2 NFV=   0.
 IFCWin=0 IBDFC=1 NFBD=     0     0 NFCmp=     0     0 NFFFC=     0     0
 Using DD3R+UMP44R for 1st iteration.
 Using DD4RQ for 2nd and later iterations.
 Keep R2 and R3 ints in memory in symmetry-blocked form, NReq=35357534.
 FoFCou: FMM=F IPFlag=           0 FMFlag=           0 FMFlg1=           0
         NFxFlg=           0 DoJE=F BraDBF=F KetDBF=F FulRan=T
         wScrn=  0.000000 ICntrl=       600 IOpCl=  0 I1Cent=           0 NGrid=           0
         NMat0=    1 NMatS0=   6786 NMatT0=    0 NMatD0=    1 NMtDS0=    0 NMtDT0=    0
 Petite list used in FoFCou.
 CIDS: In Core Option IDoMem=           1.
 CCSD(T)
 =======
 Iterations=  50 Convergence= 0.100D-06
 Produce multiple copies of IABC intergrals
 Iteration Nr.   1
 **********************
 DD1Dir will call FoFMem   1 times, MxPair=        72
 NAB=    36 NAA=     0 NBB=     0.
 MP4(R+Q)=  0.75443018D-02
 Maximum subspace dimension=  5
 A-vector RMS=  1.7393659D-03 Max=  6.1829844D-03 conv= 1.00D-05.
 RLE energy=       -0.5257836164
 E3=       -0.75510795D-02        EUMP3=      -0.15264216429D+03
 E4(DQ)=   -0.15493362D-02        UMP4(DQ)=   -0.15264371363D+03
 E4(SDQ)=  -0.45984299D-02        UMP4(SDQ)=  -0.15264676272D+03
 VARIATIONAL ENERGIES WITH THE FIRST-ORDER WAVEFUNCTION:
 DE(Corr)= -0.52578362     E(Corr)=     -152.63454927    
 NORM(A)=   0.10600623D+01
 Iteration Nr.   2
 **********************
 DD1Dir will call FoFMem   1 times, MxPair=        72
 NAB=    36 NAA=     0 NBB=     0.
 A-vector RMS=  2.1280289D-04 Max=  2.3186990D-03 conv= 1.00D-05.
 RLE energy=       -0.5368276983
 DE(Corr)= -0.53566987     E(CORR)=     -152.64443552     Delta=-9.89D-03
 NORM(A)=   0.10638013D+01
 Iteration Nr.   3
 **********************
 DD1Dir will call FoFMem   1 times, MxPair=        72
 NAB=    36 NAA=     0 NBB=     0.
 A-vector RMS=  1.4034108D-04 Max=  8.1236103D-04 conv= 1.00D-05.
 RLE energy=       -0.5373225009
 DE(Corr)= -0.53673827     E(CORR)=     -152.64550392     Delta=-1.07D-03
 NORM(A)=   0.10644366D+01
 Iteration Nr.   4
 **********************
 DD1Dir will call FoFMem   1 times, MxPair=        72
 NAB=    36 NAA=     0 NBB=     0.
 A-vector RMS=  2.6294610D-05 Max=  1.3822030D-04 conv= 1.00D-05.
 RLE energy=       -0.5374053445
 DE(Corr)= -0.53737021     E(CORR)=     -152.64613586     Delta=-6.32D-04
 NORM(A)=   0.10645465D+01
 Iteration Nr.   5
 **********************
 DD1Dir will call FoFMem   1 times, MxPair=        72
 NAB=    36 NAA=     0 NBB=     0.
 A-vector RMS=  1.8508891D-05 Max=  1.4939427D-04 conv= 1.00D-05.
 RLE energy=       -0.5374137484
 DE(Corr)= -0.53740703     E(CORR)=     -152.64617268     Delta=-3.68D-05
 NORM(A)=   0.10645558D+01
 Iteration Nr.   6
 **********************
 DD1Dir will call FoFMem   1 times, MxPair=        72
 NAB=    36 NAA=     0 NBB=     0.
 A-vector RMS=  5.5668185D-06 Max=  4.3945563D-05 conv= 1.00D-05.
 RLE energy=       -0.5374047863
 DE(Corr)= -0.53741020     E(CORR)=     -152.64617584     Delta=-3.16D-06
 NORM(A)=   0.10645559D+01
 Iteration Nr.   7
 **********************
 DD1Dir will call FoFMem   1 times, MxPair=        72
 NAB=    36 NAA=     0 NBB=     0.
 A-vector RMS=  2.6475958D-06 Max=  2.1153591D-05 conv= 1.00D-05.
 RLE energy=       -0.5374111369
 DE(Corr)= -0.53741035     E(CORR)=     -152.64617600     Delta=-1.54D-07
 NORM(A)=   0.10645581D+01
 Iteration Nr.   8
 **********************
 DD1Dir will call FoFMem   1 times, MxPair=        72
 NAB=    36 NAA=     0 NBB=     0.
 A-vector RMS=  6.5078022D-07 Max=  5.6783295D-06 conv= 1.00D-05.
 RLE energy=       -0.5374097526
 DE(Corr)= -0.53740992     E(CORR)=     -152.64617557     Delta= 4.32D-07
 NORM(A)=   0.10645582D+01
 Iteration Nr.   9
 **********************
 DD1Dir will call FoFMem   1 times, MxPair=        72
 NAB=    36 NAA=     0 NBB=     0.
 A-vector RMS=  1.6317019D-07 Max=  1.3787024D-06 conv= 1.00D-05.
 RLE energy=       -0.5374100818
 DE(Corr)= -0.53741015     E(CORR)=     -152.64617579     Delta=-2.26D-07
 NORM(A)=   0.10645585D+01
 Iteration Nr.  10
 **********************
 DD1Dir will call FoFMem   1 times, MxPair=        72
 NAB=    36 NAA=     0 NBB=     0.
 A-vector RMS=  5.9481834D-08 Max=  5.0816297D-07 conv= 1.00D-05.
 RLE energy=       -0.5374101991
 DE(Corr)= -0.53741017     E(CORR)=     -152.64617582     Delta=-2.63D-08
 NORM(A)=   0.10645586D+01
 CI/CC converged in   10 iterations to DelEn=-2.63D-08 Conv= 1.00D-07 ErrA1= 5.95D-08 Conv= 1.00D-05
 Wavefunction amplitudes converged. E(Corr)=     -152.64617582    
 Largest amplitude= 4.80D-02
 IPart=  3 IA=    7   11.05% done.
 IPart=  3 IA=   13   21.46% done.
 IPart=  1 IA=   19   31.21% done.
 IPart=  4 IA=   25   40.32% done.
 IPart=  4 IA=   32   50.13% done.
 IPart=  1 IA=   40   60.27% done.
 IPart=  3 IA=   49   70.30% done.
 IPart=  2 IA=   60   80.58% done.
 IPart=  2 IA=   74   90.51% done.
 Time for triples=       46.72 seconds.
 T4(CCSD)= -0.16020392D-01
 T5(CCSD)=  0.40153101D-03
 CCSD(T)= -0.15266179468D+03
 Discarding MO integrals.
 Leave Link  913 at Fri Aug 26 23:39:57 2022, MaxMem=   536870912 cpu:              67.4 elap:              16.9
 (Enter /usr/site/hpc/x86_64/glibc-2.17/broadwell/gaussian/g16_a.03/pgi-16.5/g16/l601.exe)
 Copying SCF densities to generalized density rwf, IOpCl= 0 IROHF=0.

 **********************************************************************

            Population analysis using the SCF density.

 **********************************************************************

 Orbital symmetries:
       Occupied  (A') (A') (A') (A') (A') (A') (A') (A') (A") (A")
       Virtual   (A') (A') (A') (A') (A') (A') (A') (A') (A') (A')
                 (A") (A') (A") (A') (A') (A") (A") (A') (A") (A")
                 (A') (A') (A') (A') (A') (A') (A') (A') (A") (A")
                 (A") (A") (A') (A') (A') (A') (A') (A') (A') (A')
                 (A') (A') (A") (A") (A') (A') (A") (A") (A') (A')
                 (A") (A") (A') (A') (A') (A') (A") (A") (A") (A")
                 (A') (A') (A') (A') (A") (A") (A') (A') (A') (A')
                 (A") (A") (A') (A') (A') (A') (A') (A') (A') (A')
                 (A") (A") (A') (A') (A") (A") (A") (A") (A') (A')
                 (A") (A") (A') (A') (A') (A') (A") (A") (A') (A')
                 (A') (A') (A') (A') (A') (A')
 The electronic state is 1-A'.
 Alpha  occ. eigenvalues --  -20.56355 -20.54789  -1.33650  -1.32100  -0.71055
 Alpha  occ. eigenvalues --   -0.69495  -0.57154  -0.55574  -0.50770  -0.49225
 Alpha virt. eigenvalues --    0.12889   0.15302   0.19570   0.21487   0.53448
 Alpha virt. eigenvalues --    0.54977   0.56523   0.57902   0.66739   0.69199
 Alpha virt. eigenvalues --    0.78128   0.79075   0.79622   0.79867   0.82909
 Alpha virt. eigenvalues --    0.84093   0.85608   0.85954   0.96469   0.98000
 Alpha virt. eigenvalues --    1.13841   1.15623   1.16918   1.17935   1.50939
 Alpha virt. eigenvalues --    1.51240   1.52516   1.53123   1.99838   2.01391
 Alpha virt. eigenvalues --    2.05916   2.07465   2.08629   2.10163   2.14119
 Alpha virt. eigenvalues --    2.15611   2.24888   2.25926   2.60698   2.62508
 Alpha virt. eigenvalues --    2.92043   2.94199   3.38580   3.40124   3.49141
 Alpha virt. eigenvalues --    3.50694   3.52348   3.53885   3.58724   3.60325
 Alpha virt. eigenvalues --    3.77849   3.79399   3.84639   3.86107   3.87171
 Alpha virt. eigenvalues --    3.88409   3.92795   3.94341   4.02245   4.03800
 Alpha virt. eigenvalues --    4.07389   4.09032   4.14463   4.16126   4.29316
 Alpha virt. eigenvalues --    4.30877   4.39197   4.40664   4.44795   4.46362
 Alpha virt. eigenvalues --    4.65710   4.67253   4.80107   4.81745   5.03489
 Alpha virt. eigenvalues --    5.05028   5.23255   5.24836   5.53247   5.54762
 Alpha virt. eigenvalues --    5.97075   5.98637   6.39557   6.41123   6.85336
 Alpha virt. eigenvalues --    6.86898   6.88828   6.90384   6.93764   6.95349
 Alpha virt. eigenvalues --    6.98263   6.99827   7.07071   7.08607   7.12013
 Alpha virt. eigenvalues --    7.13212   7.17432   7.18999   7.46337   7.48012
 Alpha virt. eigenvalues --    7.69470   7.71049   8.14242   8.15899  12.47848
 Alpha virt. eigenvalues --   12.51255
          Condensed to atoms (all electrons):
               1          2          3          4          5          6
     1  O    7.822874   0.346279   0.345614  -0.000010   0.000001   0.000002
     2  H    0.346279   0.428088  -0.036862   0.000644  -0.000023  -0.000035
     3  H    0.345614  -0.036862   0.439125  -0.000011   0.000000   0.000002
     4  O   -0.000010   0.000644  -0.000011   7.822906   0.346838   0.344566
     5  H    0.000001  -0.000023   0.000000   0.346838   0.429587  -0.035956
     6  H    0.000002  -0.000035   0.000002   0.344566  -0.035956   0.435322
 Mulliken charges:
               1
     1  O   -0.514759
     2  H    0.261909
     3  H    0.252132
     4  O   -0.514934
     5  H    0.259553
     6  H    0.256099
 Sum of Mulliken charges =   0.00000
 Mulliken charges with hydrogens summed into heavy atoms:
               1
     1  O   -0.000718
     4  O    0.000718
 Electronic spatial extent (au):  <R**2>=            500.5520
 Charge=              0.0000 electrons
 Dipole moment (field-independent basis, Debye):
    X=             -2.0401    Y=             -3.1423    Z=             -0.0000  Tot=              3.7465
 Quadrupole moment (field-independent basis, Debye-Ang):
   XX=             -9.3626   YY=             -6.8199   ZZ=            -14.7161
   XY=             -4.5671   XZ=             -0.0000   YZ=              0.0000
 Traceless Quadrupole moment (field-independent basis, Debye-Ang):
   XX=              0.9369   YY=              3.4796   ZZ=             -4.4165
   XY=             -4.5671   XZ=             -0.0000   YZ=              0.0000
 Octapole moment (field-independent basis, Debye-Ang**2):
  XXX=             -2.6251  YYY=            -53.6095  ZZZ=             -0.0000  XYY=            -15.5782
  XXY=             -4.1241  XXZ=             -0.0000  XZZ=             -0.2666  YZZ=             -0.4364
  YYZ=             -0.0000  XYZ=             -0.0000
 Hexadecapole moment (field-independent basis, Debye-Ang**3):
 XXXX=            -11.3237 YYYY=           -386.8385 ZZZZ=            -11.3446 XXXY=             -0.1508
 XXXZ=              0.0000 YYYX=            -53.6767 YYYZ=             -0.0000 ZZZX=              0.0000
 ZZZY=             -0.0000 XXYY=            -55.6430 XXZZ=             -4.4314 YYZZ=            -99.5293
 XXYZ=             -0.0000 YYXZ=             -0.0000 ZZXY=              0.9994
 N-N= 2.830494148817D+01 E-N=-4.180263294599D+02  KE= 1.518022244574D+02
 Symmetry A'   KE= 1.427666619185D+02
 Symmetry A"   KE= 9.035562538882D+00
 Leave Link  601 at Fri Aug 26 23:39:57 2022, MaxMem=   536870912 cpu:               0.1 elap:               0.0
 (Enter /usr/site/hpc/x86_64/glibc-2.17/broadwell/gaussian/g16_a.03/pgi-16.5/g16/l9999.exe)
 1\1\GINC-N004\SP\RCCSD(T)-FC\CC-pVTZ\H4O2\C7441284\26-Aug-2022\0\\#p C
 CSD(T)/cc-pVTZ\\H2O_H2O_3786\\0,1\O,0,0.,-0.009833,0.\H,0,-0.799571,-0
 .580965,0.\H,0,0.799571,-0.580965,0.\O,0,-4.117832,-2.94412,0.\H,0,-5.
 095555,-2.846325,0.\H,0,-3.893256,-3.900713,0.\\Version=ES64L-G16RevA.
 03\State=1-A'\HF=-152.1087656\MP2=-152.6346132\MP3=-152.6421643\MP4D=-
 152.6512579\MP4DQ=-152.6437136\MP4SDQ=-152.6467627\CCSD=-152.6461758\C
 CSD(T)=-152.6617947\RMSD=7.093e-09\PG=CS [SG(H4O2)]\\@


 IF YOU DON'T HAVE THE LAW - ARGUE THE FACTS.
 IF YOU DON'T HAVE THE FACTS - ARGUE THE LAW.
 IF YOU DON'T HAVE EITHER - POUND THE TABLE.
 Job cpu time:       0 days  0 hours  1 minutes 16.4 seconds.
 Elapsed time:       0 days  0 hours  0 minutes 19.4 seconds.
 File lengths (MBytes):  RWF=    320 Int=      0 D2E=      0 Chk=      8 Scr=      8
 Normal termination of Gaussian 16 at Fri Aug 26 23:39:57 2022.
