 Entering Gaussian System, Link 0=g16
 Input=H2O_H2O_1838.com
 Output=H2O_H2O_1838.log
 Initial command:
 /usr/site/hpc/x86_64/glibc-2.17/broadwell/gaussian/g16_a.03/pgi-16.5/g16/l1.exe "/gpfs/gpfs1/scratch/c7441284/ForceFieldModel/FittingData2/Gau-920978.inp" -scrdir="/gpfs/gpfs1/scratch/c7441284/ForceFieldModel/FittingData2/"
 Entering Link 1 = /usr/site/hpc/x86_64/glibc-2.17/broadwell/gaussian/g16_a.03/pgi-16.5/g16/l1.exe PID=    920979.
  
 Copyright (c) 1988,1990,1992,1993,1995,1998,2003,2009,2016,
            Gaussian, Inc.  All Rights Reserved.
  
 This is part of the Gaussian(R) 16 program.  It is based on
 the Gaussian(R) 09 system (copyright 2009, Gaussian, Inc.),
 the Gaussian(R) 03 system (copyright 2003, Gaussian, Inc.),
 the Gaussian(R) 98 system (copyright 1998, Gaussian, Inc.),
 the Gaussian(R) 94 system (copyright 1995, Gaussian, Inc.),
 the Gaussian 92(TM) system (copyright 1992, Gaussian, Inc.),
 the Gaussian 90(TM) system (copyright 1990, Gaussian, Inc.),
 the Gaussian 88(TM) system (copyright 1988, Gaussian, Inc.),
 the Gaussian 86(TM) system (copyright 1986, Carnegie Mellon
 University), and the Gaussian 82(TM) system (copyright 1983,
 Carnegie Mellon University). Gaussian is a federally registered
 trademark of Gaussian, Inc.
  
 This software contains proprietary and confidential information,
 including trade secrets, belonging to Gaussian, Inc.
  
 This software is provided under written license and may be
 used, copied, transmitted, or stored only in accord with that
 written license.
  
 The following legend is applicable only to US Government
 contracts under FAR:
  
                    RESTRICTED RIGHTS LEGEND
  
 Use, reproduction and disclosure by the US Government is
 subject to restrictions as set forth in subparagraphs (a)
 and (c) of the Commercial Computer Software - Restricted
 Rights clause in FAR 52.227-19.
  
 Gaussian, Inc.
 340 Quinnipiac St., Bldg. 40, Wallingford CT 06492
  
  
 ---------------------------------------------------------------
 Warning -- This program may not be used in any manner that
 competes with the business of Gaussian, Inc. or will provide
 assistance to any competitor of Gaussian, Inc.  The licensee
 of this program is prohibited from giving any competitor of
 Gaussian, Inc. access to this program.  By using this program,
 the user acknowledges that Gaussian, Inc. is engaged in the
 business of creating and licensing software in the field of
 computational chemistry and represents and warrants to the
 licensee that it is not a competitor of Gaussian, Inc. and that
 it will not use this program in any manner prohibited above.
 ---------------------------------------------------------------
  

 Cite this work as:
 Gaussian 16, Revision A.03,
 M. J. Frisch, G. W. Trucks, H. B. Schlegel, G. E. Scuseria, 
 M. A. Robb, J. R. Cheeseman, G. Scalmani, V. Barone, 
 G. A. Petersson, H. Nakatsuji, X. Li, M. Caricato, A. V. Marenich, 
 J. Bloino, B. G. Janesko, R. Gomperts, B. Mennucci, H. P. Hratchian, 
 J. V. Ortiz, A. F. Izmaylov, J. L. Sonnenberg, D. Williams-Young, 
 F. Ding, F. Lipparini, F. Egidi, J. Goings, B. Peng, A. Petrone, 
 T. Henderson, D. Ranasinghe, V. G. Zakrzewski, J. Gao, N. Rega, 
 G. Zheng, W. Liang, M. Hada, M. Ehara, K. Toyota, R. Fukuda, 
 J. Hasegawa, M. Ishida, T. Nakajima, Y. Honda, O. Kitao, H. Nakai, 
 T. Vreven, K. Throssell, J. A. Montgomery, Jr., J. E. Peralta, 
 F. Ogliaro, M. J. Bearpark, J. J. Heyd, E. N. Brothers, K. N. Kudin, 
 V. N. Staroverov, T. A. Keith, R. Kobayashi, J. Normand, 
 K. Raghavachari, A. P. Rendell, J. C. Burant, S. S. Iyengar, 
 J. Tomasi, M. Cossi, J. M. Millam, M. Klene, C. Adamo, R. Cammi, 
 J. W. Ochterski, R. L. Martin, K. Morokuma, O. Farkas, 
 J. B. Foresman, and D. J. Fox, Gaussian, Inc., Wallingford CT, 2016.
 
 ******************************************
 Gaussian 16:  ES64L-G16RevA.03 25-Dec-2016
                28-Aug-2022 
 ******************************************
 %NProcShared=4
 Will use up to    4 processors via shared memory.
 %Mem=4GB
 %Chk=H2O_H2O_1838.chk
 ------------------
 #p CCSD(T)/cc-pVTZ
 ------------------
 1/38=1,172=1/1;
 2/12=2,17=6,18=5,40=1/2;
 3/5=16,6=1,11=9,25=1,30=1/1,2,3;
 4//1;
 5/5=2,38=5/2;
 8/6=4,9=120000,10=1/1,4;
 9/5=7,14=2/13;
 6/7=2,8=2,9=2,10=2/1;
 99/5=1,9=1/99;
 Leave Link    1 at Sun Aug 28 02:02:58 2022, MaxMem=   536870912 cpu:               1.3 elap:               0.4
 (Enter /usr/site/hpc/x86_64/glibc-2.17/broadwell/gaussian/g16_a.03/pgi-16.5/g16/l101.exe)
 ------------
 H2O_H2O_1838
 ------------
 Symbolic Z-matrix:
 Charge =  0 Multiplicity = 1
 O                     0.       -0.00983   0. 
 H                    -0.79957  -0.58097   0. 
 H                     0.79957  -0.58097   0. 
 O                    -2.85289  -2.03901   0. 
 H                    -3.80948  -1.81444   0. 
 H                    -2.75509  -3.01674   0. 
 
 ITRead=  0  0  0  0  0  0
 MicOpt= -1 -1 -1 -1 -1 -1
 NAtoms=      6 NQM=        6 NQMF=       0 NMMI=      0 NMMIF=      0
                NMic=       0 NMicF=      0.
                    Isotopes and Nuclear Properties:
 (Nuclear quadrupole moments (NQMom) in fm**2, nuclear magnetic moments (NMagM)
  in nuclear magnetons)

  Atom         1           2           3           4           5           6
 IAtWgt=          16           1           1          16           1           1
 AtmWgt=  15.9949146   1.0078250   1.0078250  15.9949146   1.0078250   1.0078250
 NucSpn=           0           1           1           0           1           1
 AtZEff=  -0.0000000  -0.0000000  -0.0000000  -0.0000000  -0.0000000  -0.0000000
 NQMom=    0.0000000   0.0000000   0.0000000   0.0000000   0.0000000   0.0000000
 NMagM=    0.0000000   2.7928460   2.7928460   0.0000000   2.7928460   2.7928460
 AtZNuc=   8.0000000   1.0000000   1.0000000   8.0000000   1.0000000   1.0000000
 Leave Link  101 at Sun Aug 28 02:02:58 2022, MaxMem=   536870912 cpu:               0.7 elap:               0.2
 (Enter /usr/site/hpc/x86_64/glibc-2.17/broadwell/gaussian/g16_a.03/pgi-16.5/g16/l202.exe)
                          Input orientation:                          
 ---------------------------------------------------------------------
 Center     Atomic      Atomic             Coordinates (Angstroms)
 Number     Number       Type             X           Y           Z
 ---------------------------------------------------------------------
      1          8           0        0.000000   -0.009833    0.000000
      2          1           0       -0.799571   -0.580965    0.000000
      3          1           0        0.799571   -0.580965    0.000000
      4          8           0       -2.852888   -2.039014    0.000000
      5          1           0       -3.809481   -1.814437    0.000000
      6          1           0       -2.755093   -3.016737    0.000000
 ---------------------------------------------------------------------
                    Distance matrix (angstroms):
                    1          2          3          4          5
     1  O    0.000000
     2  H    0.982601   0.000000
     3  H    0.982601   1.599142   0.000000
     4  O    3.500935   2.518336   3.932730   0.000000
     5  H    4.215298   3.252847   4.771249   0.982601   0.000000
     6  H    4.078236   3.123628   4.309132   0.982602   1.599143
                    6
     6  H    0.000000
 Stoichiometry    H4O2
 Framework group  CS[SG(H4O2)]
 Deg. of freedom     9
 Full point group                 CS      NOp   2
 Largest Abelian subgroup         CS      NOp   2
 Largest concise Abelian subgroup C1      NOp   1
                         Standard orientation:                         
 ---------------------------------------------------------------------
 Center     Atomic      Atomic             Coordinates (Angstroms)
 Number     Number       Type             X           Y           Z
 ---------------------------------------------------------------------
      1          8           0        0.052339    1.840389    0.000000
      2          1           0        0.050368    0.857790    0.000000
      3          1           0       -0.876512    2.160919   -0.000000
      4          8           0        0.052339   -1.660546    0.000000
      5          1           0        0.789798   -2.309900    0.000000
      6          1           0       -0.801083   -2.147553   -0.000000
 ---------------------------------------------------------------------
 Rotational constants (GHZ):         241.8075521           4.4437812           4.3635900
 Leave Link  202 at Sun Aug 28 02:02:58 2022, MaxMem=   536870912 cpu:               0.0 elap:               0.0
 (Enter /usr/site/hpc/x86_64/glibc-2.17/broadwell/gaussian/g16_a.03/pgi-16.5/g16/l301.exe)
 Standard basis: CC-pVTZ (5D, 7F)
 Ernie: Thresh=  0.10000D-02 Tol=  0.10000D-05 Strict=F.
 Ernie:  6 primitive shells out of 84 were deleted.
 There are    92 symmetry adapted cartesian basis functions of A'  symmetry.
 There are    38 symmetry adapted cartesian basis functions of A"  symmetry.
 There are    80 symmetry adapted basis functions of A'  symmetry.
 There are    36 symmetry adapted basis functions of A"  symmetry.
   116 basis functions,   172 primitive gaussians,   130 cartesian basis functions
    10 alpha electrons       10 beta electrons
       nuclear repulsion energy        32.9347851284 Hartrees.
 IExCor=    0 DFT=F Ex=HF Corr=None ExCW=0 ScaHFX=  1.000000
 ScaDFX=  1.000000  1.000000  1.000000  1.000000 ScalE2=  1.000000  1.000000
 IRadAn=      5 IRanWt=     -1 IRanGd=            0 ICorTp=0 IEmpDi=  4
 NAtoms=    6 NActive=    6 NUniq=    6 SFac= 1.00D+00 NAtFMM=   60 NAOKFM=F Big=F
 Integral buffers will be    131072 words long.
 Raffenetti 1 integral format.
 Two-electron integral symmetry is turned on.
 Leave Link  301 at Sun Aug 28 02:02:58 2022, MaxMem=   536870912 cpu:               0.2 elap:               0.0
 (Enter /usr/site/hpc/x86_64/glibc-2.17/broadwell/gaussian/g16_a.03/pgi-16.5/g16/l302.exe)
 NPDir=0 NMtPBC=     1 NCelOv=     1 NCel=       1 NClECP=     1 NCelD=      1
         NCelK=      1 NCelE2=     1 NClLst=     1 CellRange=     0.0.
 One-electron integrals computed using PRISM.
 One-electron integral symmetry used in STVInt
 NBasis=   116 RedAO= T EigKep=  2.35D-03  NBF=    80    36
 NBsUse=   116 1.00D-06 EigRej= -1.00D+00 NBFU=    80    36
 Leave Link  302 at Sun Aug 28 02:02:58 2022, MaxMem=   536870912 cpu:               0.5 elap:               0.1
 (Enter /usr/site/hpc/x86_64/glibc-2.17/broadwell/gaussian/g16_a.03/pgi-16.5/g16/l303.exe)
 DipDrv:  MaxL=1.
 Leave Link  303 at Sun Aug 28 02:02:58 2022, MaxMem=   536870912 cpu:               0.1 elap:               0.0
 (Enter /usr/site/hpc/x86_64/glibc-2.17/broadwell/gaussian/g16_a.03/pgi-16.5/g16/l401.exe)
 ExpMin= 1.03D-01 ExpMax= 1.53D+04 ExpMxC= 5.22D+02 IAcc=3 IRadAn=         5 AccDes= 0.00D+00
 Harris functional with IExCor=  205 and IRadAn=       5 diagonalized for initial guess.
 HarFok:  IExCor=  205 AccDes= 0.00D+00 IRadAn=         5 IDoV= 1 UseB2=F ITyADJ=14
 ICtDFT=  3500011 ScaDFX=  1.000000  1.000000  1.000000  1.000000
 FoFCou: FMM=F IPFlag=           0 FMFlag=      100000 FMFlg1=           0
         NFxFlg=           0 DoJE=T BraDBF=F KetDBF=T FulRan=T
         wScrn=  0.000000 ICntrl=       500 IOpCl=  0 I1Cent=   200000004 NGrid=           0
         NMat0=    1 NMatS0=      1 NMatT0=    0 NMatD0=    1 NMtDS0=    0 NMtDT0=    0
 Petite list used in FoFCou.
 Harris En= -152.300953003832    
 JPrj=0 DoOrth=F DoCkMO=F.
 Initial guess orbital symmetries:
       Occupied  (A') (A') (A') (A') (A') (A') (A') (A') (A") (A")
       Virtual   (A') (A') (A') (A') (A') (A') (A') (A') (A') (A")
                 (A') (A") (A') (A') (A') (A") (A") (A') (A") (A")
                 (A') (A') (A') (A') (A') (A') (A') (A') (A") (A")
                 (A") (A") (A') (A') (A') (A') (A') (A') (A') (A')
                 (A') (A') (A") (A") (A') (A') (A") (A") (A") (A")
                 (A') (A') (A') (A') (A') (A') (A") (A") (A') (A')
                 (A') (A") (A") (A') (A") (A") (A') (A') (A') (A')
                 (A") (A") (A') (A') (A') (A') (A') (A') (A') (A')
                 (A") (A") (A') (A') (A") (A") (A") (A") (A') (A")
                 (A") (A') (A') (A') (A') (A') (A") (A") (A') (A')
                 (A') (A') (A') (A') (A') (A')
 The electronic state of the initial guess is 1-A'.
 Leave Link  401 at Sun Aug 28 02:02:58 2022, MaxMem=   536870912 cpu:               0.8 elap:               0.2
 (Enter /usr/site/hpc/x86_64/glibc-2.17/broadwell/gaussian/g16_a.03/pgi-16.5/g16/l502.exe)
 Keep R1 ints in memory in symmetry-blocked form, NReq=34823457.
 FoFCou: FMM=F IPFlag=           0 FMFlag=           0 FMFlg1=           0
         NFxFlg=           0 DoJE=F BraDBF=F KetDBF=F FulRan=T
         wScrn=  0.000000 ICntrl=       600 IOpCl=  0 I1Cent=           0 NGrid=           0
         NMat0=    1 NMatS0=   6786 NMatT0=    0 NMatD0=    1 NMtDS0=    0 NMtDT0=    0
 Petite list used in FoFCou.
 Closed shell SCF:
 Using DIIS extrapolation, IDIIS=  1040.
 NGot=   536870912 LenX=   525040673 LenY=   525023332
 Requested convergence on RMS density matrix=1.00D-08 within 128 cycles.
 Requested convergence on MAX density matrix=1.00D-06.
 Requested convergence on             energy=1.00D-06.
 No special actions if energy rises.

 Cycle   1  Pass 1  IDiag  1:
 E= -151.938984718007    
 DIIS: error= 6.58D-02 at cycle   1 NSaved=   1.
 NSaved= 1 IEnMin= 1 EnMin= -151.938984718007     IErMin= 1 ErrMin= 6.58D-02
 ErrMax= 6.58D-02  0.00D+00 EMaxC= 1.00D-01 BMatC= 3.93D-01 BMatP= 3.93D-01
 IDIUse=3 WtCom= 3.42D-01 WtEn= 6.58D-01
 Coeff-Com:  0.100D+01
 Coeff-En:   0.100D+01
 Coeff:      0.100D+01
 Gap=     0.504 Goal=   None    Shift=    0.000
 GapD=    0.504 DampG=2.000 DampE=0.500 DampFc=1.0000 IDamp=-1.
 RMSDP=2.53D-03 MaxDP=6.87D-02              OVMax= 1.23D-01

 Cycle   2  Pass 1  IDiag  1:
 E= -152.047635481691     Delta-E=       -0.108650763685 Rises=F Damp=F
 DIIS: error= 4.07D-02 at cycle   2 NSaved=   2.
 NSaved= 2 IEnMin= 2 EnMin= -152.047635481691     IErMin= 2 ErrMin= 4.07D-02
 ErrMax= 4.07D-02  0.00D+00 EMaxC= 1.00D-01 BMatC= 1.07D-01 BMatP= 3.93D-01
 IDIUse=3 WtCom= 5.93D-01 WtEn= 4.07D-01
 Coeff-Com:  0.315D+00 0.685D+00
 Coeff-En:   0.159D+00 0.841D+00
 Coeff:      0.252D+00 0.748D+00
 Gap=     0.626 Goal=   None    Shift=    0.000
 RMSDP=1.35D-03 MaxDP=3.99D-02 DE=-1.09D-01 OVMax= 5.64D-02

 Cycle   3  Pass 1  IDiag  1:
 E= -152.109012827964     Delta-E=       -0.061377346273 Rises=F Damp=F
 DIIS: error= 9.11D-03 at cycle   3 NSaved=   3.
 NSaved= 3 IEnMin= 3 EnMin= -152.109012827964     IErMin= 3 ErrMin= 9.11D-03
 ErrMax= 9.11D-03  0.00D+00 EMaxC= 1.00D-01 BMatC= 5.96D-03 BMatP= 1.07D-01
 IDIUse=3 WtCom= 9.09D-01 WtEn= 9.11D-02
 Coeff-Com: -0.302D-01 0.159D+00 0.871D+00
 Coeff-En:   0.000D+00 0.000D+00 0.100D+01
 Coeff:     -0.275D-01 0.145D+00 0.883D+00
 Gap=     0.598 Goal=   None    Shift=    0.000
 RMSDP=2.50D-04 MaxDP=5.92D-03 DE=-6.14D-02 OVMax= 1.33D-02

 Cycle   4  Pass 1  IDiag  1:
 E= -152.112695291643     Delta-E=       -0.003682463678 Rises=F Damp=F
 DIIS: error= 8.19D-04 at cycle   4 NSaved=   4.
 NSaved= 4 IEnMin= 4 EnMin= -152.112695291643     IErMin= 4 ErrMin= 8.19D-04
 ErrMax= 8.19D-04  0.00D+00 EMaxC= 1.00D-01 BMatC= 3.57D-05 BMatP= 5.96D-03
 IDIUse=3 WtCom= 9.92D-01 WtEn= 8.19D-03
 Coeff-Com:  0.662D-02-0.610D-01-0.232D+00 0.129D+01
 Coeff-En:   0.000D+00 0.000D+00 0.000D+00 0.100D+01
 Coeff:      0.656D-02-0.605D-01-0.230D+00 0.128D+01
 Gap=     0.600 Goal=   None    Shift=    0.000
 RMSDP=5.26D-05 MaxDP=1.00D-03 DE=-3.68D-03 OVMax= 2.40D-03

 Cycle   5  Pass 1  IDiag  1:
 E= -152.112743631051     Delta-E=       -0.000048339408 Rises=F Damp=F
 DIIS: error= 1.82D-04 at cycle   5 NSaved=   5.
 NSaved= 5 IEnMin= 5 EnMin= -152.112743631051     IErMin= 5 ErrMin= 1.82D-04
 ErrMax= 1.82D-04  0.00D+00 EMaxC= 1.00D-01 BMatC= 1.49D-06 BMatP= 3.57D-05
 IDIUse=3 WtCom= 9.98D-01 WtEn= 1.82D-03
 Coeff-Com:  0.115D-02-0.508D-02-0.250D-01-0.108D+00 0.114D+01
 Coeff-En:   0.000D+00 0.000D+00 0.000D+00 0.000D+00 0.100D+01
 Coeff:      0.114D-02-0.507D-02-0.250D-01-0.108D+00 0.114D+01
 Gap=     0.602 Goal=   None    Shift=    0.000
 RMSDP=1.44D-05 MaxDP=3.36D-04 DE=-4.83D-05 OVMax= 6.94D-04

 Cycle   6  Pass 1  IDiag  1:
 E= -152.112746388119     Delta-E=       -0.000002757068 Rises=F Damp=F
 DIIS: error= 4.08D-05 at cycle   6 NSaved=   6.
 NSaved= 6 IEnMin= 6 EnMin= -152.112746388119     IErMin= 6 ErrMin= 4.08D-05
 ErrMax= 4.08D-05  0.00D+00 EMaxC= 1.00D-01 BMatC= 1.63D-07 BMatP= 1.49D-06
 IDIUse=1 WtCom= 1.00D+00 WtEn= 0.00D+00
 Coeff-Com: -0.665D-04 0.224D-02 0.729D-02-0.114D+00 0.312D+00 0.792D+00
 Coeff:     -0.665D-04 0.224D-02 0.729D-02-0.114D+00 0.312D+00 0.792D+00
 Gap=     0.601 Goal=   None    Shift=    0.000
 RMSDP=3.03D-06 MaxDP=8.61D-05 DE=-2.76D-06 OVMax= 1.68D-04

 Cycle   7  Pass 1  IDiag  1:
 E= -152.112746575361     Delta-E=       -0.000000187242 Rises=F Damp=F
 DIIS: error= 9.64D-06 at cycle   7 NSaved=   7.
 NSaved= 7 IEnMin= 7 EnMin= -152.112746575361     IErMin= 7 ErrMin= 9.64D-06
 ErrMax= 9.64D-06  0.00D+00 EMaxC= 1.00D-01 BMatC= 8.81D-09 BMatP= 1.63D-07
 IDIUse=1 WtCom= 1.00D+00 WtEn= 0.00D+00
 Coeff-Com: -0.103D-03 0.391D-03 0.181D-02 0.142D-01-0.133D+00-0.219D-01
 Coeff-Com:  0.114D+01
 Coeff:     -0.103D-03 0.391D-03 0.181D-02 0.142D-01-0.133D+00-0.219D-01
 Coeff:      0.114D+01
 Gap=     0.602 Goal=   None    Shift=    0.000
 RMSDP=1.37D-06 MaxDP=3.68D-05 DE=-1.87D-07 OVMax= 7.06D-05

 Cycle   8  Pass 1  IDiag  1:
 E= -152.112746594719     Delta-E=       -0.000000019358 Rises=F Damp=F
 DIIS: error= 2.13D-06 at cycle   8 NSaved=   8.
 NSaved= 8 IEnMin= 8 EnMin= -152.112746594719     IErMin= 8 ErrMin= 2.13D-06
 ErrMax= 2.13D-06  0.00D+00 EMaxC= 1.00D-01 BMatC= 3.95D-10 BMatP= 8.81D-09
 IDIUse=1 WtCom= 1.00D+00 WtEn= 0.00D+00
 Coeff-Com:  0.242D-04-0.215D-03-0.846D-03 0.428D-02 0.882D-02-0.364D-01
 Coeff-Com: -0.203D+00 0.123D+01
 Coeff:      0.242D-04-0.215D-03-0.846D-03 0.428D-02 0.882D-02-0.364D-01
 Coeff:     -0.203D+00 0.123D+01
 Gap=     0.602 Goal=   None    Shift=    0.000
 RMSDP=2.14D-07 MaxDP=4.19D-06 DE=-1.94D-08 OVMax= 1.42D-05

 Cycle   9  Pass 1  IDiag  1:
 E= -152.112746595614     Delta-E=       -0.000000000895 Rises=F Damp=F
 DIIS: error= 8.27D-07 at cycle   9 NSaved=   9.
 NSaved= 9 IEnMin= 9 EnMin= -152.112746595614     IErMin= 9 ErrMin= 8.27D-07
 ErrMax= 8.27D-07  0.00D+00 EMaxC= 1.00D-01 BMatC= 2.41D-11 BMatP= 3.95D-10
 IDIUse=1 WtCom= 1.00D+00 WtEn= 0.00D+00
 Coeff-Com:  0.149D-05 0.256D-04 0.101D-03-0.235D-02 0.798D-02 0.115D-01
 Coeff-Com: -0.331D-01-0.277D+00 0.129D+01
 Coeff:      0.149D-05 0.256D-04 0.101D-03-0.235D-02 0.798D-02 0.115D-01
 Coeff:     -0.331D-01-0.277D+00 0.129D+01
 Gap=     0.602 Goal=   None    Shift=    0.000
 RMSDP=5.72D-08 MaxDP=1.09D-06 DE=-8.95D-10 OVMax= 3.21D-06

 Cycle  10  Pass 1  IDiag  1:
 E= -152.112746595667     Delta-E=       -0.000000000053 Rises=F Damp=F
 DIIS: error= 9.71D-08 at cycle  10 NSaved=  10.
 NSaved=10 IEnMin=10 EnMin= -152.112746595667     IErMin=10 ErrMin= 9.71D-08
 ErrMax= 9.71D-08  0.00D+00 EMaxC= 1.00D-01 BMatC= 4.10D-13 BMatP= 2.41D-11
 IDIUse=1 WtCom= 1.00D+00 WtEn= 0.00D+00
 Coeff-Com: -0.662D-06 0.689D-06 0.121D-05 0.237D-03-0.108D-02-0.101D-02
 Coeff-Com:  0.644D-02 0.303D-01-0.241D+00 0.121D+01
 Coeff:     -0.662D-06 0.689D-06 0.121D-05 0.237D-03-0.108D-02-0.101D-02
 Coeff:      0.644D-02 0.303D-01-0.241D+00 0.121D+01
 Gap=     0.602 Goal=   None    Shift=    0.000
 RMSDP=6.53D-09 MaxDP=1.41D-07 DE=-5.28D-11 OVMax= 3.85D-07

 SCF Done:  E(RHF) =  -152.112746596     A.U. after   10 cycles
            NFock= 10  Conv=0.65D-08     -V/T= 2.0021
 KE= 1.517932083430D+02 PE=-4.272897628158D+02 EE= 9.044902274871D+01
 Leave Link  502 at Sun Aug 28 02:03:00 2022, MaxMem=   536870912 cpu:               4.0 elap:               1.1
 (Enter /usr/site/hpc/x86_64/glibc-2.17/broadwell/gaussian/g16_a.03/pgi-16.5/g16/l801.exe)
 Windowed orbitals will be sorted by symmetry type.
 ExpMin= 1.03D-01 ExpMax= 1.53D+04 ExpMxC= 5.22D+02 IAcc=3 IRadAn=         5 AccDes= 0.00D+00
 HarFok:  IExCor=  205 AccDes= 0.00D+00 IRadAn=         5 IDoV=-2 UseB2=F ITyADJ=14
 ICtDFT= 12500011 ScaDFX=  1.000000  1.000000  1.000000  1.000000
 Largest valence mixing into a core orbital is  1.12D-04
 Largest core mixing into a valence orbital is  1.77D-05
 Range of M.O.s used for correlation:     3   116
 NBasis=   116 NAE=    10 NBE=    10 NFC=     2 NFV=     0
 NROrb=    114 NOA=     8 NOB=     8 NVA=   106 NVB=   106
 Leave Link  801 at Sun Aug 28 02:03:00 2022, MaxMem=   536870912 cpu:               0.3 elap:               0.1
 (Enter /usr/site/hpc/x86_64/glibc-2.17/broadwell/gaussian/g16_a.03/pgi-16.5/g16/l804.exe)
 Closed-shell transformation, MDV=   536870912 ITran=4 ISComp=2.
 Unit  1 TFree=        834515 TCopy=        406125.
 Semi-Direct transformation.
 ModeAB=           4 MOrb=             8 LenV=     536366746
 LASXX=      2873146 LTotXX=     2873146 LenRXX=     5831278
 LTotAB=     2958132 MaxLAS=     7033344 LenRXY=           0
 NonZer=     8704424 LenScr=    13107200 LnRSAI=     7033344
 LnScr1=    11010048 LExtra=           0 Total=     36981870
 MaxDsk=          -1 SrtSym=           T ITran=            4
 DoSDTr:  NPSUse=  4
 JobTyp=0 Pass  1:  I=   1 to   8.
 (rs|ai) integrals will be sorted in core.
 Complete sort for first half transformation.
 First half transformation complete.
 Complete sort for second half transformation.
 Second half transformation complete.
 Spin components of T(2) and E(2):
     alpha-alpha T2 =       0.1563588358D-01 E2=     -0.6403254736D-01
     alpha-beta  T2 =       0.9192287089D-01 E2=     -0.3985482754D+00
     beta-beta   T2 =       0.1563588358D-01 E2=     -0.6403254736D-01
 ANorm=    0.1059808774D+01
 E2 =    -0.5266133701D+00 EUMP2 =    -0.15263935996577D+03
 Leave Link  804 at Sun Aug 28 02:03:01 2022, MaxMem=   536870912 cpu:               6.4 elap:               1.8
 (Enter /usr/site/hpc/x86_64/glibc-2.17/broadwell/gaussian/g16_a.03/pgi-16.5/g16/l913.exe)
 CIDS:  MDV=   536870912.
 Frozen-core window:  NFC=   2 NFV=   0.
 IFCWin=0 IBDFC=1 NFBD=     0     0 NFCmp=     0     0 NFFFC=     0     0
 Using DD3R+UMP44R for 1st iteration.
 Using DD4RQ for 2nd and later iterations.
 Keep R2 and R3 ints in memory in symmetry-blocked form, NReq=35357534.
 FoFCou: FMM=F IPFlag=           0 FMFlag=           0 FMFlg1=           0
         NFxFlg=           0 DoJE=F BraDBF=F KetDBF=F FulRan=T
         wScrn=  0.000000 ICntrl=       600 IOpCl=  0 I1Cent=           0 NGrid=           0
         NMat0=    1 NMatS0=   6786 NMatT0=    0 NMatD0=    1 NMtDS0=    0 NMtDT0=    0
 Petite list used in FoFCou.
 CIDS: In Core Option IDoMem=           1.
 CCSD(T)
 =======
 Iterations=  50 Convergence= 0.100D-06
 Produce multiple copies of IABC intergrals
 Iteration Nr.   1
 **********************
 DD1Dir will call FoFMem   1 times, MxPair=        72
 NAB=    36 NAA=     0 NBB=     0.
 MP4(R+Q)=  0.75888982D-02
 Maximum subspace dimension=  5
 A-vector RMS=  1.7786626D-03 Max=  5.7553418D-03 conv= 1.00D-05.
 RLE energy=       -0.5262862882
 E3=       -0.73307436D-02        EUMP3=      -0.15264669071D+03
 E4(DQ)=   -0.14967594D-02        UMP4(DQ)=   -0.15264818747D+03
 E4(SDQ)=  -0.45877566D-02        UMP4(SDQ)=  -0.15265127847D+03
 VARIATIONAL ENERGIES WITH THE FIRST-ORDER WAVEFUNCTION:
 DE(Corr)= -0.52628609     E(Corr)=     -152.63903269    
 NORM(A)=   0.10600914D+01
 Iteration Nr.   2
 **********************
 DD1Dir will call FoFMem   1 times, MxPair=        72
 NAB=    36 NAA=     0 NBB=     0.
 A-vector RMS=  2.1272850D-04 Max=  2.0899875D-03 conv= 1.00D-05.
 RLE energy=       -0.5373361951
 DE(Corr)= -0.53620530     E(CORR)=     -152.64895190     Delta=-9.92D-03
 NORM(A)=   0.10638325D+01
 Iteration Nr.   3
 **********************
 DD1Dir will call FoFMem   1 times, MxPair=        72
 NAB=    36 NAA=     0 NBB=     0.
 A-vector RMS=  1.4976304D-04 Max=  7.7477154D-04 conv= 1.00D-05.
 RLE energy=       -0.5378310144
 DE(Corr)= -0.53724411     E(CORR)=     -152.64999070     Delta=-1.04D-03
 NORM(A)=   0.10644637D+01
 Iteration Nr.   4
 **********************
 DD1Dir will call FoFMem   1 times, MxPair=        72
 NAB=    36 NAA=     0 NBB=     0.
 A-vector RMS=  2.9986643D-05 Max=  1.3761231D-04 conv= 1.00D-05.
 RLE energy=       -0.5379107654
 DE(Corr)= -0.53787690     E(CORR)=     -152.65062350     Delta=-6.33D-04
 NORM(A)=   0.10645738D+01
 Iteration Nr.   5
 **********************
 DD1Dir will call FoFMem   1 times, MxPair=        72
 NAB=    36 NAA=     0 NBB=     0.
 A-vector RMS=  1.8833361D-05 Max=  1.5985197D-04 conv= 1.00D-05.
 RLE energy=       -0.5379220979
 DE(Corr)= -0.53791486     E(CORR)=     -152.65066145     Delta=-3.80D-05
 NORM(A)=   0.10645849D+01
 Iteration Nr.   6
 **********************
 DD1Dir will call FoFMem   1 times, MxPair=        72
 NAB=    36 NAA=     0 NBB=     0.
 A-vector RMS=  5.8172914D-06 Max=  4.5005201D-05 conv= 1.00D-05.
 RLE energy=       -0.5379140925
 DE(Corr)= -0.53791843     E(CORR)=     -152.65066503     Delta=-3.58D-06
 NORM(A)=   0.10645845D+01
 Iteration Nr.   7
 **********************
 DD1Dir will call FoFMem   1 times, MxPair=        72
 NAB=    36 NAA=     0 NBB=     0.
 A-vector RMS=  2.6689306D-06 Max=  2.5205431D-05 conv= 1.00D-05.
 RLE energy=       -0.5379181513
 DE(Corr)= -0.53791863     E(CORR)=     -152.65066522     Delta=-1.93D-07
 NORM(A)=   0.10645861D+01
 Iteration Nr.   8
 **********************
 DD1Dir will call FoFMem   1 times, MxPair=        72
 NAB=    36 NAA=     0 NBB=     0.
 A-vector RMS=  1.0157971D-06 Max=  8.9649845D-06 conv= 1.00D-05.
 RLE energy=       -0.5379179717
 DE(Corr)= -0.53791819     E(CORR)=     -152.65066479     Delta= 4.35D-07
 NORM(A)=   0.10645863D+01
 Iteration Nr.   9
 **********************
 DD1Dir will call FoFMem   1 times, MxPair=        72
 NAB=    36 NAA=     0 NBB=     0.
 A-vector RMS=  2.1825297D-07 Max=  3.0697865D-06 conv= 1.00D-05.
 RLE energy=       -0.5379182263
 DE(Corr)= -0.53791830     E(CORR)=     -152.65066489     Delta=-1.05D-07
 NORM(A)=   0.10645867D+01
 Iteration Nr.  10
 **********************
 DD1Dir will call FoFMem   1 times, MxPair=        72
 NAB=    36 NAA=     0 NBB=     0.
 A-vector RMS=  7.8858207D-08 Max=  1.2012944D-06 conv= 1.00D-05.
 RLE energy=       -0.5379184285
 DE(Corr)= -0.53791842     E(CORR)=     -152.65066502     Delta=-1.23D-07
 NORM(A)=   0.10645868D+01
 Iteration Nr.  11
 **********************
 DD1Dir will call FoFMem   1 times, MxPair=        72
 NAB=    36 NAA=     0 NBB=     0.
 A-vector RMS=  3.0531617D-08 Max=  4.0821111D-07 conv= 1.00D-05.
 RLE energy=       -0.5379184930
 DE(Corr)= -0.53791847     E(CORR)=     -152.65066507     Delta=-5.39D-08
 NORM(A)=   0.10645869D+01
 CI/CC converged in   11 iterations to DelEn=-5.39D-08 Conv= 1.00D-07 ErrA1= 3.05D-08 Conv= 1.00D-05
 Wavefunction amplitudes converged. E(Corr)=     -152.65066507    
 Largest amplitude= 4.38D-02
 IPart=  1 IA=    7   11.05% done.
 IPart=  4 IA=   13   21.46% done.
 IPart=  3 IA=   19   31.21% done.
 IPart=  2 IA=   25   40.32% done.
 IPart=  2 IA=   32   50.13% done.
 IPart=  4 IA=   40   60.27% done.
 IPart=  2 IA=   49   70.30% done.
 IPart=  3 IA=   60   80.58% done.
 IPart=  2 IA=   74   90.51% done.
 Time for triples=       50.13 seconds.
 T4(CCSD)= -0.16152062D-01
 T5(CCSD)=  0.40993036D-03
 CCSD(T)= -0.15266640720D+03
 Discarding MO integrals.
 Leave Link  913 at Sun Aug 28 02:03:22 2022, MaxMem=   536870912 cpu:              77.2 elap:              20.0
 (Enter /usr/site/hpc/x86_64/glibc-2.17/broadwell/gaussian/g16_a.03/pgi-16.5/g16/l601.exe)
 Copying SCF densities to generalized density rwf, IOpCl= 0 IROHF=0.

 **********************************************************************

            Population analysis using the SCF density.

 **********************************************************************

 Orbital symmetries:
       Occupied  (A') (A') (A') (A') (A') (A') (A') (A') (A") (A")
       Virtual   (A') (A') (A') (A') (A') (A') (A') (A') (A') (A')
                 (A") (A') (A") (A") (A') (A') (A") (A') (A") (A")
                 (A') (A') (A') (A') (A') (A') (A') (A') (A") (A")
                 (A") (A') (A") (A') (A') (A') (A') (A') (A') (A')
                 (A') (A') (A") (A") (A') (A") (A') (A") (A') (A')
                 (A") (A") (A') (A') (A') (A') (A") (A") (A") (A")
                 (A') (A') (A') (A') (A") (A") (A') (A') (A') (A')
                 (A") (A") (A') (A') (A') (A') (A') (A') (A') (A')
                 (A") (A") (A') (A') (A") (A") (A") (A") (A') (A")
                 (A") (A') (A') (A') (A') (A') (A") (A") (A') (A')
                 (A') (A') (A') (A') (A') (A')
 The electronic state is 1-A'.
 Alpha  occ. eigenvalues --  -20.57533 -20.53490  -1.34787  -1.30867  -0.72162
 Alpha  occ. eigenvalues --   -0.68329  -0.58517  -0.54299  -0.51925  -0.48018
 Alpha virt. eigenvalues --    0.12139   0.17135   0.19137   0.27051   0.50963
 Alpha virt. eigenvalues --    0.54965   0.56341   0.59031   0.69068   0.72399
 Alpha virt. eigenvalues --    0.75677   0.77197   0.80946   0.83308   0.84434
 Alpha virt. eigenvalues --    0.86226   0.86601   0.90665   0.94822   1.02288
 Alpha virt. eigenvalues --    1.11738   1.12770   1.21174   1.24688   1.50162
 Alpha virt. eigenvalues --    1.50427   1.53927   1.74761   1.98657   2.02780
 Alpha virt. eigenvalues --    2.04824   2.04881   2.09090   2.09926   2.14649
 Alpha virt. eigenvalues --    2.22552   2.26420   2.32610   2.59721   2.64200
 Alpha virt. eigenvalues --    2.91065   2.96687   3.37601   3.41456   3.48175
 Alpha virt. eigenvalues --    3.51419   3.52079   3.55239   3.57773   3.61777
 Alpha virt. eigenvalues --    3.76740   3.80567   3.82495   3.88077   3.89449
 Alpha virt. eigenvalues --    3.91197   3.91862   3.95119   4.02135   4.06104
 Alpha virt. eigenvalues --    4.06834   4.12393   4.13493   4.25305   4.28316
 Alpha virt. eigenvalues --    4.32278   4.39771   4.43125   4.44440   4.49533
 Alpha virt. eigenvalues --    4.64853   4.68565   4.79821   4.84714   5.02871
 Alpha virt. eigenvalues --    5.07796   5.24543   5.27315   5.52867   5.57367
 Alpha virt. eigenvalues --    5.95865   5.99866   6.38446   6.43386   6.84179
 Alpha virt. eigenvalues --    6.87718   6.88160   6.91732   6.92046   6.97054
 Alpha virt. eigenvalues --    7.01140   7.03683   7.06975   7.10385   7.14437
 Alpha virt. eigenvalues --    7.16027   7.16215   7.20294   7.45717   7.50994
 Alpha virt. eigenvalues --    7.68588   7.72947   8.13788   8.18666  12.48745
 Alpha virt. eigenvalues --   12.74524
          Condensed to atoms (all electrons):
               1          2          3          4          5          6
     1  O    7.839857   0.348894   0.345087  -0.002399   0.000108   0.000199
     2  H    0.348894   0.404479  -0.038872   0.016326  -0.000955  -0.001178
     3  H    0.345087  -0.038872   0.446828  -0.000361   0.000020   0.000073
     4  O   -0.002399   0.016326  -0.000361   7.836002   0.330417   0.327042
     5  H    0.000108  -0.000955   0.000020   0.330417   0.433990  -0.026614
     6  H    0.000199  -0.001178   0.000073   0.327042  -0.026614   0.443272
 Mulliken charges:
               1
     1  O   -0.531745
     2  H    0.271306
     3  H    0.247226
     4  O   -0.507027
     5  H    0.263034
     6  H    0.257207
 Sum of Mulliken charges =  -0.00000
 Mulliken charges with hydrogens summed into heavy atoms:
               1
     1  O   -0.013213
     4  O    0.013213
 Electronic spatial extent (au):  <R**2>=            261.5560
 Charge=             -0.0000 electrons
 Dipole moment (field-independent basis, Debye):
    X=             -1.7649    Y=             -3.4226    Z=             -0.0000  Tot=              3.8509
 Quadrupole moment (field-independent basis, Debye-Ang):
   XX=             -9.2328   YY=             -7.9989   ZZ=            -14.7310
   XY=             -3.8453   XZ=              0.0000   YZ=             -0.0000
 Traceless Quadrupole moment (field-independent basis, Debye-Ang):
   XX=              1.4214   YY=              2.6553   ZZ=             -4.0768
   XY=             -3.8453   XZ=              0.0000   YZ=             -0.0000
 Octapole moment (field-independent basis, Debye-Ang**2):
  XXX=             -2.0104  YYY=            -26.9013  ZZZ=             -0.0000  XYY=             -8.2046
  XXY=             -3.6364  XXZ=             -0.0000  XZZ=             -0.2297  YZZ=             -0.5396
  YYZ=             -0.0000  XYZ=             -0.0000
 Hexadecapole moment (field-independent basis, Debye-Ang**3):
 XXXX=            -11.3141 YYYY=           -204.4379 ZZZZ=            -11.3820 XXXY=             -0.9189
 XXXZ=             -0.0000 YYYX=            -21.0155 YYYZ=             -0.0000 ZZZX=             -0.0000
 ZZZY=              0.0000 XXYY=            -25.8965 XXZZ=             -4.4547 YYZZ=            -50.2959
 XXYZ=             -0.0000 YYXZ=              0.0000 ZZXY=              0.8383
 N-N= 3.293478512842D+01 E-N=-4.272897622478D+02  KE= 1.517932083430D+02
 Symmetry A'   KE= 1.427607574590D+02
 Symmetry A"   KE= 9.032450884002D+00
 Leave Link  601 at Sun Aug 28 02:03:22 2022, MaxMem=   536870912 cpu:               0.2 elap:               0.0
 (Enter /usr/site/hpc/x86_64/glibc-2.17/broadwell/gaussian/g16_a.03/pgi-16.5/g16/l9999.exe)
 1\1\GINC-N002\SP\RCCSD(T)-FC\CC-pVTZ\H4O2\ROOT\28-Aug-2022\0\\#p CCSD(
 T)/cc-pVTZ\\H2O_H2O_1838\\0,1\O,0,0.,-0.009833,0.\H,0,-0.799571,-0.580
 965,0.\H,0,0.799571,-0.580965,0.\O,0,-2.852888,-2.039014,0.\H,0,-3.809
 481,-1.814437,0.\H,0,-2.755093,-3.016737,0.\\Version=ES64L-G16RevA.03\
 State=1-A'\HF=-152.1127466\MP2=-152.63936\MP3=-152.6466907\MP4D=-152.6
 557764\MP4DQ=-152.6481875\MP4SDQ=-152.6512785\CCSD=-152.6506651\CCSD(T
 )=-152.6664072\RMSD=6.530e-09\PG=CS [SG(H4O2)]\\@


 THE BEST WAY TO CONVINCE A FOOL THAT HE IS WRONG 
 IS TO LET HIM HAVE HIS OWN WAY.

                                         JOSH BILLINGS
 Job cpu time:       0 days  0 hours  1 minutes 31.9 seconds.
 Elapsed time:       0 days  0 hours  0 minutes 24.2 seconds.
 File lengths (MBytes):  RWF=    352 Int=      0 D2E=      0 Chk=      8 Scr=      8
 Normal termination of Gaussian 16 at Sun Aug 28 02:03:22 2022.
