 Entering Gaussian System, Link 0=g16
 Input=H2O_H2O_3409.com
 Output=H2O_H2O_3409.log
 Initial command:
 /usr/site/hpc/x86_64/glibc-2.17/broadwell/gaussian/g16_a.03/pgi-16.5/g16/l1.exe "/gpfs/gpfs1/scratch/c7441284/ForceFieldModel/FittingData2/Gau-519842.inp" -scrdir="/gpfs/gpfs1/scratch/c7441284/ForceFieldModel/FittingData2/"
 Entering Link 1 = /usr/site/hpc/x86_64/glibc-2.17/broadwell/gaussian/g16_a.03/pgi-16.5/g16/l1.exe PID=    519843.
  
 Copyright (c) 1988,1990,1992,1993,1995,1998,2003,2009,2016,
            Gaussian, Inc.  All Rights Reserved.
  
 This is part of the Gaussian(R) 16 program.  It is based on
 the Gaussian(R) 09 system (copyright 2009, Gaussian, Inc.),
 the Gaussian(R) 03 system (copyright 2003, Gaussian, Inc.),
 the Gaussian(R) 98 system (copyright 1998, Gaussian, Inc.),
 the Gaussian(R) 94 system (copyright 1995, Gaussian, Inc.),
 the Gaussian 92(TM) system (copyright 1992, Gaussian, Inc.),
 the Gaussian 90(TM) system (copyright 1990, Gaussian, Inc.),
 the Gaussian 88(TM) system (copyright 1988, Gaussian, Inc.),
 the Gaussian 86(TM) system (copyright 1986, Carnegie Mellon
 University), and the Gaussian 82(TM) system (copyright 1983,
 Carnegie Mellon University). Gaussian is a federally registered
 trademark of Gaussian, Inc.
  
 This software contains proprietary and confidential information,
 including trade secrets, belonging to Gaussian, Inc.
  
 This software is provided under written license and may be
 used, copied, transmitted, or stored only in accord with that
 written license.
  
 The following legend is applicable only to US Government
 contracts under FAR:
  
                    RESTRICTED RIGHTS LEGEND
  
 Use, reproduction and disclosure by the US Government is
 subject to restrictions as set forth in subparagraphs (a)
 and (c) of the Commercial Computer Software - Restricted
 Rights clause in FAR 52.227-19.
  
 Gaussian, Inc.
 340 Quinnipiac St., Bldg. 40, Wallingford CT 06492
  
  
 ---------------------------------------------------------------
 Warning -- This program may not be used in any manner that
 competes with the business of Gaussian, Inc. or will provide
 assistance to any competitor of Gaussian, Inc.  The licensee
 of this program is prohibited from giving any competitor of
 Gaussian, Inc. access to this program.  By using this program,
 the user acknowledges that Gaussian, Inc. is engaged in the
 business of creating and licensing software in the field of
 computational chemistry and represents and warrants to the
 licensee that it is not a competitor of Gaussian, Inc. and that
 it will not use this program in any manner prohibited above.
 ---------------------------------------------------------------
  

 Cite this work as:
 Gaussian 16, Revision A.03,
 M. J. Frisch, G. W. Trucks, H. B. Schlegel, G. E. Scuseria, 
 M. A. Robb, J. R. Cheeseman, G. Scalmani, V. Barone, 
 G. A. Petersson, H. Nakatsuji, X. Li, M. Caricato, A. V. Marenich, 
 J. Bloino, B. G. Janesko, R. Gomperts, B. Mennucci, H. P. Hratchian, 
 J. V. Ortiz, A. F. Izmaylov, J. L. Sonnenberg, D. Williams-Young, 
 F. Ding, F. Lipparini, F. Egidi, J. Goings, B. Peng, A. Petrone, 
 T. Henderson, D. Ranasinghe, V. G. Zakrzewski, J. Gao, N. Rega, 
 G. Zheng, W. Liang, M. Hada, M. Ehara, K. Toyota, R. Fukuda, 
 J. Hasegawa, M. Ishida, T. Nakajima, Y. Honda, O. Kitao, H. Nakai, 
 T. Vreven, K. Throssell, J. A. Montgomery, Jr., J. E. Peralta, 
 F. Ogliaro, M. J. Bearpark, J. J. Heyd, E. N. Brothers, K. N. Kudin, 
 V. N. Staroverov, T. A. Keith, R. Kobayashi, J. Normand, 
 K. Raghavachari, A. P. Rendell, J. C. Burant, S. S. Iyengar, 
 J. Tomasi, M. Cossi, J. M. Millam, M. Klene, C. Adamo, R. Cammi, 
 J. W. Ochterski, R. L. Martin, K. Morokuma, O. Farkas, 
 J. B. Foresman, and D. J. Fox, Gaussian, Inc., Wallingford CT, 2016.
 
 ******************************************
 Gaussian 16:  ES64L-G16RevA.03 25-Dec-2016
                26-Aug-2022 
 ******************************************
 %NProcShared=4
 Will use up to    4 processors via shared memory.
 %Mem=4GB
 %Chk=H2O_H2O_3409.chk
 ------------------
 #p CCSD(T)/cc-pVTZ
 ------------------
 1/38=1,172=1/1;
 2/12=2,17=6,18=5,40=1/2;
 3/5=16,6=1,11=9,25=1,30=1/1,2,3;
 4//1;
 5/5=2,38=5/2;
 8/6=4,9=120000,10=1/1,4;
 9/5=7,14=2/13;
 6/7=2,8=2,9=2,10=2/1;
 99/5=1,9=1/99;
 Leave Link    1 at Fri Aug 26 21:31:59 2022, MaxMem=   536870912 cpu:               0.2 elap:               0.1
 (Enter /usr/site/hpc/x86_64/glibc-2.17/broadwell/gaussian/g16_a.03/pgi-16.5/g16/l101.exe)
 ------------
 H2O_H2O_3409
 ------------
 Symbolic Z-matrix:
 Charge =  0 Multiplicity = 1
 O                     0.       -0.00983   0. 
 H                    -0.79957  -0.58097   0. 
 H                     0.79957  -0.58097   0. 
 O                    -3.87338  -2.77102   0. 
 H                    -4.8555   -2.80168   0. 
 H                    -3.52586  -3.69012   0. 
 
 ITRead=  0  0  0  0  0  0
 MicOpt= -1 -1 -1 -1 -1 -1
 NAtoms=      6 NQM=        6 NQMF=       0 NMMI=      0 NMMIF=      0
                NMic=       0 NMicF=      0.
                    Isotopes and Nuclear Properties:
 (Nuclear quadrupole moments (NQMom) in fm**2, nuclear magnetic moments (NMagM)
  in nuclear magnetons)

  Atom         1           2           3           4           5           6
 IAtWgt=          16           1           1          16           1           1
 AtmWgt=  15.9949146   1.0078250   1.0078250  15.9949146   1.0078250   1.0078250
 NucSpn=           0           1           1           0           1           1
 AtZEff=  -0.0000000  -0.0000000  -0.0000000  -0.0000000  -0.0000000  -0.0000000
 NQMom=    0.0000000   0.0000000   0.0000000   0.0000000   0.0000000   0.0000000
 NMagM=    0.0000000   2.7928460   2.7928460   0.0000000   2.7928460   2.7928460
 AtZNuc=   8.0000000   1.0000000   1.0000000   8.0000000   1.0000000   1.0000000
 Leave Link  101 at Fri Aug 26 21:31:59 2022, MaxMem=   536870912 cpu:               0.3 elap:               0.1
 (Enter /usr/site/hpc/x86_64/glibc-2.17/broadwell/gaussian/g16_a.03/pgi-16.5/g16/l202.exe)
                          Input orientation:                          
 ---------------------------------------------------------------------
 Center     Atomic      Atomic             Coordinates (Angstroms)
 Number     Number       Type             X           Y           Z
 ---------------------------------------------------------------------
      1          8           0        0.000000   -0.009833    0.000000
      2          1           0       -0.799571   -0.580965    0.000000
      3          1           0        0.799571   -0.580965    0.000000
      4          8           0       -3.873378   -2.771019    0.000000
      5          1           0       -4.855501   -2.801680    0.000000
      6          1           0       -3.525863   -3.690116    0.000000
 ---------------------------------------------------------------------
                    Distance matrix (angstroms):
                    1          2          3          4          5
     1  O    0.000000
     2  H    0.982601   0.000000
     3  H    0.982601   1.599142   0.000000
     4  O    4.756806   3.774205   5.160697   0.000000
     5  H    5.600920   4.624083   6.075476   0.982601   0.000000
     6  H    5.096684   4.135153   5.326932   0.982602   1.599142
                    6
     6  H    0.000000
 Stoichiometry    H4O2
 Framework group  CS[SG(H4O2)]
 Deg. of freedom     9
 Full point group                 CS      NOp   2
 Largest Abelian subgroup         CS      NOp   2
 Largest concise Abelian subgroup C1      NOp   1
                         Standard orientation:                         
 ---------------------------------------------------------------------
 Center     Atomic      Atomic             Coordinates (Angstroms)
 Number     Number       Type             X           Y           Z
 ---------------------------------------------------------------------
      1          8           0        0.066756    2.464958   -0.000000
      2          1           0        0.065822    1.482357   -0.000000
      3          1           0       -0.862433    2.784509   -0.000000
      4          8           0        0.066756   -2.291848    0.000000
      5          1           0        0.611883   -3.109370    0.000000
      6          1           0       -0.883370   -2.542382    0.000000
 ---------------------------------------------------------------------
 Rotational constants (GHZ):         251.0764776           2.4361414           2.4127311
 Leave Link  202 at Fri Aug 26 21:31:59 2022, MaxMem=   536870912 cpu:               0.1 elap:               0.0
 (Enter /usr/site/hpc/x86_64/glibc-2.17/broadwell/gaussian/g16_a.03/pgi-16.5/g16/l301.exe)
 Standard basis: CC-pVTZ (5D, 7F)
 Ernie: Thresh=  0.10000D-02 Tol=  0.10000D-05 Strict=F.
 Ernie:  6 primitive shells out of 84 were deleted.
 There are    92 symmetry adapted cartesian basis functions of A'  symmetry.
 There are    38 symmetry adapted cartesian basis functions of A"  symmetry.
 There are    80 symmetry adapted basis functions of A'  symmetry.
 There are    36 symmetry adapted basis functions of A"  symmetry.
   116 basis functions,   172 primitive gaussians,   130 cartesian basis functions
    10 alpha electrons       10 beta electrons
       nuclear repulsion energy        28.9724051661 Hartrees.
 IExCor=    0 DFT=F Ex=HF Corr=None ExCW=0 ScaHFX=  1.000000
 ScaDFX=  1.000000  1.000000  1.000000  1.000000 ScalE2=  1.000000  1.000000
 IRadAn=      5 IRanWt=     -1 IRanGd=            0 ICorTp=0 IEmpDi=  4
 NAtoms=    6 NActive=    6 NUniq=    6 SFac= 1.00D+00 NAtFMM=   60 NAOKFM=F Big=F
 Integral buffers will be    131072 words long.
 Raffenetti 1 integral format.
 Two-electron integral symmetry is turned on.
 Leave Link  301 at Fri Aug 26 21:31:59 2022, MaxMem=   536870912 cpu:               0.2 elap:               0.1
 (Enter /usr/site/hpc/x86_64/glibc-2.17/broadwell/gaussian/g16_a.03/pgi-16.5/g16/l302.exe)
 NPDir=0 NMtPBC=     1 NCelOv=     1 NCel=       1 NClECP=     1 NCelD=      1
         NCelK=      1 NCelE2=     1 NClLst=     1 CellRange=     0.0.
 One-electron integrals computed using PRISM.
 One-electron integral symmetry used in STVInt
 NBasis=   116 RedAO= T EigKep=  2.59D-03  NBF=    80    36
 NBsUse=   116 1.00D-06 EigRej= -1.00D+00 NBFU=    80    36
 Leave Link  302 at Fri Aug 26 21:32:00 2022, MaxMem=   536870912 cpu:               0.4 elap:               0.1
 (Enter /usr/site/hpc/x86_64/glibc-2.17/broadwell/gaussian/g16_a.03/pgi-16.5/g16/l303.exe)
 DipDrv:  MaxL=1.
 Leave Link  303 at Fri Aug 26 21:32:00 2022, MaxMem=   536870912 cpu:               0.1 elap:               0.0
 (Enter /usr/site/hpc/x86_64/glibc-2.17/broadwell/gaussian/g16_a.03/pgi-16.5/g16/l401.exe)
 ExpMin= 1.03D-01 ExpMax= 1.53D+04 ExpMxC= 5.22D+02 IAcc=3 IRadAn=         5 AccDes= 0.00D+00
 Harris functional with IExCor=  205 and IRadAn=       5 diagonalized for initial guess.
 HarFok:  IExCor=  205 AccDes= 0.00D+00 IRadAn=         5 IDoV= 1 UseB2=F ITyADJ=14
 ICtDFT=  3500011 ScaDFX=  1.000000  1.000000  1.000000  1.000000
 FoFCou: FMM=F IPFlag=           0 FMFlag=      100000 FMFlg1=           0
         NFxFlg=           0 DoJE=T BraDBF=F KetDBF=T FulRan=T
         wScrn=  0.000000 ICntrl=       500 IOpCl=  0 I1Cent=   200000004 NGrid=           0
         NMat0=    1 NMatS0=      1 NMatT0=    0 NMatD0=    1 NMtDS0=    0 NMtDT0=    0
 Petite list used in FoFCou.
 Harris En= -152.298773945454    
 JPrj=0 DoOrth=F DoCkMO=F.
 Initial guess orbital symmetries:
       Occupied  (A') (A') (A') (A') (A') (A') (A') (A') (A") (A")
       Virtual   (A') (A') (A') (A') (A') (A') (A') (A') (A') (A')
                 (A") (A") (A') (A') (A') (A") (A") (A') (A") (A")
                 (A') (A') (A') (A') (A') (A') (A') (A') (A") (A")
                 (A") (A") (A') (A') (A') (A') (A') (A') (A') (A')
                 (A') (A') (A") (A") (A') (A') (A") (A") (A") (A")
                 (A') (A') (A') (A') (A') (A') (A") (A") (A') (A')
                 (A') (A') (A") (A") (A") (A") (A') (A') (A') (A')
                 (A") (A") (A') (A') (A') (A') (A') (A') (A') (A')
                 (A") (A") (A') (A') (A") (A") (A") (A") (A') (A')
                 (A") (A") (A') (A') (A') (A') (A") (A") (A') (A')
                 (A') (A') (A') (A') (A') (A')
 The electronic state of the initial guess is 1-A'.
 Leave Link  401 at Fri Aug 26 21:32:00 2022, MaxMem=   536870912 cpu:               0.7 elap:               0.2
 (Enter /usr/site/hpc/x86_64/glibc-2.17/broadwell/gaussian/g16_a.03/pgi-16.5/g16/l502.exe)
 Keep R1 ints in memory in symmetry-blocked form, NReq=34823457.
 FoFCou: FMM=F IPFlag=           0 FMFlag=           0 FMFlg1=           0
         NFxFlg=           0 DoJE=F BraDBF=F KetDBF=F FulRan=T
         wScrn=  0.000000 ICntrl=       600 IOpCl=  0 I1Cent=           0 NGrid=           0
         NMat0=    1 NMatS0=   6786 NMatT0=    0 NMatD0=    1 NMtDS0=    0 NMtDT0=    0
 Petite list used in FoFCou.
 Closed shell SCF:
 Using DIIS extrapolation, IDIIS=  1040.
 NGot=   536870912 LenX=   525040673 LenY=   525023332
 Requested convergence on RMS density matrix=1.00D-08 within 128 cycles.
 Requested convergence on MAX density matrix=1.00D-06.
 Requested convergence on             energy=1.00D-06.
 No special actions if energy rises.

 Cycle   1  Pass 1  IDiag  1:
 E= -151.929964175424    
 DIIS: error= 6.59D-02 at cycle   1 NSaved=   1.
 NSaved= 1 IEnMin= 1 EnMin= -151.929964175424     IErMin= 1 ErrMin= 6.59D-02
 ErrMax= 6.59D-02  0.00D+00 EMaxC= 1.00D-01 BMatC= 3.99D-01 BMatP= 3.99D-01
 IDIUse=3 WtCom= 3.41D-01 WtEn= 6.59D-01
 Coeff-Com:  0.100D+01
 Coeff-En:   0.100D+01
 Coeff:      0.100D+01
 Gap=     0.506 Goal=   None    Shift=    0.000
 GapD=    0.506 DampG=2.000 DampE=0.500 DampFc=1.0000 IDamp=-1.
 RMSDP=2.51D-03 MaxDP=6.70D-02              OVMax= 1.26D-01

 Cycle   2  Pass 1  IDiag  1:
 E= -152.041084314154     Delta-E=       -0.111120138730 Rises=F Damp=F
 DIIS: error= 4.14D-02 at cycle   2 NSaved=   2.
 NSaved= 2 IEnMin= 2 EnMin= -152.041084314154     IErMin= 2 ErrMin= 4.14D-02
 ErrMax= 4.14D-02  0.00D+00 EMaxC= 1.00D-01 BMatC= 1.12D-01 BMatP= 3.99D-01
 IDIUse=3 WtCom= 5.86D-01 WtEn= 4.14D-01
 Coeff-Com:  0.319D+00 0.681D+00
 Coeff-En:   0.166D+00 0.834D+00
 Coeff:      0.255D+00 0.745D+00
 Gap=     0.642 Goal=   None    Shift=    0.000
 RMSDP=1.33D-03 MaxDP=3.97D-02 DE=-1.11D-01 OVMax= 5.70D-02

 Cycle   3  Pass 1  IDiag  1:
 E= -152.105220736619     Delta-E=       -0.064136422465 Rises=F Damp=F
 DIIS: error= 8.98D-03 at cycle   3 NSaved=   3.
 NSaved= 3 IEnMin= 3 EnMin= -152.105220736619     IErMin= 3 ErrMin= 8.98D-03
 ErrMax= 8.98D-03  0.00D+00 EMaxC= 1.00D-01 BMatC= 5.95D-03 BMatP= 1.12D-01
 IDIUse=3 WtCom= 9.10D-01 WtEn= 8.98D-02
 Coeff-Com: -0.303D-01 0.156D+00 0.874D+00
 Coeff-En:   0.000D+00 0.000D+00 0.100D+01
 Coeff:     -0.276D-01 0.142D+00 0.886D+00
 Gap=     0.614 Goal=   None    Shift=    0.000
 RMSDP=2.43D-04 MaxDP=5.73D-03 DE=-6.41D-02 OVMax= 1.33D-02

 Cycle   4  Pass 1  IDiag  1:
 E= -152.108920683533     Delta-E=       -0.003699946913 Rises=F Damp=F
 DIIS: error= 8.48D-04 at cycle   4 NSaved=   4.
 NSaved= 4 IEnMin= 4 EnMin= -152.108920683533     IErMin= 4 ErrMin= 8.48D-04
 ErrMax= 8.48D-04  0.00D+00 EMaxC= 1.00D-01 BMatC= 3.67D-05 BMatP= 5.95D-03
 IDIUse=3 WtCom= 9.92D-01 WtEn= 8.48D-03
 Coeff-Com:  0.677D-02-0.611D-01-0.238D+00 0.129D+01
 Coeff-En:   0.000D+00 0.000D+00 0.000D+00 0.100D+01
 Coeff:      0.671D-02-0.605D-01-0.236D+00 0.129D+01
 Gap=     0.616 Goal=   None    Shift=    0.000
 RMSDP=5.18D-05 MaxDP=1.03D-03 DE=-3.70D-03 OVMax= 2.21D-03

 Cycle   5  Pass 1  IDiag  1:
 E= -152.108969864952     Delta-E=       -0.000049181419 Rises=F Damp=F
 DIIS: error= 1.92D-04 at cycle   5 NSaved=   5.
 NSaved= 5 IEnMin= 5 EnMin= -152.108969864952     IErMin= 5 ErrMin= 1.92D-04
 ErrMax= 1.92D-04  0.00D+00 EMaxC= 1.00D-01 BMatC= 1.35D-06 BMatP= 3.67D-05
 IDIUse=3 WtCom= 9.98D-01 WtEn= 1.92D-03
 Coeff-Com:  0.547D-03 0.373D-03-0.328D-02-0.221D+00 0.122D+01
 Coeff-En:   0.000D+00 0.000D+00 0.000D+00 0.000D+00 0.100D+01
 Coeff:      0.546D-03 0.372D-03-0.327D-02-0.220D+00 0.122D+01
 Gap=     0.617 Goal=   None    Shift=    0.000
 RMSDP=1.44D-05 MaxDP=3.04D-04 DE=-4.92D-05 OVMax= 6.91D-04

 Cycle   6  Pass 1  IDiag  1:
 E= -152.108972663049     Delta-E=       -0.000002798098 Rises=F Damp=F
 DIIS: error= 2.79D-05 at cycle   6 NSaved=   6.
 NSaved= 6 IEnMin= 6 EnMin= -152.108972663049     IErMin= 6 ErrMin= 2.79D-05
 ErrMax= 2.79D-05  0.00D+00 EMaxC= 1.00D-01 BMatC= 3.94D-08 BMatP= 1.35D-06
 IDIUse=1 WtCom= 1.00D+00 WtEn= 0.00D+00
 Coeff-Com: -0.214D-03 0.165D-02 0.657D-02-0.239D-01-0.117D+00 0.113D+01
 Coeff:     -0.214D-03 0.165D-02 0.657D-02-0.239D-01-0.117D+00 0.113D+01
 Gap=     0.617 Goal=   None    Shift=    0.000
 RMSDP=2.81D-06 MaxDP=7.04D-05 DE=-2.80D-06 OVMax= 1.52D-04

 Cycle   7  Pass 1  IDiag  1:
 E= -152.108972756042     Delta-E=       -0.000000092993 Rises=F Damp=F
 DIIS: error= 8.16D-06 at cycle   7 NSaved=   7.
 NSaved= 7 IEnMin= 7 EnMin= -152.108972756042     IErMin= 7 ErrMin= 8.16D-06
 ErrMax= 8.16D-06  0.00D+00 EMaxC= 1.00D-01 BMatC= 6.47D-09 BMatP= 3.94D-08
 IDIUse=1 WtCom= 1.00D+00 WtEn= 0.00D+00
 Coeff-Com: -0.905D-04 0.309D-03 0.150D-02 0.143D-01-0.132D+00 0.279D+00
 Coeff-Com:  0.837D+00
 Coeff:     -0.905D-04 0.309D-03 0.150D-02 0.143D-01-0.132D+00 0.279D+00
 Coeff:      0.837D+00
 Gap=     0.617 Goal=   None    Shift=    0.000
 RMSDP=5.76D-07 MaxDP=1.80D-05 DE=-9.30D-08 OVMax= 4.02D-05

 Cycle   8  Pass 1  IDiag  1:
 E= -152.108972763641     Delta-E=       -0.000000007599 Rises=F Damp=F
 DIIS: error= 2.44D-06 at cycle   8 NSaved=   8.
 NSaved= 8 IEnMin= 8 EnMin= -152.108972763641     IErMin= 8 ErrMin= 2.44D-06
 ErrMax= 2.44D-06  0.00D+00 EMaxC= 1.00D-01 BMatC= 4.81D-10 BMatP= 6.47D-09
 IDIUse=1 WtCom= 1.00D+00 WtEn= 0.00D+00
 Coeff-Com:  0.258D-04-0.217D-03-0.878D-03 0.405D-02 0.121D-01-0.131D+00
 Coeff-Com:  0.654D-02 0.111D+01
 Coeff:      0.258D-04-0.217D-03-0.878D-03 0.405D-02 0.121D-01-0.131D+00
 Coeff:      0.654D-02 0.111D+01
 Gap=     0.617 Goal=   None    Shift=    0.000
 RMSDP=1.93D-07 MaxDP=4.01D-06 DE=-7.60D-09 OVMax= 1.41D-05

 Cycle   9  Pass 1  IDiag  1:
 E= -152.108972764516     Delta-E=       -0.000000000875 Rises=F Damp=F
 DIIS: error= 9.06D-07 at cycle   9 NSaved=   9.
 NSaved= 9 IEnMin= 9 EnMin= -152.108972764516     IErMin= 9 ErrMin= 9.06D-07
 ErrMax= 9.06D-07  0.00D+00 EMaxC= 1.00D-01 BMatC= 2.53D-11 BMatP= 4.81D-10
 IDIUse=1 WtCom= 1.00D+00 WtEn= 0.00D+00
 Coeff-Com:  0.890D-06 0.300D-04 0.123D-03-0.244D-02 0.856D-02 0.817D-02
 Coeff-Com: -0.642D-01-0.238D+00 0.129D+01
 Coeff:      0.890D-06 0.300D-04 0.123D-03-0.244D-02 0.856D-02 0.817D-02
 Coeff:     -0.642D-01-0.238D+00 0.129D+01
 Gap=     0.617 Goal=   None    Shift=    0.000
 RMSDP=5.72D-08 MaxDP=1.05D-06 DE=-8.75D-10 OVMax= 3.03D-06

 Cycle  10  Pass 1  IDiag  1:
 E= -152.108972764569     Delta-E=       -0.000000000054 Rises=F Damp=F
 DIIS: error= 1.01D-07 at cycle  10 NSaved=  10.
 NSaved=10 IEnMin=10 EnMin= -152.108972764569     IErMin=10 ErrMin= 1.01D-07
 ErrMax= 1.01D-07  0.00D+00 EMaxC= 1.00D-01 BMatC= 4.23D-13 BMatP= 2.53D-11
 IDIUse=1 WtCom= 1.00D+00 WtEn= 0.00D+00
 Coeff-Com: -0.601D-06-0.346D-05-0.166D-04 0.499D-03-0.189D-02-0.128D-02
 Coeff-Com:  0.161D-01 0.523D-01-0.374D+00 0.131D+01
 Coeff:     -0.601D-06-0.346D-05-0.166D-04 0.499D-03-0.189D-02-0.128D-02
 Coeff:      0.161D-01 0.523D-01-0.374D+00 0.131D+01
 Gap=     0.617 Goal=   None    Shift=    0.000
 RMSDP=7.05D-09 MaxDP=1.85D-07 DE=-5.39D-11 OVMax= 4.08D-07

 SCF Done:  E(RHF) =  -152.108972765     A.U. after   10 cycles
            NFock= 10  Conv=0.71D-08     -V/T= 2.0020
 KE= 1.518013814140D+02 PE=-4.193554294181D+02 EE= 8.647267007352D+01
 Leave Link  502 at Fri Aug 26 21:32:01 2022, MaxMem=   536870912 cpu:               3.6 elap:               1.0
 (Enter /usr/site/hpc/x86_64/glibc-2.17/broadwell/gaussian/g16_a.03/pgi-16.5/g16/l801.exe)
 Windowed orbitals will be sorted by symmetry type.
 ExpMin= 1.03D-01 ExpMax= 1.53D+04 ExpMxC= 5.22D+02 IAcc=3 IRadAn=         5 AccDes= 0.00D+00
 HarFok:  IExCor=  205 AccDes= 0.00D+00 IRadAn=         5 IDoV=-2 UseB2=F ITyADJ=14
 ICtDFT= 12500011 ScaDFX=  1.000000  1.000000  1.000000  1.000000
 Largest valence mixing into a core orbital is  1.12D-04
 Largest core mixing into a valence orbital is  1.76D-05
 Range of M.O.s used for correlation:     3   116
 NBasis=   116 NAE=    10 NBE=    10 NFC=     2 NFV=     0
 NROrb=    114 NOA=     8 NOB=     8 NVA=   106 NVB=   106
 Leave Link  801 at Fri Aug 26 21:32:01 2022, MaxMem=   536870912 cpu:               0.3 elap:               0.1
 (Enter /usr/site/hpc/x86_64/glibc-2.17/broadwell/gaussian/g16_a.03/pgi-16.5/g16/l804.exe)
 Closed-shell transformation, MDV=   536870912 ITran=4 ISComp=2.
 Unit  1 TFree=        834515 TCopy=        406125.
 Semi-Direct transformation.
 ModeAB=           4 MOrb=             8 LenV=     536374508
 LASXX=      2873146 LTotXX=     2873146 LenRXX=     5831278
 LTotAB=     2958132 MaxLAS=     5820384 LenRXY=           0
 NonZer=     8704424 LenScr=    13107200 LnRSAI=     5820384
 LnScr1=     8912896 LExtra=           0 Total=     33671758
 MaxDsk=          -1 SrtSym=           T ITran=            4
 DoSDTr:  NPSUse=  4
 JobTyp=0 Pass  1:  I=   1 to   8.
 (rs|ai) integrals will be sorted in core.
 Complete sort for first half transformation.
 First half transformation complete.
 Complete sort for second half transformation.
 Second half transformation complete.
 Spin components of T(2) and E(2):
     alpha-alpha T2 =       0.1556362765D-01 E2=     -0.6382205250D-01
     alpha-beta  T2 =       0.9186668458D-01 E2=     -0.3982557711D+00
     beta-beta   T2 =       0.1556362765D-01 E2=     -0.6382205250D-01
 ANorm=    0.1059714084D+01
 E2 =    -0.5258998761D+00 EUMP2 =    -0.15263487264067D+03
 Leave Link  804 at Fri Aug 26 21:32:02 2022, MaxMem=   536870912 cpu:               3.1 elap:               0.8
 (Enter /usr/site/hpc/x86_64/glibc-2.17/broadwell/gaussian/g16_a.03/pgi-16.5/g16/l913.exe)
 CIDS:  MDV=   536870912.
 Frozen-core window:  NFC=   2 NFV=   0.
 IFCWin=0 IBDFC=1 NFBD=     0     0 NFCmp=     0     0 NFFFC=     0     0
 Using DD3R+UMP44R for 1st iteration.
 Using DD4RQ for 2nd and later iterations.
 Keep R2 and R3 ints in memory in symmetry-blocked form, NReq=35357534.
 FoFCou: FMM=F IPFlag=           0 FMFlag=           0 FMFlg1=           0
         NFxFlg=           0 DoJE=F BraDBF=F KetDBF=F FulRan=T
         wScrn=  0.000000 ICntrl=       600 IOpCl=  0 I1Cent=           0 NGrid=           0
         NMat0=    1 NMatS0=   6786 NMatT0=    0 NMatD0=    1 NMtDS0=    0 NMtDT0=    0
 Petite list used in FoFCou.
 CIDS: In Core Option IDoMem=           1.
 CCSD(T)
 =======
 Iterations=  50 Convergence= 0.100D-06
 Produce multiple copies of IABC intergrals
 Iteration Nr.   1
 **********************
 DD1Dir will call FoFMem   1 times, MxPair=        72
 NAB=    36 NAA=     0 NBB=     0.
 MP4(R+Q)=  0.75458819D-02
 Maximum subspace dimension=  5
 A-vector RMS=  1.7427026D-03 Max=  6.1871238D-03 conv= 1.00D-05.
 RLE energy=       -0.5258145420
 E3=       -0.75312185D-02        EUMP3=      -0.15264240386D+03
 E4(DQ)=   -0.15492113D-02        UMP4(DQ)=   -0.15264395307D+03
 E4(SDQ)=  -0.46019374D-02        UMP4(SDQ)=  -0.15264700580D+03
 VARIATIONAL ENERGIES WITH THE FIRST-ORDER WAVEFUNCTION:
 DE(Corr)= -0.52581454     E(Corr)=     -152.63478730    
 NORM(A)=   0.10600694D+01
 Iteration Nr.   2
 **********************
 DD1Dir will call FoFMem   1 times, MxPair=        72
 NAB=    36 NAA=     0 NBB=     0.
 A-vector RMS=  2.1289586D-04 Max=  2.3163512D-03 conv= 1.00D-05.
 RLE energy=       -0.5368607694
 DE(Corr)= -0.53570487     E(CORR)=     -152.64467763     Delta=-9.89D-03
 NORM(A)=   0.10638094D+01
 Iteration Nr.   3
 **********************
 DD1Dir will call FoFMem   1 times, MxPair=        72
 NAB=    36 NAA=     0 NBB=     0.
 A-vector RMS=  1.4104911D-04 Max=  7.6850894D-04 conv= 1.00D-05.
 RLE energy=       -0.5373559452
 DE(Corr)= -0.53677131     E(CORR)=     -152.64574407     Delta=-1.07D-03
 NORM(A)=   0.10644446D+01
 Iteration Nr.   4
 **********************
 DD1Dir will call FoFMem   1 times, MxPair=        72
 NAB=    36 NAA=     0 NBB=     0.
 A-vector RMS=  2.6791637D-05 Max=  1.3861327D-04 conv= 1.00D-05.
 RLE energy=       -0.5374385058
 DE(Corr)= -0.53740348     E(CORR)=     -152.64637625     Delta=-6.32D-04
 NORM(A)=   0.10645546D+01
 Iteration Nr.   5
 **********************
 DD1Dir will call FoFMem   1 times, MxPair=        72
 NAB=    36 NAA=     0 NBB=     0.
 A-vector RMS=  1.8580886D-05 Max=  1.3987851D-04 conv= 1.00D-05.
 RLE energy=       -0.5374471867
 DE(Corr)= -0.53744042     E(CORR)=     -152.64641318     Delta=-3.69D-05
 NORM(A)=   0.10645641D+01
 Iteration Nr.   6
 **********************
 DD1Dir will call FoFMem   1 times, MxPair=        72
 NAB=    36 NAA=     0 NBB=     0.
 A-vector RMS=  5.6490126D-06 Max=  4.4366966D-05 conv= 1.00D-05.
 RLE energy=       -0.5374383010
 DE(Corr)= -0.53744361     E(CORR)=     -152.64641638     Delta=-3.20D-06
 NORM(A)=   0.10645640D+01
 Iteration Nr.   7
 **********************
 DD1Dir will call FoFMem   1 times, MxPair=        72
 NAB=    36 NAA=     0 NBB=     0.
 A-vector RMS=  2.6663373D-06 Max=  1.9512113D-05 conv= 1.00D-05.
 RLE energy=       -0.5374443469
 DE(Corr)= -0.53744377     E(CORR)=     -152.64641654     Delta=-1.61D-07
 NORM(A)=   0.10645662D+01
 Iteration Nr.   8
 **********************
 DD1Dir will call FoFMem   1 times, MxPair=        72
 NAB=    36 NAA=     0 NBB=     0.
 A-vector RMS=  7.4190681D-07 Max=  6.5536202D-06 conv= 1.00D-05.
 RLE energy=       -0.5374431584
 DE(Corr)= -0.53744333     E(CORR)=     -152.64641610     Delta= 4.40D-07
 NORM(A)=   0.10645663D+01
 Iteration Nr.   9
 **********************
 DD1Dir will call FoFMem   1 times, MxPair=        72
 NAB=    36 NAA=     0 NBB=     0.
 A-vector RMS=  1.7110094D-07 Max=  1.6287347D-06 conv= 1.00D-05.
 RLE energy=       -0.5374434569
 DE(Corr)= -0.53744353     E(CORR)=     -152.64641629     Delta=-1.94D-07
 NORM(A)=   0.10645666D+01
 Iteration Nr.  10
 **********************
 DD1Dir will call FoFMem   1 times, MxPair=        72
 NAB=    36 NAA=     0 NBB=     0.
 A-vector RMS=  6.4025548D-08 Max=  5.0257464D-07 conv= 1.00D-05.
 RLE energy=       -0.5374436048
 DE(Corr)= -0.53744358     E(CORR)=     -152.64641635     Delta=-5.43D-08
 NORM(A)=   0.10645667D+01
 CI/CC converged in   10 iterations to DelEn=-5.43D-08 Conv= 1.00D-07 ErrA1= 6.40D-08 Conv= 1.00D-05
 Wavefunction amplitudes converged. E(Corr)=     -152.64641635    
 Largest amplitude= 4.79D-02
 IPart=  4 IA=    7   11.05% done.
 IPart=  1 IA=   13   21.46% done.
 IPart=  3 IA=   19   31.21% done.
 IPart=  2 IA=   25   40.32% done.
 IPart=  2 IA=   32   50.13% done.
 IPart=  3 IA=   40   60.27% done.
 IPart=  3 IA=   49   70.30% done.
 IPart=  1 IA=   60   80.58% done.
 IPart=  3 IA=   74   90.51% done.
 Time for triples=       45.82 seconds.
 T4(CCSD)= -0.16028505D-01
 T5(CCSD)=  0.40236828D-03
 CCSD(T)= -0.15266204248D+03
 Discarding MO integrals.
 Leave Link  913 at Fri Aug 26 21:32:19 2022, MaxMem=   536870912 cpu:              69.0 elap:              17.4
 (Enter /usr/site/hpc/x86_64/glibc-2.17/broadwell/gaussian/g16_a.03/pgi-16.5/g16/l601.exe)
 Copying SCF densities to generalized density rwf, IOpCl= 0 IROHF=0.

 **********************************************************************

            Population analysis using the SCF density.

 **********************************************************************

 Orbital symmetries:
       Occupied  (A') (A') (A') (A') (A') (A') (A') (A') (A") (A")
       Virtual   (A') (A') (A') (A') (A') (A') (A') (A') (A') (A')
                 (A") (A') (A") (A') (A') (A") (A") (A') (A") (A")
                 (A') (A') (A') (A') (A') (A') (A') (A') (A") (A")
                 (A") (A") (A') (A') (A') (A') (A') (A') (A') (A')
                 (A') (A') (A") (A") (A') (A') (A") (A") (A') (A')
                 (A") (A") (A') (A') (A') (A') (A") (A") (A") (A")
                 (A') (A') (A') (A') (A") (A") (A') (A') (A') (A')
                 (A") (A") (A') (A') (A') (A') (A') (A') (A') (A')
                 (A") (A") (A') (A') (A") (A") (A") (A") (A') (A')
                 (A") (A") (A') (A') (A') (A') (A") (A") (A') (A')
                 (A') (A') (A') (A') (A') (A')
 The electronic state is 1-A'.
 Alpha  occ. eigenvalues --  -20.56481 -20.54718  -1.33771  -1.32031  -0.71179
 Alpha  occ. eigenvalues --   -0.69422  -0.57279  -0.55505  -0.50892  -0.49157
 Alpha virt. eigenvalues --    0.12557   0.15535   0.19476   0.21938   0.53399
 Alpha virt. eigenvalues --    0.55114   0.56419   0.58145   0.67138   0.69306
 Alpha virt. eigenvalues --    0.78014   0.78783   0.79686   0.80005   0.82967
 Alpha virt. eigenvalues --    0.83990   0.85686   0.87512   0.96354   0.98085
 Alpha virt. eigenvalues --    1.13747   1.15391   1.17737   1.18056   1.50827
 Alpha virt. eigenvalues --    1.51146   1.52648   1.53261   1.99716   2.01462
 Alpha virt. eigenvalues --    2.05795   2.07539   2.08880   2.10233   2.14022
 Alpha virt. eigenvalues --    2.15765   2.25500   2.25884   2.60580   2.62754
 Alpha virt. eigenvalues --    2.91905   2.94805   3.38465   3.40198   3.49028
 Alpha virt. eigenvalues --    3.50774   3.52237   3.53957   3.58623   3.60433
 Alpha virt. eigenvalues --    3.77729   3.79470   3.84561   3.86172   3.87219
 Alpha virt. eigenvalues --    3.88492   3.92682   3.94419   4.02128   4.03887
 Alpha virt. eigenvalues --    4.07266   4.09088   4.14360   4.16221   4.29202
 Alpha virt. eigenvalues --    4.30954   4.39191   4.40801   4.44705   4.46445
 Alpha virt. eigenvalues --    4.65593   4.67325   4.80139   4.81828   5.03417
 Alpha virt. eigenvalues --    5.05145   5.23156   5.24943   5.53175   5.54919
 Alpha virt. eigenvalues --    5.96950   5.98706   6.39436   6.41210   6.85212
 Alpha virt. eigenvalues --    6.86969   6.88706   6.90456   6.93659   6.95474
 Alpha virt. eigenvalues --    6.98136   6.99897   7.07049   7.08679   7.12122
 Alpha virt. eigenvalues --    7.13367   7.17306   7.19070   7.46213   7.48208
 Alpha virt. eigenvalues --    7.69411   7.71171   8.14114   8.16214  12.47296
 Alpha virt. eigenvalues --   12.52780
          Condensed to atoms (all electrons):
               1          2          3          4          5          6
     1  O    7.822998   0.346627   0.345461  -0.000029   0.000001   0.000008
     2  H    0.346627   0.426815  -0.037118   0.001359  -0.000046  -0.000087
     3  H    0.345461  -0.037118   0.440478  -0.000026   0.000001   0.000005
     4  O   -0.000029   0.001359  -0.000026   7.824463   0.345537   0.342651
     5  H    0.000001  -0.000046   0.000001   0.345537   0.429634  -0.035105
     6  H    0.000008  -0.000087   0.000005   0.342651  -0.035105   0.437135
 Mulliken charges:
               1
     1  O   -0.515066
     2  H    0.262450
     3  H    0.251199
     4  O   -0.513955
     5  H    0.259978
     6  H    0.255394
 Sum of Mulliken charges =  -0.00000
 Mulliken charges with hydrogens summed into heavy atoms:
               1
     1  O   -0.001417
     4  O    0.001417
 Electronic spatial extent (au):  <R**2>=            447.2628
 Charge=             -0.0000 electrons
 Dipole moment (field-independent basis, Debye):
    X=             -2.2802    Y=             -3.0858    Z=              0.0000  Tot=              3.8369
 Quadrupole moment (field-independent basis, Debye-Ang):
   XX=             -9.5632   YY=             -7.2325   ZZ=            -14.7168
   XY=             -4.0363   XZ=              0.0000   YZ=             -0.0000
 Traceless Quadrupole moment (field-independent basis, Debye-Ang):
   XX=              0.9409   YY=              3.2717   ZZ=             -4.2126
   XY=             -4.0363   XZ=              0.0000   YZ=             -0.0000
 Octapole moment (field-independent basis, Debye-Ang**2):
  XXX=             -3.1044  YYY=            -47.5487  ZZZ=              0.0000  XYY=            -14.0552
  XXY=             -3.3202  XXZ=              0.0000  XZZ=             -0.2975  YZZ=             -0.4338
  YYZ=              0.0000  XYZ=              0.0000
 Hexadecapole moment (field-independent basis, Debye-Ang**3):
 XXXX=            -11.3308 YYYY=           -342.8191 ZZZZ=            -11.3466 XXXY=              0.5221
 XXXZ=             -0.0000 YYYX=            -48.9633 YYYZ=              0.0000 ZZZX=             -0.0000
 ZZZY=              0.0000 XXYY=            -51.7955 XXZZ=             -4.4166 YYZZ=            -88.5515
 XXYZ=              0.0000 YYXZ=              0.0000 ZZXY=              0.7978
 N-N= 2.897240516607D+01 E-N=-4.193554283001D+02  KE= 1.518013814140D+02
 Symmetry A'   KE= 1.427654722995D+02
 Symmetry A"   KE= 9.035909114469D+00
 Leave Link  601 at Fri Aug 26 21:32:19 2022, MaxMem=   536870912 cpu:               0.1 elap:               0.0
 (Enter /usr/site/hpc/x86_64/glibc-2.17/broadwell/gaussian/g16_a.03/pgi-16.5/g16/l9999.exe)
 1\1\GINC-N004\SP\RCCSD(T)-FC\CC-pVTZ\H4O2\C7441284\26-Aug-2022\0\\#p C
 CSD(T)/cc-pVTZ\\H2O_H2O_3409\\0,1\O,0,0.,-0.009833,0.\H,0,-0.799571,-0
 .580965,0.\H,0,0.799571,-0.580965,0.\O,0,-3.873378,-2.771019,0.\H,0,-4
 .855501,-2.80168,0.\H,0,-3.525863,-3.690116,0.\\Version=ES64L-G16RevA.
 03\State=1-A'\HF=-152.1089728\MP2=-152.6348726\MP3=-152.6424039\MP4D=-
 152.651499\MP4DQ=-152.6439531\MP4SDQ=-152.6470058\CCSD=-152.6464163\CC
 SD(T)=-152.6620425\RMSD=7.052e-09\PG=CS [SG(H4O2)]\\@


 Any fool can criticize, condemn, and complain -- and most do.
 -- Dale Carnegie
 Job cpu time:       0 days  0 hours  1 minutes 18.2 seconds.
 Elapsed time:       0 days  0 hours  0 minutes 20.0 seconds.
 File lengths (MBytes):  RWF=    328 Int=      0 D2E=      0 Chk=      8 Scr=      8
 Normal termination of Gaussian 16 at Fri Aug 26 21:32:19 2022.
