 Entering Gaussian System, Link 0=g16
 Input=H2O_H2O_152.com
 Output=H2O_H2O_152.log
 Initial command:
 /usr/site/hpc/x86_64/glibc-2.17/broadwell/gaussian/g16_a.03/pgi-16.5/g16/l1.exe "/gpfs/gpfs1/scratch/c7441284/ForceFieldModel/FittingData2/Gau-4095100.inp" -scrdir="/gpfs/gpfs1/scratch/c7441284/ForceFieldModel/FittingData2/"
 Entering Link 1 = /usr/site/hpc/x86_64/glibc-2.17/broadwell/gaussian/g16_a.03/pgi-16.5/g16/l1.exe PID=   4095101.
  
 Copyright (c) 1988,1990,1992,1993,1995,1998,2003,2009,2016,
            Gaussian, Inc.  All Rights Reserved.
  
 This is part of the Gaussian(R) 16 program.  It is based on
 the Gaussian(R) 09 system (copyright 2009, Gaussian, Inc.),
 the Gaussian(R) 03 system (copyright 2003, Gaussian, Inc.),
 the Gaussian(R) 98 system (copyright 1998, Gaussian, Inc.),
 the Gaussian(R) 94 system (copyright 1995, Gaussian, Inc.),
 the Gaussian 92(TM) system (copyright 1992, Gaussian, Inc.),
 the Gaussian 90(TM) system (copyright 1990, Gaussian, Inc.),
 the Gaussian 88(TM) system (copyright 1988, Gaussian, Inc.),
 the Gaussian 86(TM) system (copyright 1986, Carnegie Mellon
 University), and the Gaussian 82(TM) system (copyright 1983,
 Carnegie Mellon University). Gaussian is a federally registered
 trademark of Gaussian, Inc.
  
 This software contains proprietary and confidential information,
 including trade secrets, belonging to Gaussian, Inc.
  
 This software is provided under written license and may be
 used, copied, transmitted, or stored only in accord with that
 written license.
  
 The following legend is applicable only to US Government
 contracts under FAR:
  
                    RESTRICTED RIGHTS LEGEND
  
 Use, reproduction and disclosure by the US Government is
 subject to restrictions as set forth in subparagraphs (a)
 and (c) of the Commercial Computer Software - Restricted
 Rights clause in FAR 52.227-19.
  
 Gaussian, Inc.
 340 Quinnipiac St., Bldg. 40, Wallingford CT 06492
  
  
 ---------------------------------------------------------------
 Warning -- This program may not be used in any manner that
 competes with the business of Gaussian, Inc. or will provide
 assistance to any competitor of Gaussian, Inc.  The licensee
 of this program is prohibited from giving any competitor of
 Gaussian, Inc. access to this program.  By using this program,
 the user acknowledges that Gaussian, Inc. is engaged in the
 business of creating and licensing software in the field of
 computational chemistry and represents and warrants to the
 licensee that it is not a competitor of Gaussian, Inc. and that
 it will not use this program in any manner prohibited above.
 ---------------------------------------------------------------
  

 Cite this work as:
 Gaussian 16, Revision A.03,
 M. J. Frisch, G. W. Trucks, H. B. Schlegel, G. E. Scuseria, 
 M. A. Robb, J. R. Cheeseman, G. Scalmani, V. Barone, 
 G. A. Petersson, H. Nakatsuji, X. Li, M. Caricato, A. V. Marenich, 
 J. Bloino, B. G. Janesko, R. Gomperts, B. Mennucci, H. P. Hratchian, 
 J. V. Ortiz, A. F. Izmaylov, J. L. Sonnenberg, D. Williams-Young, 
 F. Ding, F. Lipparini, F. Egidi, J. Goings, B. Peng, A. Petrone, 
 T. Henderson, D. Ranasinghe, V. G. Zakrzewski, J. Gao, N. Rega, 
 G. Zheng, W. Liang, M. Hada, M. Ehara, K. Toyota, R. Fukuda, 
 J. Hasegawa, M. Ishida, T. Nakajima, Y. Honda, O. Kitao, H. Nakai, 
 T. Vreven, K. Throssell, J. A. Montgomery, Jr., J. E. Peralta, 
 F. Ogliaro, M. J. Bearpark, J. J. Heyd, E. N. Brothers, K. N. Kudin, 
 V. N. Staroverov, T. A. Keith, R. Kobayashi, J. Normand, 
 K. Raghavachari, A. P. Rendell, J. C. Burant, S. S. Iyengar, 
 J. Tomasi, M. Cossi, J. M. Millam, M. Klene, C. Adamo, R. Cammi, 
 J. W. Ochterski, R. L. Martin, K. Morokuma, O. Farkas, 
 J. B. Foresman, and D. J. Fox, Gaussian, Inc., Wallingford CT, 2016.
 
 ******************************************
 Gaussian 16:  ES64L-G16RevA.03 25-Dec-2016
                26-Aug-2022 
 ******************************************
 %NProcShared=4
 Will use up to    4 processors via shared memory.
 %Mem=4GB
 %Chk=H2O_H2O_152.chk
 ------------------
 #p CCSD(T)/cc-pVTZ
 ------------------
 1/38=1,172=1/1;
 2/12=2,17=6,18=5,40=1/2;
 3/5=16,6=1,11=9,25=1,30=1/1,2,3;
 4//1;
 5/5=2,38=5/2;
 8/6=4,9=120000,10=1/1,4;
 9/5=7,14=2/13;
 6/7=2,8=2,9=2,10=2/1;
 99/5=1,9=1/99;
 Leave Link    1 at Fri Aug 26 16:13:05 2022, MaxMem=   536870912 cpu:               0.8 elap:               0.3
 (Enter /usr/site/hpc/x86_64/glibc-2.17/broadwell/gaussian/g16_a.03/pgi-16.5/g16/l101.exe)
 -----------
 H2O_H2O_152
 -----------
 Symbolic Z-matrix:
 Charge =  0 Multiplicity = 1
 O                     0.       -0.00983   0. 
 H                    -0.79957  -0.58097   0. 
 H                     0.79957  -0.58097   0. 
 O                    -1.75944  -1.2656    0. 
 H                    -2.62672  -1.72748   0. 
 H                    -1.04126  -1.93621   0. 
 
 ITRead=  0  0  0  0  0  0
 MicOpt= -1 -1 -1 -1 -1 -1
 NAtoms=      6 NQM=        6 NQMF=       0 NMMI=      0 NMMIF=      0
                NMic=       0 NMicF=      0.
                    Isotopes and Nuclear Properties:
 (Nuclear quadrupole moments (NQMom) in fm**2, nuclear magnetic moments (NMagM)
  in nuclear magnetons)

  Atom         1           2           3           4           5           6
 IAtWgt=          16           1           1          16           1           1
 AtmWgt=  15.9949146   1.0078250   1.0078250  15.9949146   1.0078250   1.0078250
 NucSpn=           0           1           1           0           1           1
 AtZEff=  -0.0000000  -0.0000000  -0.0000000  -0.0000000  -0.0000000  -0.0000000
 NQMom=    0.0000000   0.0000000   0.0000000   0.0000000   0.0000000   0.0000000
 NMagM=    0.0000000   2.7928460   2.7928460   0.0000000   2.7928460   2.7928460
 AtZNuc=   8.0000000   1.0000000   1.0000000   8.0000000   1.0000000   1.0000000
 Leave Link  101 at Fri Aug 26 16:13:05 2022, MaxMem=   536870912 cpu:               0.7 elap:               0.2
 (Enter /usr/site/hpc/x86_64/glibc-2.17/broadwell/gaussian/g16_a.03/pgi-16.5/g16/l202.exe)
                          Input orientation:                          
 ---------------------------------------------------------------------
 Center     Atomic      Atomic             Coordinates (Angstroms)
 Number     Number       Type             X           Y           Z
 ---------------------------------------------------------------------
      1          8           0        0.000000   -0.009833    0.000000
      2          1           0       -0.799571   -0.580965    0.000000
      3          1           0        0.799571   -0.580965    0.000000
      4          8           0       -1.759442   -1.265597    0.000000
      5          1           0       -2.626720   -1.727478    0.000000
      6          1           0       -1.041259   -1.936208    0.000000
 ---------------------------------------------------------------------
                    Distance matrix (angstroms):
                    1          2          3          4          5
     1  O    0.000000
     2  H    0.982601   0.000000
     3  H    0.982601   1.599142   0.000000
     4  O    2.161615   1.179014   2.649013   0.000000
     5  H    3.138465   2.157073   3.613027   0.982601   0.000000
     6  H    2.189781   1.376625   2.285900   0.982602   1.599142
                    6
     6  H    0.000000
 Stoichiometry    H4O2
 Framework group  CS[SG(H4O2)]
 Deg. of freedom     9
 Full point group                 CS      NOp   2
 Largest Abelian subgroup         CS      NOp   2
 Largest concise Abelian subgroup C1      NOp   1
                         Standard orientation:                         
 ---------------------------------------------------------------------
 Center     Atomic      Atomic             Coordinates (Angstroms)
 Number     Number       Type             X           Y           Z
 ---------------------------------------------------------------------
      1          8           0        0.088246   -1.152950    0.000000
      2          1           0        0.087875   -0.170349    0.000000
      3          1           0       -0.841127   -1.471967    0.000000
      4          8           0        0.088246    1.008665    0.000000
      5          1           0        0.216133    1.982908    0.000000
      6          1           0       -0.874816    0.813685    0.000000
 ---------------------------------------------------------------------
 Rotational constants (GHZ):         293.9417027          11.3936253          10.9684707
 Leave Link  202 at Fri Aug 26 16:13:05 2022, MaxMem=   536870912 cpu:               0.0 elap:               0.0
 (Enter /usr/site/hpc/x86_64/glibc-2.17/broadwell/gaussian/g16_a.03/pgi-16.5/g16/l301.exe)
 Standard basis: CC-pVTZ (5D, 7F)
 Ernie: Thresh=  0.10000D-02 Tol=  0.10000D-05 Strict=F.
 Ernie:  6 primitive shells out of 84 were deleted.
 There are    92 symmetry adapted cartesian basis functions of A'  symmetry.
 There are    38 symmetry adapted cartesian basis functions of A"  symmetry.
 There are    80 symmetry adapted basis functions of A'  symmetry.
 There are    36 symmetry adapted basis functions of A"  symmetry.
   116 basis functions,   172 primitive gaussians,   130 cartesian basis functions
    10 alpha electrons       10 beta electrons
       nuclear repulsion energy        43.0415268909 Hartrees.
 IExCor=    0 DFT=F Ex=HF Corr=None ExCW=0 ScaHFX=  1.000000
 ScaDFX=  1.000000  1.000000  1.000000  1.000000 ScalE2=  1.000000  1.000000
 IRadAn=      5 IRanWt=     -1 IRanGd=            0 ICorTp=0 IEmpDi=  4
 NAtoms=    6 NActive=    6 NUniq=    6 SFac= 1.00D+00 NAtFMM=   60 NAOKFM=F Big=F
 Integral buffers will be    131072 words long.
 Raffenetti 1 integral format.
 Two-electron integral symmetry is turned on.
 Leave Link  301 at Fri Aug 26 16:13:05 2022, MaxMem=   536870912 cpu:               0.2 elap:               0.0
 (Enter /usr/site/hpc/x86_64/glibc-2.17/broadwell/gaussian/g16_a.03/pgi-16.5/g16/l302.exe)
 NPDir=0 NMtPBC=     1 NCelOv=     1 NCel=       1 NClECP=     1 NCelD=      1
         NCelK=      1 NCelE2=     1 NClLst=     1 CellRange=     0.0.
 One-electron integrals computed using PRISM.
 One-electron integral symmetry used in STVInt
 NBasis=   116 RedAO= T EigKep=  1.71D-03  NBF=    80    36
 NBsUse=   116 1.00D-06 EigRej= -1.00D+00 NBFU=    80    36
 Leave Link  302 at Fri Aug 26 16:13:05 2022, MaxMem=   536870912 cpu:               0.5 elap:               0.1
 (Enter /usr/site/hpc/x86_64/glibc-2.17/broadwell/gaussian/g16_a.03/pgi-16.5/g16/l303.exe)
 DipDrv:  MaxL=1.
 Leave Link  303 at Fri Aug 26 16:13:05 2022, MaxMem=   536870912 cpu:               0.1 elap:               0.0
 (Enter /usr/site/hpc/x86_64/glibc-2.17/broadwell/gaussian/g16_a.03/pgi-16.5/g16/l401.exe)
 ExpMin= 1.03D-01 ExpMax= 1.53D+04 ExpMxC= 5.22D+02 IAcc=3 IRadAn=         5 AccDes= 0.00D+00
 Harris functional with IExCor=  205 and IRadAn=       5 diagonalized for initial guess.
 HarFok:  IExCor=  205 AccDes= 0.00D+00 IRadAn=         5 IDoV= 1 UseB2=F ITyADJ=14
 ICtDFT=  3500011 ScaDFX=  1.000000  1.000000  1.000000  1.000000
 FoFCou: FMM=F IPFlag=           0 FMFlag=      100000 FMFlg1=           0
         NFxFlg=           0 DoJE=T BraDBF=F KetDBF=T FulRan=T
         wScrn=  0.000000 ICntrl=       500 IOpCl=  0 I1Cent=   200000004 NGrid=           0
         NMat0=    1 NMatS0=      1 NMatT0=    0 NMatD0=    1 NMtDS0=    0 NMtDT0=    0
 Petite list used in FoFCou.
 Harris En= -152.277057152797    
 JPrj=0 DoOrth=F DoCkMO=F.
 Initial guess orbital symmetries:
       Occupied  (A') (A') (A') (A') (A') (A') (A') (A') (A") (A")
       Virtual   (A') (A') (A') (A') (A') (A') (A') (A') (A") (A')
                 (A') (A") (A') (A") (A') (A") (A') (A") (A') (A')
                 (A") (A') (A') (A') (A') (A') (A') (A") (A") (A")
                 (A') (A') (A') (A') (A') (A') (A") (A') (A') (A')
                 (A') (A") (A') (A') (A") (A") (A') (A") (A') (A")
                 (A') (A") (A') (A") (A') (A') (A") (A") (A') (A')
                 (A") (A') (A') (A") (A') (A") (A') (A") (A') (A')
                 (A') (A') (A') (A") (A') (A') (A') (A') (A') (A")
                 (A") (A') (A') (A') (A") (A") (A") (A") (A') (A")
                 (A") (A') (A') (A") (A') (A') (A') (A') (A') (A")
                 (A') (A') (A') (A') (A') (A')
 The electronic state of the initial guess is 1-A'.
 Leave Link  401 at Fri Aug 26 16:13:05 2022, MaxMem=   536870912 cpu:               0.9 elap:               0.2
 (Enter /usr/site/hpc/x86_64/glibc-2.17/broadwell/gaussian/g16_a.03/pgi-16.5/g16/l502.exe)
 Keep R1 ints in memory in symmetry-blocked form, NReq=34823457.
 FoFCou: FMM=F IPFlag=           0 FMFlag=           0 FMFlg1=           0
         NFxFlg=           0 DoJE=F BraDBF=F KetDBF=F FulRan=T
         wScrn=  0.000000 ICntrl=       600 IOpCl=  0 I1Cent=           0 NGrid=           0
         NMat0=    1 NMatS0=   6786 NMatT0=    0 NMatD0=    1 NMtDS0=    0 NMtDT0=    0
 Petite list used in FoFCou.
 Closed shell SCF:
 Using DIIS extrapolation, IDIIS=  1040.
 NGot=   536870912 LenX=   525040673 LenY=   525023332
 Requested convergence on RMS density matrix=1.00D-08 within 128 cycles.
 Requested convergence on MAX density matrix=1.00D-06.
 Requested convergence on             energy=1.00D-06.
 No special actions if energy rises.

 Cycle   1  Pass 1  IDiag  1:
 E= -151.859940049146    
 DIIS: error= 6.39D-02 at cycle   1 NSaved=   1.
 NSaved= 1 IEnMin= 1 EnMin= -151.859940049146     IErMin= 1 ErrMin= 6.39D-02
 ErrMax= 6.39D-02  0.00D+00 EMaxC= 1.00D-01 BMatC= 4.10D-01 BMatP= 4.10D-01
 IDIUse=3 WtCom= 3.61D-01 WtEn= 6.39D-01
 Coeff-Com:  0.100D+01
 Coeff-En:   0.100D+01
 Coeff:      0.100D+01
 Gap=     0.415 Goal=   None    Shift=    0.000
 GapD=    0.415 DampG=2.000 DampE=0.500 DampFc=1.0000 IDamp=-1.
 RMSDP=3.56D-03 MaxDP=1.06D-01              OVMax= 1.49D-01

 Cycle   2  Pass 1  IDiag  1:
 E= -151.980232654402     Delta-E=       -0.120292605256 Rises=F Damp=F
 DIIS: error= 3.79D-02 at cycle   2 NSaved=   2.
 NSaved= 2 IEnMin= 2 EnMin= -151.980232654402     IErMin= 2 ErrMin= 3.79D-02
 ErrMax= 3.79D-02  0.00D+00 EMaxC= 1.00D-01 BMatC= 1.09D-01 BMatP= 4.10D-01
 IDIUse=3 WtCom= 6.21D-01 WtEn= 3.79D-01
 Coeff-Com:  0.311D+00 0.689D+00
 Coeff-En:   0.130D+00 0.870D+00
 Coeff:      0.242D+00 0.758D+00
 Gap=     0.577 Goal=   None    Shift=    0.000
 RMSDP=1.92D-03 MaxDP=5.67D-02 DE=-1.20D-01 OVMax= 7.17D-02

 Cycle   3  Pass 1  IDiag  1:
 E= -152.043261155477     Delta-E=       -0.063028501075 Rises=F Damp=F
 DIIS: error= 9.51D-03 at cycle   3 NSaved=   3.
 NSaved= 3 IEnMin= 3 EnMin= -152.043261155477     IErMin= 3 ErrMin= 9.51D-03
 ErrMax= 9.51D-03  0.00D+00 EMaxC= 1.00D-01 BMatC= 6.73D-03 BMatP= 1.09D-01
 IDIUse=3 WtCom= 9.05D-01 WtEn= 9.51D-02
 Coeff-Com: -0.319D-01 0.165D+00 0.867D+00
 Coeff-En:   0.000D+00 0.000D+00 0.100D+01
 Coeff:     -0.288D-01 0.150D+00 0.879D+00
 Gap=     0.539 Goal=   None    Shift=    0.000
 RMSDP=3.07D-04 MaxDP=8.91D-03 DE=-6.30D-02 OVMax= 1.67D-02

 Cycle   4  Pass 1  IDiag  1:
 E= -152.047423830279     Delta-E=       -0.004162674802 Rises=F Damp=F
 DIIS: error= 7.75D-04 at cycle   4 NSaved=   4.
 NSaved= 4 IEnMin= 4 EnMin= -152.047423830279     IErMin= 4 ErrMin= 7.75D-04
 ErrMax= 7.75D-04  0.00D+00 EMaxC= 1.00D-01 BMatC= 5.13D-05 BMatP= 6.73D-03
 IDIUse=3 WtCom= 9.92D-01 WtEn= 7.75D-03
 Coeff-Com: -0.673D-03-0.228D-01-0.348D-01 0.106D+01
 Coeff-En:   0.000D+00 0.000D+00 0.000D+00 0.100D+01
 Coeff:     -0.668D-03-0.227D-01-0.345D-01 0.106D+01
 Gap=     0.545 Goal=   None    Shift=    0.000
 RMSDP=6.90D-05 MaxDP=1.33D-03 DE=-4.16D-03 OVMax= 2.47D-03

 Cycle   5  Pass 1  IDiag  1:
 E= -152.047481527329     Delta-E=       -0.000057697050 Rises=F Damp=F
 DIIS: error= 3.38D-04 at cycle   5 NSaved=   5.
 NSaved= 5 IEnMin= 5 EnMin= -152.047481527329     IErMin= 5 ErrMin= 3.38D-04
 ErrMax= 3.38D-04  0.00D+00 EMaxC= 1.00D-01 BMatC= 9.15D-06 BMatP= 5.13D-05
 IDIUse=3 WtCom= 9.97D-01 WtEn= 3.38D-03
 Coeff-Com:  0.400D-02-0.287D-01-0.122D+00 0.294D+00 0.853D+00
 Coeff-En:   0.000D+00 0.000D+00 0.000D+00 0.000D+00 0.100D+01
 Coeff:      0.398D-02-0.286D-01-0.122D+00 0.293D+00 0.853D+00
 Gap=     0.544 Goal=   None    Shift=    0.000
 RMSDP=2.60D-05 MaxDP=4.44D-04 DE=-5.77D-05 OVMax= 1.07D-03

 Cycle   6  Pass 1  IDiag  1:
 E= -152.047491122836     Delta-E=       -0.000009595507 Rises=F Damp=F
 DIIS: error= 9.31D-05 at cycle   6 NSaved=   6.
 NSaved= 6 IEnMin= 6 EnMin= -152.047491122836     IErMin= 6 ErrMin= 9.31D-05
 ErrMax= 9.31D-05  0.00D+00 EMaxC= 1.00D-01 BMatC= 4.13D-07 BMatP= 9.15D-06
 IDIUse=1 WtCom= 1.00D+00 WtEn= 0.00D+00
 Coeff-Com: -0.108D-03 0.256D-02 0.107D-01-0.102D+00-0.371D-01 0.113D+01
 Coeff:     -0.108D-03 0.256D-02 0.107D-01-0.102D+00-0.371D-01 0.113D+01
 Gap=     0.545 Goal=   None    Shift=    0.000
 RMSDP=7.52D-06 MaxDP=1.65D-04 DE=-9.60D-06 OVMax= 3.65D-04

 Cycle   7  Pass 1  IDiag  1:
 E= -152.047491797716     Delta-E=       -0.000000674879 Rises=F Damp=F
 DIIS: error= 1.04D-05 at cycle   7 NSaved=   7.
 NSaved= 7 IEnMin= 7 EnMin= -152.047491797716     IErMin= 7 ErrMin= 1.04D-05
 ErrMax= 1.04D-05  0.00D+00 EMaxC= 1.00D-01 BMatC= 1.08D-08 BMatP= 4.13D-07
 IDIUse=1 WtCom= 1.00D+00 WtEn= 0.00D+00
 Coeff-Com: -0.124D-03 0.610D-03 0.244D-02 0.617D-02-0.305D-01-0.195D+00
 Coeff-Com:  0.122D+01
 Coeff:     -0.124D-03 0.610D-03 0.244D-02 0.617D-02-0.305D-01-0.195D+00
 Coeff:      0.122D+01
 Gap=     0.545 Goal=   None    Shift=    0.000
 RMSDP=1.87D-06 MaxDP=3.82D-05 DE=-6.75D-07 OVMax= 9.74D-05

 Cycle   8  Pass 1  IDiag  1:
 E= -152.047491825887     Delta-E=       -0.000000028171 Rises=F Damp=F
 DIIS: error= 2.16D-06 at cycle   8 NSaved=   8.
 NSaved= 8 IEnMin= 8 EnMin= -152.047491825887     IErMin= 8 ErrMin= 2.16D-06
 ErrMax= 2.16D-06  0.00D+00 EMaxC= 1.00D-01 BMatC= 6.53D-10 BMatP= 1.08D-08
 IDIUse=1 WtCom= 1.00D+00 WtEn= 0.00D+00
 Coeff-Com:  0.127D-04-0.201D-03-0.850D-03 0.643D-02 0.426D-02-0.603D-01
 Coeff-Com: -0.287D-01 0.108D+01
 Coeff:      0.127D-04-0.201D-03-0.850D-03 0.643D-02 0.426D-02-0.603D-01
 Coeff:     -0.287D-01 0.108D+01
 Gap=     0.545 Goal=   None    Shift=    0.000
 RMSDP=3.52D-07 MaxDP=6.71D-06 DE=-2.82D-08 OVMax= 2.09D-05

 Cycle   9  Pass 1  IDiag  1:
 E= -152.047491827148     Delta-E=       -0.000000001261 Rises=F Damp=F
 DIIS: error= 8.35D-07 at cycle   9 NSaved=   9.
 NSaved= 9 IEnMin= 9 EnMin= -152.047491827148     IErMin= 9 ErrMin= 8.35D-07
 ErrMax= 8.35D-07  0.00D+00 EMaxC= 1.00D-01 BMatC= 4.77D-11 BMatP= 6.53D-10
 IDIUse=1 WtCom= 1.00D+00 WtEn= 0.00D+00
 Coeff-Com:  0.631D-05-0.120D-04-0.232D-04-0.156D-02 0.154D-02 0.211D-01
 Coeff-Com: -0.550D-01-0.248D+00 0.128D+01
 Coeff:      0.631D-05-0.120D-04-0.232D-04-0.156D-02 0.154D-02 0.211D-01
 Coeff:     -0.550D-01-0.248D+00 0.128D+01
 Gap=     0.545 Goal=   None    Shift=    0.000
 RMSDP=1.03D-07 MaxDP=1.83D-06 DE=-1.26D-09 OVMax= 7.29D-06

 Cycle  10  Pass 1  IDiag  1:
 E= -152.047491827272     Delta-E=       -0.000000000123 Rises=F Damp=F
 DIIS: error= 1.60D-07 at cycle  10 NSaved=  10.
 NSaved=10 IEnMin=10 EnMin= -152.047491827272     IErMin=10 ErrMin= 1.60D-07
 ErrMax= 1.60D-07  0.00D+00 EMaxC= 1.00D-01 BMatC= 2.62D-12 BMatP= 4.77D-11
 IDIUse=1 WtCom= 1.00D+00 WtEn= 0.00D+00
 Coeff-Com: -0.180D-05 0.129D-04 0.489D-04-0.550D-04-0.466D-03-0.896D-03
 Coeff-Com:  0.925D-02 0.554D-02-0.292D+00 0.128D+01
 Coeff:     -0.180D-05 0.129D-04 0.489D-04-0.550D-04-0.466D-03-0.896D-03
 Coeff:      0.925D-02 0.554D-02-0.292D+00 0.128D+01
 Gap=     0.545 Goal=   None    Shift=    0.000
 RMSDP=2.57D-08 MaxDP=4.75D-07 DE=-1.23D-10 OVMax= 2.00D-06

 Cycle  11  Pass 1  IDiag  1:
 E= -152.047491827279     Delta-E=       -0.000000000007 Rises=F Damp=F
 DIIS: error= 3.39D-08 at cycle  11 NSaved=  11.
 NSaved=11 IEnMin=11 EnMin= -152.047491827279     IErMin=11 ErrMin= 3.39D-08
 ErrMax= 3.39D-08  0.00D+00 EMaxC= 1.00D-01 BMatC= 1.32D-13 BMatP= 2.62D-12
 IDIUse=1 WtCom= 1.00D+00 WtEn= 0.00D+00
 Coeff-Com: -0.574D-07-0.997D-06-0.572D-05 0.796D-04 0.900D-05-0.719D-03
 Coeff-Com:  0.662D-03 0.135D-01-0.200D-01-0.229D+00 0.124D+01
 Coeff:     -0.574D-07-0.997D-06-0.572D-05 0.796D-04 0.900D-05-0.719D-03
 Coeff:      0.662D-03 0.135D-01-0.200D-01-0.229D+00 0.124D+01
 Gap=     0.545 Goal=   None    Shift=    0.000
 RMSDP=5.12D-09 MaxDP=9.46D-08 DE=-7.25D-12 OVMax= 3.94D-07

 SCF Done:  E(RHF) =  -152.047491827     A.U. after   11 cycles
            NFock= 11  Conv=0.51D-08     -V/T= 1.9990
 KE= 1.521948364426D+02 PE=-4.476006908485D+02 EE= 1.003168356878D+02
 Leave Link  502 at Fri Aug 26 16:13:07 2022, MaxMem=   536870912 cpu:               5.0 elap:               1.4
 (Enter /usr/site/hpc/x86_64/glibc-2.17/broadwell/gaussian/g16_a.03/pgi-16.5/g16/l801.exe)
 Windowed orbitals will be sorted by symmetry type.
 ExpMin= 1.03D-01 ExpMax= 1.53D+04 ExpMxC= 5.22D+02 IAcc=3 IRadAn=         5 AccDes= 0.00D+00
 HarFok:  IExCor=  205 AccDes= 0.00D+00 IRadAn=         5 IDoV=-2 UseB2=F ITyADJ=14
 ICtDFT= 12500011 ScaDFX=  1.000000  1.000000  1.000000  1.000000
 Largest valence mixing into a core orbital is  1.10D-04
 Largest core mixing into a valence orbital is  1.75D-05
 Range of M.O.s used for correlation:     3   116
 NBasis=   116 NAE=    10 NBE=    10 NFC=     2 NFV=     0
 NROrb=    114 NOA=     8 NOB=     8 NVA=   106 NVB=   106
 Leave Link  801 at Fri Aug 26 16:13:07 2022, MaxMem=   536870912 cpu:               0.3 elap:               0.1
 (Enter /usr/site/hpc/x86_64/glibc-2.17/broadwell/gaussian/g16_a.03/pgi-16.5/g16/l804.exe)
 Closed-shell transformation, MDV=   536870912 ITran=4 ISComp=2.
 Unit  1 TFree=        834515 TCopy=        406125.
 Semi-Direct transformation.
 ModeAB=           2 MOrb=             8 LenV=     536359084
 LASXX=      2873146 LTotXX=     2873146 LenRXX=     2873146
 LTotAB=     2958132 MaxLAS=     7765680 LenRXY=     7765680
 NonZer=     7990944 LenScr=    12058624 LnRSAI=           0
 LnScr1=           0 LExtra=           0 Total=     22697450
 MaxDsk=          -1 SrtSym=           F ITran=            4
 DoSDTr:  NPSUse=  4
 JobTyp=0 Pass  1:  I=   1 to   8.
 (rs|ai) integrals will be sorted in core.
 Complete sort for first half transformation.
 First half transformation complete.
 Complete sort for second half transformation.
 Second half transformation complete.
 Spin components of T(2) and E(2):
     alpha-alpha T2 =       0.1628172985D-01 E2=     -0.6705529317D-01
     alpha-beta  T2 =       0.9161042578D-01 E2=     -0.4035614077D+00
     beta-beta   T2 =       0.1628172985D-01 E2=     -0.6705529317D-01
 ANorm=    0.1060270666D+01
 E2 =    -0.5376719940D+00 EUMP2 =    -0.15258516382128D+03
 Leave Link  804 at Fri Aug 26 16:13:08 2022, MaxMem=   536870912 cpu:               5.6 elap:               1.4
 (Enter /usr/site/hpc/x86_64/glibc-2.17/broadwell/gaussian/g16_a.03/pgi-16.5/g16/l913.exe)
 CIDS:  MDV=   536870912.
 Frozen-core window:  NFC=   2 NFV=   0.
 IFCWin=0 IBDFC=1 NFBD=     0     0 NFCmp=     0     0 NFFFC=     0     0
 Using DD3R+UMP44R for 1st iteration.
 Using DD4RQ for 2nd and later iterations.
 Keep R2 and R3 ints in memory in symmetry-blocked form, NReq=35357534.
 FoFCou: FMM=F IPFlag=           0 FMFlag=           0 FMFlg1=           0
         NFxFlg=           0 DoJE=F BraDBF=F KetDBF=F FulRan=T
         wScrn=  0.000000 ICntrl=       600 IOpCl=  0 I1Cent=           0 NGrid=           0
         NMat0=    1 NMatS0=   6786 NMatT0=    0 NMatD0=    1 NMtDS0=    0 NMtDT0=    0
 Petite list used in FoFCou.
 CIDS: In Core Option IDoMem=           1.
 CCSD(T)
 =======
 Iterations=  50 Convergence= 0.100D-06
 Produce multiple copies of IABC intergrals
 Iteration Nr.   1
 **********************
 DD1Dir will call FoFMem   1 times, MxPair=        72
 NAB=    36 NAA=     0 NBB=     0.
 MP4(R+Q)=  0.84234277D-02
 Maximum subspace dimension=  5
 A-vector RMS=  2.0986288D-03 Max=  1.1515776D-02 conv= 1.00D-05.
 RLE energy=       -0.5345827073
 E3=       -0.53772582D-02        EUMP3=      -0.15259054108D+03
 E4(DQ)=   -0.49637558D-03        UMP4(DQ)=   -0.15259103746D+03
 E4(SDQ)=  -0.39731035D-02        UMP4(SDQ)=  -0.15259451418D+03
 VARIATIONAL ENERGIES WITH THE FIRST-ORDER WAVEFUNCTION:
 DE(Corr)= -0.53456486     E(Corr)=     -152.58205669    
 NORM(A)=   0.10598009D+01
 Iteration Nr.   2
 **********************
 DD1Dir will call FoFMem   1 times, MxPair=        72
 NAB=    36 NAA=     0 NBB=     0.
 A-vector RMS=  2.1976860D-04 Max=  1.9522846D-03 conv= 1.00D-05.
 RLE energy=       -0.5456726967
 DE(Corr)= -0.54481939     E(CORR)=     -152.59231122     Delta=-1.03D-02
 NORM(A)=   0.10635001D+01
 Iteration Nr.   3
 **********************
 DD1Dir will call FoFMem   1 times, MxPair=        72
 NAB=    36 NAA=     0 NBB=     0.
 A-vector RMS=  2.9756559D-04 Max=  3.2193461D-03 conv= 1.00D-05.
 RLE energy=       -0.5461652417
 DE(Corr)= -0.54553901     E(CORR)=     -152.59303083     Delta=-7.20D-04
 NORM(A)=   0.10641548D+01
 Iteration Nr.   4
 **********************
 DD1Dir will call FoFMem   1 times, MxPair=        72
 NAB=    36 NAA=     0 NBB=     0.
 A-vector RMS=  5.5520789D-05 Max=  7.7817332D-04 conv= 1.00D-05.
 RLE energy=       -0.5462319822
 DE(Corr)= -0.54619102     E(CORR)=     -152.59368285     Delta=-6.52D-04
 NORM(A)=   0.10643033D+01
 Iteration Nr.   5
 **********************
 DD1Dir will call FoFMem   1 times, MxPair=        72
 NAB=    36 NAA=     0 NBB=     0.
 A-vector RMS=  4.5559738D-05 Max=  5.9195169D-04 conv= 1.00D-05.
 RLE energy=       -0.5462578086
 DE(Corr)= -0.54624668     E(CORR)=     -152.59373850     Delta=-5.57D-05
 NORM(A)=   0.10643480D+01
 Iteration Nr.   6
 **********************
 DD1Dir will call FoFMem   1 times, MxPair=        72
 NAB=    36 NAA=     0 NBB=     0.
 A-vector RMS=  1.3589670D-05 Max=  1.4087386D-04 conv= 1.00D-05.
 RLE energy=       -0.5462553610
 DE(Corr)= -0.54625375     E(CORR)=     -152.59374557     Delta=-7.07D-06
 NORM(A)=   0.10643563D+01
 Iteration Nr.   7
 **********************
 DD1Dir will call FoFMem   1 times, MxPair=        72
 NAB=    36 NAA=     0 NBB=     0.
 A-vector RMS=  5.2065034D-06 Max=  5.9315873D-05 conv= 1.00D-05.
 RLE energy=       -0.5462491529
 DE(Corr)= -0.54625430     E(CORR)=     -152.59374613     Delta=-5.53D-07
 NORM(A)=   0.10643581D+01
 Iteration Nr.   8
 **********************
 DD1Dir will call FoFMem   1 times, MxPair=        72
 NAB=    36 NAA=     0 NBB=     0.
 A-vector RMS=  2.3954745D-06 Max=  2.9368615D-05 conv= 1.00D-05.
 RLE energy=       -0.5462533680
 DE(Corr)= -0.54625384     E(CORR)=     -152.59374566     Delta= 4.62D-07
 NORM(A)=   0.10643605D+01
 Iteration Nr.   9
 **********************
 DD1Dir will call FoFMem   1 times, MxPair=        72
 NAB=    36 NAA=     0 NBB=     0.
 A-vector RMS=  5.6295074D-07 Max=  5.4519036D-06 conv= 1.00D-05.
 RLE energy=       -0.5462534538
 DE(Corr)= -0.54625355     E(CORR)=     -152.59374538     Delta= 2.87D-07
 NORM(A)=   0.10643609D+01
 Iteration Nr.  10
 **********************
 DD1Dir will call FoFMem   1 times, MxPair=        72
 NAB=    36 NAA=     0 NBB=     0.
 A-vector RMS=  1.8885498D-07 Max=  1.8580490D-06 conv= 1.00D-05.
 RLE energy=       -0.5462538387
 DE(Corr)= -0.54625385     E(CORR)=     -152.59374568     Delta=-3.01D-07
 NORM(A)=   0.10643612D+01
 Iteration Nr.  11
 **********************
 DD1Dir will call FoFMem   1 times, MxPair=        72
 NAB=    36 NAA=     0 NBB=     0.
 A-vector RMS=  1.0800023D-07 Max=  9.6638833D-07 conv= 1.00D-05.
 RLE energy=       -0.5462539358
 DE(Corr)= -0.54625390     E(CORR)=     -152.59374573     Delta=-5.23D-08
 NORM(A)=   0.10643613D+01
 CI/CC converged in   11 iterations to DelEn=-5.23D-08 Conv= 1.00D-07 ErrA1= 1.08D-07 Conv= 1.00D-05
 Wavefunction amplitudes converged. E(Corr)=     -152.59374573    
 Largest amplitude= 3.67D-02
 IPart=  1 IA=    7   11.05% done.
 IPart=  2 IA=   13   21.46% done.
 IPart=  2 IA=   19   31.21% done.
 IPart=  3 IA=   25   40.32% done.
 IPart=  3 IA=   32   50.13% done.
 IPart=  2 IA=   40   60.27% done.
 IPart=  1 IA=   49   70.30% done.
 IPart=  1 IA=   60   80.58% done.
 IPart=  1 IA=   74   90.51% done.
 Time for triples=       53.87 seconds.
 T4(CCSD)= -0.17671101D-01
 T5(CCSD)=  0.48399598D-03
 CCSD(T)= -0.15261093284D+03
 Discarding MO integrals.
 Leave Link  913 at Fri Aug 26 16:13:29 2022, MaxMem=   536870912 cpu:              82.4 elap:              20.7
 (Enter /usr/site/hpc/x86_64/glibc-2.17/broadwell/gaussian/g16_a.03/pgi-16.5/g16/l601.exe)
 Copying SCF densities to generalized density rwf, IOpCl= 0 IROHF=0.

 **********************************************************************

            Population analysis using the SCF density.

 **********************************************************************

 Orbital symmetries:
       Occupied  (A') (A') (A') (A') (A') (A') (A") (A') (A') (A")
       Virtual   (A') (A') (A') (A') (A') (A') (A') (A') (A") (A')
                 (A") (A') (A') (A') (A") (A") (A') (A") (A') (A')
                 (A") (A') (A') (A') (A') (A') (A') (A") (A") (A')
                 (A") (A') (A') (A') (A') (A') (A") (A') (A') (A')
                 (A") (A') (A') (A') (A") (A') (A") (A') (A") (A")
                 (A') (A') (A") (A") (A') (A') (A") (A") (A") (A')
                 (A') (A') (A') (A") (A') (A") (A') (A") (A') (A')
                 (A') (A') (A") (A') (A') (A') (A') (A') (A') (A")
                 (A") (A') (A') (A') (A") (A") (A") (A") (A') (A")
                 (A") (A') (A') (A") (A') (A') (A') (A') (A') (A")
                 (A') (A') (A') (A') (A') (A')
 The electronic state is 1-A'.
 Alpha  occ. eigenvalues --  -20.61342 -20.47790  -1.42871  -1.26949  -0.82283
 Alpha  occ. eigenvalues --   -0.70652  -0.57520  -0.56983  -0.48462  -0.43757
 Alpha virt. eigenvalues --    0.10738   0.15957   0.21599   0.31898   0.49379
 Alpha virt. eigenvalues --    0.50998   0.59854   0.66357   0.71249   0.72675
 Alpha virt. eigenvalues --    0.75500   0.78079   0.79899   0.84653   0.86045
 Alpha virt. eigenvalues --    0.86852   0.96505   1.00003   1.03551   1.10097
 Alpha virt. eigenvalues --    1.16919   1.22356   1.37052   1.40160   1.50255
 Alpha virt. eigenvalues --    1.60193   1.64441   1.93333   1.98979   2.05845
 Alpha virt. eigenvalues --    2.08211   2.11691   2.19186   2.24780   2.29665
 Alpha virt. eigenvalues --    2.45442   2.46379   2.48570   2.71062   2.91652
 Alpha virt. eigenvalues --    3.14290   3.14969   3.33687   3.41552   3.43747
 Alpha virt. eigenvalues --    3.45689   3.55286   3.60159   3.68260   3.72907
 Alpha virt. eigenvalues --    3.74118   3.84406   3.86039   3.90082   3.92274
 Alpha virt. eigenvalues --    3.98857   4.01315   4.07576   4.08893   4.13543
 Alpha virt. eigenvalues --    4.14432   4.27079   4.33029   4.37809   4.40188
 Alpha virt. eigenvalues --    4.53865   4.57707   4.68583   4.74581   4.85576
 Alpha virt. eigenvalues --    4.96172   4.99893   5.04942   5.10272   5.21742
 Alpha virt. eigenvalues --    5.32145   5.44673   5.53770   5.68012   5.89863
 Alpha virt. eigenvalues --    6.13170   6.17429   6.50094   6.64801   6.77643
 Alpha virt. eigenvalues --    6.81977   6.92424   6.95363   6.97244   7.02764
 Alpha virt. eigenvalues --    7.13884   7.23157   7.25487   7.34576   7.38276
 Alpha virt. eigenvalues --    7.44083   7.53417   7.58474   7.74718   8.00917
 Alpha virt. eigenvalues --    8.12724   8.24723   8.64978   9.21192  12.96770
 Alpha virt. eigenvalues --   13.52983
          Condensed to atoms (all electrons):
               1          2          3          4          5          6
     1  O    7.968239   0.406421   0.341783  -0.131846   0.006490   0.009463
     2  H    0.406421   0.341461  -0.055561   0.061176  -0.008818  -0.010323
     3  H    0.341783  -0.055561   0.506755   0.008032  -0.000374   0.006468
     4  O   -0.131846   0.061176   0.008032   7.789376   0.301380   0.293028
     5  H    0.006490  -0.008818  -0.000374   0.301380   0.482318  -0.008027
     6  H    0.009463  -0.010323   0.006468   0.293028  -0.008027   0.473268
 Mulliken charges:
               1
     1  O   -0.600550
     2  H    0.265645
     3  H    0.192897
     4  O   -0.321146
     5  H    0.227031
     6  H    0.236122
 Sum of Mulliken charges =  -0.00000
 Mulliken charges with hydrogens summed into heavy atoms:
               1
     1  O   -0.142008
     4  O    0.142008
 Electronic spatial extent (au):  <R**2>=            123.1450
 Charge=             -0.0000 electrons
 Dipole moment (field-independent basis, Debye):
    X=             -2.7466    Y=              4.0316    Z=              0.0000  Tot=              4.8783
 Quadrupole moment (field-independent basis, Debye-Ang):
   XX=            -10.5208   YY=             -9.8516   ZZ=            -14.5420
   XY=              2.1718   XZ=              0.0000   YZ=              0.0000
 Traceless Quadrupole moment (field-independent basis, Debye-Ang):
   XX=              1.1173   YY=              1.7865   ZZ=             -2.9038
   XY=              2.1718   XZ=              0.0000   YZ=              0.0000
 Octapole moment (field-independent basis, Debye-Ang**2):
  XXX=             -3.2854  YYY=             17.3064  ZZZ=              0.0000  XYY=             -3.1596
  XXY=              0.6335  XXZ=              0.0000  XZZ=             -0.3203  YZZ=              1.0320
  YYZ=              0.0000  XYZ=              0.0000
 Hexadecapole moment (field-independent basis, Debye-Ang**3):
 XXXX=            -11.8151 YYYY=            -80.3792 ZZZZ=            -11.1694 XXXY=             -0.0818
 XXXZ=              0.0000 YYYX=              8.8465 YYYZ=              0.0000 ZZZX=              0.0000
 ZZZY=              0.0000 XXYY=            -16.9275 XXZZ=             -4.3463 YYZZ=            -21.9471
 XXYZ=              0.0000 YYXZ=              0.0000 ZZXY=             -0.2698
 N-N= 4.304152689090D+01 E-N=-4.476006897876D+02  KE= 1.521948364426D+02
 Symmetry A'   KE= 1.432076588496D+02
 Symmetry A"   KE= 8.987177593023D+00
 Leave Link  601 at Fri Aug 26 16:13:29 2022, MaxMem=   536870912 cpu:               0.2 elap:               0.1
 (Enter /usr/site/hpc/x86_64/glibc-2.17/broadwell/gaussian/g16_a.03/pgi-16.5/g16/l9999.exe)
 1\1\GINC-N041\SP\RCCSD(T)-FC\CC-pVTZ\H4O2\C7441284\26-Aug-2022\0\\#p C
 CSD(T)/cc-pVTZ\\H2O_H2O_152\\0,1\O,0,0.,-0.009833,0.\H,0,-0.799571,-0.
 580965,0.\H,0,0.799571,-0.580965,0.\O,0,-1.759442,-1.265597,0.\H,0,-2.
 62672,-1.727478,0.\H,0,-1.041259,-1.936208,0.\\Version=ES64L-G16RevA.0
 3\State=1-A'\HF=-152.0474918\MP2=-152.5851638\MP3=-152.5905411\MP4D=-1
 52.5994609\MP4DQ=-152.5910375\MP4SDQ=-152.5945142\CCSD=-152.5937457\CC
 SD(T)=-152.6109328\RMSD=5.118e-09\PG=CS [SG(H4O2)]\\@


    UPON JULIA'S CLOTHES

 WHENAS IN SILKS MY JULIA GOES,
 THEN, THEN, METHINKS, HOW SWEETLY FLOWS
 THAT LIQUEFACTION OF HER CLOTHES.

 NEXT, WHEN I CAST MINE EYES, AND SEE
 THAT BRAVE VIBRATION, EACH WAY FREE,
 O, HOW THAT GLITTERING TAKETH ME!
     -- ROBERT HERRICK, 1648
 Job cpu time:       0 days  0 hours  1 minutes 37.0 seconds.
 Elapsed time:       0 days  0 hours  0 minutes 24.5 seconds.
 File lengths (MBytes):  RWF=    572 Int=      0 D2E=      0 Chk=      8 Scr=      8
 Normal termination of Gaussian 16 at Fri Aug 26 16:13:29 2022.
