 Entering Gaussian System, Link 0=g16
 Input=H2O_H2O_1611.com
 Output=H2O_H2O_1611.log
 Initial command:
 /usr/site/hpc/x86_64/glibc-2.17/broadwell/gaussian/g16_a.03/pgi-16.5/g16/l1.exe "/gpfs/gpfs1/scratch/c7441284/ForceFieldModel/FittingData2/Gau-855132.inp" -scrdir="/gpfs/gpfs1/scratch/c7441284/ForceFieldModel/FittingData2/"
 Entering Link 1 = /usr/site/hpc/x86_64/glibc-2.17/broadwell/gaussian/g16_a.03/pgi-16.5/g16/l1.exe PID=    855133.
  
 Copyright (c) 1988,1990,1992,1993,1995,1998,2003,2009,2016,
            Gaussian, Inc.  All Rights Reserved.
  
 This is part of the Gaussian(R) 16 program.  It is based on
 the Gaussian(R) 09 system (copyright 2009, Gaussian, Inc.),
 the Gaussian(R) 03 system (copyright 2003, Gaussian, Inc.),
 the Gaussian(R) 98 system (copyright 1998, Gaussian, Inc.),
 the Gaussian(R) 94 system (copyright 1995, Gaussian, Inc.),
 the Gaussian 92(TM) system (copyright 1992, Gaussian, Inc.),
 the Gaussian 90(TM) system (copyright 1990, Gaussian, Inc.),
 the Gaussian 88(TM) system (copyright 1988, Gaussian, Inc.),
 the Gaussian 86(TM) system (copyright 1986, Carnegie Mellon
 University), and the Gaussian 82(TM) system (copyright 1983,
 Carnegie Mellon University). Gaussian is a federally registered
 trademark of Gaussian, Inc.
  
 This software contains proprietary and confidential information,
 including trade secrets, belonging to Gaussian, Inc.
  
 This software is provided under written license and may be
 used, copied, transmitted, or stored only in accord with that
 written license.
  
 The following legend is applicable only to US Government
 contracts under FAR:
  
                    RESTRICTED RIGHTS LEGEND
  
 Use, reproduction and disclosure by the US Government is
 subject to restrictions as set forth in subparagraphs (a)
 and (c) of the Commercial Computer Software - Restricted
 Rights clause in FAR 52.227-19.
  
 Gaussian, Inc.
 340 Quinnipiac St., Bldg. 40, Wallingford CT 06492
  
  
 ---------------------------------------------------------------
 Warning -- This program may not be used in any manner that
 competes with the business of Gaussian, Inc. or will provide
 assistance to any competitor of Gaussian, Inc.  The licensee
 of this program is prohibited from giving any competitor of
 Gaussian, Inc. access to this program.  By using this program,
 the user acknowledges that Gaussian, Inc. is engaged in the
 business of creating and licensing software in the field of
 computational chemistry and represents and warrants to the
 licensee that it is not a competitor of Gaussian, Inc. and that
 it will not use this program in any manner prohibited above.
 ---------------------------------------------------------------
  

 Cite this work as:
 Gaussian 16, Revision A.03,
 M. J. Frisch, G. W. Trucks, H. B. Schlegel, G. E. Scuseria, 
 M. A. Robb, J. R. Cheeseman, G. Scalmani, V. Barone, 
 G. A. Petersson, H. Nakatsuji, X. Li, M. Caricato, A. V. Marenich, 
 J. Bloino, B. G. Janesko, R. Gomperts, B. Mennucci, H. P. Hratchian, 
 J. V. Ortiz, A. F. Izmaylov, J. L. Sonnenberg, D. Williams-Young, 
 F. Ding, F. Lipparini, F. Egidi, J. Goings, B. Peng, A. Petrone, 
 T. Henderson, D. Ranasinghe, V. G. Zakrzewski, J. Gao, N. Rega, 
 G. Zheng, W. Liang, M. Hada, M. Ehara, K. Toyota, R. Fukuda, 
 J. Hasegawa, M. Ishida, T. Nakajima, Y. Honda, O. Kitao, H. Nakai, 
 T. Vreven, K. Throssell, J. A. Montgomery, Jr., J. E. Peralta, 
 F. Ogliaro, M. J. Bearpark, J. J. Heyd, E. N. Brothers, K. N. Kudin, 
 V. N. Staroverov, T. A. Keith, R. Kobayashi, J. Normand, 
 K. Raghavachari, A. P. Rendell, J. C. Burant, S. S. Iyengar, 
 J. Tomasi, M. Cossi, J. M. Millam, M. Klene, C. Adamo, R. Cammi, 
 J. W. Ochterski, R. L. Martin, K. Morokuma, O. Farkas, 
 J. B. Foresman, and D. J. Fox, Gaussian, Inc., Wallingford CT, 2016.
 
 ******************************************
 Gaussian 16:  ES64L-G16RevA.03 25-Dec-2016
                27-Aug-2022 
 ******************************************
 %NProcShared=4
 Will use up to    4 processors via shared memory.
 %Mem=4GB
 %Chk=H2O_H2O_1611.chk
 ------------------
 #p CCSD(T)/cc-pVTZ
 ------------------
 1/38=1,172=1/1;
 2/12=2,17=6,18=5,40=1/2;
 3/5=16,6=1,11=9,25=1,30=1/1,2,3;
 4//1;
 5/5=2,38=5/2;
 8/6=4,9=120000,10=1/1,4;
 9/5=7,14=2/13;
 6/7=2,8=2,9=2,10=2/1;
 99/5=1,9=1/99;
 Leave Link    1 at Sat Aug 27 23:52:50 2022, MaxMem=   536870912 cpu:               4.0 elap:               1.3
 (Enter /usr/site/hpc/x86_64/glibc-2.17/broadwell/gaussian/g16_a.03/pgi-16.5/g16/l101.exe)
 ------------
 H2O_H2O_1611
 ------------
 Symbolic Z-matrix:
 Charge =  0 Multiplicity = 1
 O                     0.       -0.00983   0. 
 H                    -0.79957  -0.58097   0. 
 H                     0.79957  -0.58097   0. 
 O                    -2.70592  -1.93559   0. 
 H                    -3.68364  -1.8378    0. 
 H                    -2.48134  -2.89219   0. 
 
 ITRead=  0  0  0  0  0  0
 MicOpt= -1 -1 -1 -1 -1 -1
 NAtoms=      6 NQM=        6 NQMF=       0 NMMI=      0 NMMIF=      0
                NMic=       0 NMicF=      0.
                    Isotopes and Nuclear Properties:
 (Nuclear quadrupole moments (NQMom) in fm**2, nuclear magnetic moments (NMagM)
  in nuclear magnetons)

  Atom         1           2           3           4           5           6
 IAtWgt=          16           1           1          16           1           1
 AtmWgt=  15.9949146   1.0078250   1.0078250  15.9949146   1.0078250   1.0078250
 NucSpn=           0           1           1           0           1           1
 AtZEff=  -0.0000000  -0.0000000  -0.0000000  -0.0000000  -0.0000000  -0.0000000
 NQMom=    0.0000000   0.0000000   0.0000000   0.0000000   0.0000000   0.0000000
 NMagM=    0.0000000   2.7928460   2.7928460   0.0000000   2.7928460   2.7928460
 AtZNuc=   8.0000000   1.0000000   1.0000000   8.0000000   1.0000000   1.0000000
 Leave Link  101 at Sat Aug 27 23:52:50 2022, MaxMem=   536870912 cpu:               0.3 elap:               0.1
 (Enter /usr/site/hpc/x86_64/glibc-2.17/broadwell/gaussian/g16_a.03/pgi-16.5/g16/l202.exe)
                          Input orientation:                          
 ---------------------------------------------------------------------
 Center     Atomic      Atomic             Coordinates (Angstroms)
 Number     Number       Type             X           Y           Z
 ---------------------------------------------------------------------
      1          8           0        0.000000   -0.009833    0.000000
      2          1           0       -0.799571   -0.580965    0.000000
      3          1           0        0.799571   -0.580965    0.000000
      4          8           0       -2.705918   -1.935593    0.000000
      5          1           0       -3.683641   -1.837798    0.000000
      6          1           0       -2.481342   -2.892187    0.000000
 ---------------------------------------------------------------------
                    Distance matrix (angstroms):
                    1          2          3          4          5
     1  O    0.000000
     2  H    0.982601   0.000000
     3  H    0.982601   1.599142   0.000000
     4  O    3.321226   2.338627   3.758121   0.000000
     5  H    4.112258   3.146027   4.656052   0.982602   0.000000
     6  H    3.803291   2.858339   4.013245   0.982602   1.599143
                    6
     6  H    0.000000
 Stoichiometry    H4O2
 Framework group  CS[SG(H4O2)]
 Deg. of freedom     9
 Full point group                 CS      NOp   2
 Largest Abelian subgroup         CS      NOp   2
 Largest concise Abelian subgroup C1      NOp   1
                         Standard orientation:                         
 ---------------------------------------------------------------------
 Center     Atomic      Atomic             Coordinates (Angstroms)
 Number     Number       Type             X           Y           Z
 ---------------------------------------------------------------------
      1          8           0        0.059682    1.749308    0.000000
      2          1           0        0.057979    0.766708    0.000000
      3          1           0       -0.869258    2.069584    0.000000
      4          8           0        0.059682   -1.571918   -0.000000
      5          1           0        0.706276   -2.311798   -0.000000
      6          1           0       -0.849905   -1.943614   -0.000000
 ---------------------------------------------------------------------
 Rotational constants (GHZ):         245.4881113           4.9285279           4.8315280
 Leave Link  202 at Sat Aug 27 23:52:50 2022, MaxMem=   536870912 cpu:               0.1 elap:               0.0
 (Enter /usr/site/hpc/x86_64/glibc-2.17/broadwell/gaussian/g16_a.03/pgi-16.5/g16/l301.exe)
 Standard basis: CC-pVTZ (5D, 7F)
 Ernie: Thresh=  0.10000D-02 Tol=  0.10000D-05 Strict=F.
 Ernie:  6 primitive shells out of 84 were deleted.
 There are    92 symmetry adapted cartesian basis functions of A'  symmetry.
 There are    38 symmetry adapted cartesian basis functions of A"  symmetry.
 There are    80 symmetry adapted basis functions of A'  symmetry.
 There are    36 symmetry adapted basis functions of A"  symmetry.
   116 basis functions,   172 primitive gaussians,   130 cartesian basis functions
    10 alpha electrons       10 beta electrons
       nuclear repulsion energy        33.7706664357 Hartrees.
 IExCor=    0 DFT=F Ex=HF Corr=None ExCW=0 ScaHFX=  1.000000
 ScaDFX=  1.000000  1.000000  1.000000  1.000000 ScalE2=  1.000000  1.000000
 IRadAn=      5 IRanWt=     -1 IRanGd=            0 ICorTp=0 IEmpDi=  4
 NAtoms=    6 NActive=    6 NUniq=    6 SFac= 1.00D+00 NAtFMM=   60 NAOKFM=F Big=F
 Integral buffers will be    131072 words long.
 Raffenetti 1 integral format.
 Two-electron integral symmetry is turned on.
 Leave Link  301 at Sat Aug 27 23:52:51 2022, MaxMem=   536870912 cpu:               0.2 elap:               0.1
 (Enter /usr/site/hpc/x86_64/glibc-2.17/broadwell/gaussian/g16_a.03/pgi-16.5/g16/l302.exe)
 NPDir=0 NMtPBC=     1 NCelOv=     1 NCel=       1 NClECP=     1 NCelD=      1
         NCelK=      1 NCelE2=     1 NClLst=     1 CellRange=     0.0.
 One-electron integrals computed using PRISM.
 One-electron integral symmetry used in STVInt
 NBasis=   116 RedAO= T EigKep=  2.29D-03  NBF=    80    36
 NBsUse=   116 1.00D-06 EigRej= -1.00D+00 NBFU=    80    36
 Leave Link  302 at Sat Aug 27 23:52:51 2022, MaxMem=   536870912 cpu:               0.4 elap:               0.1
 (Enter /usr/site/hpc/x86_64/glibc-2.17/broadwell/gaussian/g16_a.03/pgi-16.5/g16/l303.exe)
 DipDrv:  MaxL=1.
 Leave Link  303 at Sat Aug 27 23:52:51 2022, MaxMem=   536870912 cpu:               0.1 elap:               0.0
 (Enter /usr/site/hpc/x86_64/glibc-2.17/broadwell/gaussian/g16_a.03/pgi-16.5/g16/l401.exe)
 ExpMin= 1.03D-01 ExpMax= 1.53D+04 ExpMxC= 5.22D+02 IAcc=3 IRadAn=         5 AccDes= 0.00D+00
 Harris functional with IExCor=  205 and IRadAn=       5 diagonalized for initial guess.
 HarFok:  IExCor=  205 AccDes= 0.00D+00 IRadAn=         5 IDoV= 1 UseB2=F ITyADJ=14
 ICtDFT=  3500011 ScaDFX=  1.000000  1.000000  1.000000  1.000000
 FoFCou: FMM=F IPFlag=           0 FMFlag=      100000 FMFlg1=           0
         NFxFlg=           0 DoJE=T BraDBF=F KetDBF=T FulRan=T
         wScrn=  0.000000 ICntrl=       500 IOpCl=  0 I1Cent=   200000004 NGrid=           0
         NMat0=    1 NMatS0=      1 NMatT0=    0 NMatD0=    1 NMtDS0=    0 NMtDT0=    0
 Petite list used in FoFCou.
 Harris En= -152.301880970443    
 JPrj=0 DoOrth=F DoCkMO=F.
 Initial guess orbital symmetries:
       Occupied  (A') (A') (A') (A') (A') (A') (A') (A') (A") (A")
       Virtual   (A') (A') (A') (A') (A') (A') (A') (A') (A') (A")
                 (A') (A") (A') (A') (A") (A') (A") (A') (A") (A")
                 (A') (A') (A') (A') (A') (A') (A') (A') (A") (A")
                 (A") (A") (A') (A') (A') (A') (A') (A') (A') (A')
                 (A') (A') (A") (A") (A') (A') (A") (A") (A") (A")
                 (A') (A') (A') (A') (A') (A') (A") (A") (A') (A')
                 (A") (A') (A") (A') (A") (A") (A') (A') (A') (A')
                 (A") (A") (A') (A') (A') (A') (A') (A') (A') (A')
                 (A") (A") (A') (A') (A") (A") (A") (A") (A') (A")
                 (A") (A') (A') (A') (A') (A') (A") (A") (A') (A')
                 (A') (A') (A') (A') (A') (A')
 The electronic state of the initial guess is 1-A'.
 Leave Link  401 at Sat Aug 27 23:52:51 2022, MaxMem=   536870912 cpu:               0.8 elap:               0.2
 (Enter /usr/site/hpc/x86_64/glibc-2.17/broadwell/gaussian/g16_a.03/pgi-16.5/g16/l502.exe)
 Keep R1 ints in memory in symmetry-blocked form, NReq=34823457.
 FoFCou: FMM=F IPFlag=           0 FMFlag=           0 FMFlg1=           0
         NFxFlg=           0 DoJE=F BraDBF=F KetDBF=F FulRan=T
         wScrn=  0.000000 ICntrl=       600 IOpCl=  0 I1Cent=           0 NGrid=           0
         NMat0=    1 NMatS0=   6786 NMatT0=    0 NMatD0=    1 NMtDS0=    0 NMtDT0=    0
 Petite list used in FoFCou.
 Closed shell SCF:
 Using DIIS extrapolation, IDIIS=  1040.
 NGot=   536870912 LenX=   525040673 LenY=   525023332
 Requested convergence on RMS density matrix=1.00D-08 within 128 cycles.
 Requested convergence on MAX density matrix=1.00D-06.
 Requested convergence on             energy=1.00D-06.
 No special actions if energy rises.

 Cycle   1  Pass 1  IDiag  1:
 E= -151.940562264438    
 DIIS: error= 6.54D-02 at cycle   1 NSaved=   1.
 NSaved= 1 IEnMin= 1 EnMin= -151.940562264438     IErMin= 1 ErrMin= 6.54D-02
 ErrMax= 6.54D-02  0.00D+00 EMaxC= 1.00D-01 BMatC= 3.91D-01 BMatP= 3.91D-01
 IDIUse=3 WtCom= 3.46D-01 WtEn= 6.54D-01
 Coeff-Com:  0.100D+01
 Coeff-En:   0.100D+01
 Coeff:      0.100D+01
 Gap=     0.501 Goal=   None    Shift=    0.000
 GapD=    0.501 DampG=2.000 DampE=0.500 DampFc=1.0000 IDamp=-1.
 RMSDP=2.55D-03 MaxDP=6.92D-02              OVMax= 1.22D-01

 Cycle   2  Pass 1  IDiag  1:
 E= -152.048843953988     Delta-E=       -0.108281689550 Rises=F Damp=F
 DIIS: error= 4.03D-02 at cycle   2 NSaved=   2.
 NSaved= 2 IEnMin= 2 EnMin= -152.048843953988     IErMin= 2 ErrMin= 4.03D-02
 ErrMax= 4.03D-02  0.00D+00 EMaxC= 1.00D-01 BMatC= 1.06D-01 BMatP= 3.91D-01
 IDIUse=3 WtCom= 5.97D-01 WtEn= 4.03D-01
 Coeff-Com:  0.313D+00 0.687D+00
 Coeff-En:   0.156D+00 0.844D+00
 Coeff:      0.250D+00 0.750D+00
 Gap=     0.622 Goal=   None    Shift=    0.000
 RMSDP=1.37D-03 MaxDP=4.00D-02 DE=-1.08D-01 OVMax= 5.65D-02

 Cycle   3  Pass 1  IDiag  1:
 E= -152.109371648896     Delta-E=       -0.060527694908 Rises=F Damp=F
 DIIS: error= 9.10D-03 at cycle   3 NSaved=   3.
 NSaved= 3 IEnMin= 3 EnMin= -152.109371648896     IErMin= 3 ErrMin= 9.10D-03
 ErrMax= 9.10D-03  0.00D+00 EMaxC= 1.00D-01 BMatC= 5.96D-03 BMatP= 1.06D-01
 IDIUse=3 WtCom= 9.09D-01 WtEn= 9.10D-02
 Coeff-Com: -0.302D-01 0.160D+00 0.870D+00
 Coeff-En:   0.000D+00 0.000D+00 0.100D+01
 Coeff:     -0.275D-01 0.146D+00 0.882D+00
 Gap=     0.594 Goal=   None    Shift=    0.000
 RMSDP=2.52D-04 MaxDP=5.99D-03 DE=-6.05D-02 OVMax= 1.33D-02

 Cycle   4  Pass 1  IDiag  1:
 E= -152.113055236530     Delta-E=       -0.003683587634 Rises=F Damp=F
 DIIS: error= 8.08D-04 at cycle   4 NSaved=   4.
 NSaved= 4 IEnMin= 4 EnMin= -152.113055236530     IErMin= 4 ErrMin= 8.08D-04
 ErrMax= 8.08D-04  0.00D+00 EMaxC= 1.00D-01 BMatC= 3.57D-05 BMatP= 5.96D-03
 IDIUse=3 WtCom= 9.92D-01 WtEn= 8.08D-03
 Coeff-Com:  0.667D-02-0.616D-01-0.233D+00 0.129D+01
 Coeff-En:   0.000D+00 0.000D+00 0.000D+00 0.100D+01
 Coeff:      0.661D-02-0.611D-01-0.231D+00 0.129D+01
 Gap=     0.597 Goal=   None    Shift=    0.000
 RMSDP=5.33D-05 MaxDP=1.00D-03 DE=-3.68D-03 OVMax= 2.48D-03

 Cycle   5  Pass 1  IDiag  1:
 E= -152.113104170987     Delta-E=       -0.000048934458 Rises=F Damp=F
 DIIS: error= 1.81D-04 at cycle   5 NSaved=   5.
 NSaved= 5 IEnMin= 5 EnMin= -152.113104170987     IErMin= 5 ErrMin= 1.81D-04
 ErrMax= 1.81D-04  0.00D+00 EMaxC= 1.00D-01 BMatC= 1.50D-06 BMatP= 3.57D-05
 IDIUse=3 WtCom= 9.98D-01 WtEn= 1.81D-03
 Coeff-Com:  0.117D-02-0.538D-02-0.259D-01-0.101D+00 0.113D+01
 Coeff-En:   0.000D+00 0.000D+00 0.000D+00 0.000D+00 0.100D+01
 Coeff:      0.117D-02-0.537D-02-0.259D-01-0.100D+00 0.113D+01
 Gap=     0.598 Goal=   None    Shift=    0.000
 RMSDP=1.43D-05 MaxDP=3.36D-04 DE=-4.89D-05 OVMax= 6.92D-04

 Cycle   6  Pass 1  IDiag  1:
 E= -152.113106924691     Delta-E=       -0.000002753704 Rises=F Damp=F
 DIIS: error= 4.36D-05 at cycle   6 NSaved=   6.
 NSaved= 6 IEnMin= 6 EnMin= -152.113106924691     IErMin= 6 ErrMin= 4.36D-05
 ErrMax= 4.36D-05  0.00D+00 EMaxC= 1.00D-01 BMatC= 1.68D-07 BMatP= 1.50D-06
 IDIUse=1 WtCom= 1.00D+00 WtEn= 0.00D+00
 Coeff-Com: -0.694D-04 0.227D-02 0.744D-02-0.114D+00 0.313D+00 0.791D+00
 Coeff:     -0.694D-04 0.227D-02 0.744D-02-0.114D+00 0.313D+00 0.791D+00
 Gap=     0.598 Goal=   None    Shift=    0.000
 RMSDP=3.06D-06 MaxDP=8.52D-05 DE=-2.75D-06 OVMax= 1.72D-04

 Cycle   7  Pass 1  IDiag  1:
 E= -152.113107116418     Delta-E=       -0.000000191727 Rises=F Damp=F
 DIIS: error= 9.94D-06 at cycle   7 NSaved=   7.
 NSaved= 7 IEnMin= 7 EnMin= -152.113107116418     IErMin= 7 ErrMin= 9.94D-06
 ErrMax= 9.94D-06  0.00D+00 EMaxC= 1.00D-01 BMatC= 8.75D-09 BMatP= 1.68D-07
 IDIUse=1 WtCom= 1.00D+00 WtEn= 0.00D+00
 Coeff-Com: -0.103D-03 0.402D-03 0.183D-02 0.135D-01-0.130D+00-0.247D-01
 Coeff-Com:  0.114D+01
 Coeff:     -0.103D-03 0.402D-03 0.183D-02 0.135D-01-0.130D+00-0.247D-01
 Coeff:      0.114D+01
 Gap=     0.598 Goal=   None    Shift=    0.000
 RMSDP=1.39D-06 MaxDP=3.73D-05 DE=-1.92D-07 OVMax= 6.89D-05

 Cycle   8  Pass 1  IDiag  1:
 E= -152.113107135820     Delta-E=       -0.000000019401 Rises=F Damp=F
 DIIS: error= 2.01D-06 at cycle   8 NSaved=   8.
 NSaved= 8 IEnMin= 8 EnMin= -152.113107135820     IErMin= 8 ErrMin= 2.01D-06
 ErrMax= 2.01D-06  0.00D+00 EMaxC= 1.00D-01 BMatC= 4.03D-10 BMatP= 8.75D-09
 IDIUse=1 WtCom= 1.00D+00 WtEn= 0.00D+00
 Coeff-Com:  0.238D-04-0.220D-03-0.858D-03 0.466D-02 0.697D-02-0.368D-01
 Coeff-Com: -0.193D+00 0.122D+01
 Coeff:      0.238D-04-0.220D-03-0.858D-03 0.466D-02 0.697D-02-0.368D-01
 Coeff:     -0.193D+00 0.122D+01
 Gap=     0.598 Goal=   None    Shift=    0.000
 RMSDP=2.20D-07 MaxDP=4.00D-06 DE=-1.94D-08 OVMax= 1.44D-05

 Cycle   9  Pass 1  IDiag  1:
 E= -152.113107136728     Delta-E=       -0.000000000908 Rises=F Damp=F
 DIIS: error= 7.06D-07 at cycle   9 NSaved=   9.
 NSaved= 9 IEnMin= 9 EnMin= -152.113107136728     IErMin= 9 ErrMin= 7.06D-07
 ErrMax= 7.06D-07  0.00D+00 EMaxC= 1.00D-01 BMatC= 2.47D-11 BMatP= 4.03D-10
 IDIUse=1 WtCom= 1.00D+00 WtEn= 0.00D+00
 Coeff-Com:  0.175D-05 0.241D-04 0.955D-04-0.234D-02 0.817D-02 0.117D-01
 Coeff-Com: -0.358D-01-0.272D+00 0.129D+01
 Coeff:      0.175D-05 0.241D-04 0.955D-04-0.234D-02 0.817D-02 0.117D-01
 Coeff:     -0.358D-01-0.272D+00 0.129D+01
 Gap=     0.598 Goal=   None    Shift=    0.000
 RMSDP=5.81D-08 MaxDP=1.04D-06 DE=-9.08D-10 OVMax= 3.31D-06

 Cycle  10  Pass 1  IDiag  1:
 E= -152.113107136783     Delta-E=       -0.000000000054 Rises=F Damp=F
 DIIS: error= 8.67D-08 at cycle  10 NSaved=  10.
 NSaved=10 IEnMin=10 EnMin= -152.113107136783     IErMin=10 ErrMin= 8.67D-08
 ErrMax= 8.67D-08  0.00D+00 EMaxC= 1.00D-01 BMatC= 4.38D-13 BMatP= 2.47D-11
 IDIUse=1 WtCom= 1.00D+00 WtEn= 0.00D+00
 Coeff-Com: -0.700D-06 0.179D-05 0.551D-05 0.178D-03-0.947D-03-0.761D-03
 Coeff-Com:  0.629D-02 0.230D-01-0.216D+00 0.119D+01
 Coeff:     -0.700D-06 0.179D-05 0.551D-05 0.178D-03-0.947D-03-0.761D-03
 Coeff:      0.629D-02 0.230D-01-0.216D+00 0.119D+01
 Gap=     0.598 Goal=   None    Shift=    0.000
 RMSDP=6.69D-09 MaxDP=1.29D-07 DE=-5.45D-11 OVMax= 4.03D-07

 SCF Done:  E(RHF) =  -152.113107137     A.U. after   10 cycles
            NFock= 10  Conv=0.67D-08     -V/T= 2.0021
 KE= 1.517949556981D+02 PE=-4.289569959989D+02 EE= 9.127826672824D+01
 Leave Link  502 at Sat Aug 27 23:52:52 2022, MaxMem=   536870912 cpu:               3.8 elap:               1.0
 (Enter /usr/site/hpc/x86_64/glibc-2.17/broadwell/gaussian/g16_a.03/pgi-16.5/g16/l801.exe)
 Windowed orbitals will be sorted by symmetry type.
 ExpMin= 1.03D-01 ExpMax= 1.53D+04 ExpMxC= 5.22D+02 IAcc=3 IRadAn=         5 AccDes= 0.00D+00
 HarFok:  IExCor=  205 AccDes= 0.00D+00 IRadAn=         5 IDoV=-2 UseB2=F ITyADJ=14
 ICtDFT= 12500011 ScaDFX=  1.000000  1.000000  1.000000  1.000000
 Largest valence mixing into a core orbital is  1.12D-04
 Largest core mixing into a valence orbital is  1.77D-05
 Range of M.O.s used for correlation:     3   116
 NBasis=   116 NAE=    10 NBE=    10 NFC=     2 NFV=     0
 NROrb=    114 NOA=     8 NOB=     8 NVA=   106 NVB=   106
 Leave Link  801 at Sat Aug 27 23:52:52 2022, MaxMem=   536870912 cpu:               0.3 elap:               0.1
 (Enter /usr/site/hpc/x86_64/glibc-2.17/broadwell/gaussian/g16_a.03/pgi-16.5/g16/l804.exe)
 Closed-shell transformation, MDV=   536870912 ITran=4 ISComp=2.
 Unit  1 TFree=        834515 TCopy=        406125.
 Semi-Direct transformation.
 ModeAB=           4 MOrb=             8 LenV=     536365237
 LASXX=      2873146 LTotXX=     2873146 LenRXX=     5831278
 LTotAB=     2958132 MaxLAS=     7325184 LenRXY=           0
 NonZer=     8704424 LenScr=    13107200 LnRSAI=     7325184
 LnScr1=    11010048 LExtra=           0 Total=     37273710
 MaxDsk=          -1 SrtSym=           T ITran=            4
 DoSDTr:  NPSUse=  4
 JobTyp=0 Pass  1:  I=   1 to   8.
 (rs|ai) integrals will be sorted in core.
 Complete sort for first half transformation.
 First half transformation complete.
 Complete sort for second half transformation.
 Second half transformation complete.
 Spin components of T(2) and E(2):
     alpha-alpha T2 =       0.1566698958D-01 E2=     -0.6412991293D-01
     alpha-beta  T2 =       0.9195344283D-01 E2=     -0.3987219941D+00
     beta-beta   T2 =       0.1566698958D-01 E2=     -0.6412991293D-01
 ANorm=    0.1059852547D+01
 E2 =    -0.5269818200D+00 EUMP2 =    -0.15264008895677D+03
 Leave Link  804 at Sat Aug 27 23:52:53 2022, MaxMem=   536870912 cpu:               3.9 elap:               1.0
 (Enter /usr/site/hpc/x86_64/glibc-2.17/broadwell/gaussian/g16_a.03/pgi-16.5/g16/l913.exe)
 CIDS:  MDV=   536870912.
 Frozen-core window:  NFC=   2 NFV=   0.
 IFCWin=0 IBDFC=1 NFBD=     0     0 NFCmp=     0     0 NFFFC=     0     0
 Using DD3R+UMP44R for 1st iteration.
 Using DD4RQ for 2nd and later iterations.
 Keep R2 and R3 ints in memory in symmetry-blocked form, NReq=35357534.
 FoFCou: FMM=F IPFlag=           0 FMFlag=           0 FMFlg1=           0
         NFxFlg=           0 DoJE=F BraDBF=F KetDBF=F FulRan=T
         wScrn=  0.000000 ICntrl=       600 IOpCl=  0 I1Cent=           0 NGrid=           0
         NMat0=    1 NMatS0=   6786 NMatT0=    0 NMatD0=    1 NMtDS0=    0 NMtDT0=    0
 Petite list used in FoFCou.
 CIDS: In Core Option IDoMem=           1.
 CCSD(T)
 =======
 Iterations=  50 Convergence= 0.100D-06
 Produce multiple copies of IABC intergrals
 Iteration Nr.   1
 **********************
 DD1Dir will call FoFMem   1 times, MxPair=        72
 NAB=    36 NAA=     0 NBB=     0.
 MP4(R+Q)=  0.76213047D-02
 Maximum subspace dimension=  5
 A-vector RMS=  1.7944361D-03 Max=  5.6416062D-03 conv= 1.00D-05.
 RLE energy=       -0.5265622563
 E3=       -0.72700246D-02        EUMP3=      -0.15264735898D+03
 E4(DQ)=   -0.14614783D-02        UMP4(DQ)=   -0.15264882046D+03
 E4(SDQ)=  -0.45715919D-02        UMP4(SDQ)=  -0.15265193057D+03
 VARIATIONAL ENERGIES WITH THE FIRST-ORDER WAVEFUNCTION:
 DE(Corr)= -0.52656193     E(Corr)=     -152.63966907    
 NORM(A)=   0.10601095D+01
 Iteration Nr.   2
 **********************
 DD1Dir will call FoFMem   1 times, MxPair=        72
 NAB=    36 NAA=     0 NBB=     0.
 A-vector RMS=  2.1274841D-04 Max=  2.0154062D-03 conv= 1.00D-05.
 RLE energy=       -0.5376193263
 DE(Corr)= -0.53649864     E(CORR)=     -152.64960578     Delta=-9.94D-03
 NORM(A)=   0.10638529D+01
 Iteration Nr.   3
 **********************
 DD1Dir will call FoFMem   1 times, MxPair=        72
 NAB=    36 NAA=     0 NBB=     0.
 A-vector RMS=  1.5416709D-04 Max=  8.8409095D-04 conv= 1.00D-05.
 RLE energy=       -0.5381137104
 DE(Corr)= -0.53752539     E(CORR)=     -152.65063253     Delta=-1.03D-03
 NORM(A)=   0.10644835D+01
 Iteration Nr.   4
 **********************
 DD1Dir will call FoFMem   1 times, MxPair=        72
 NAB=    36 NAA=     0 NBB=     0.
 A-vector RMS=  3.1170511D-05 Max=  1.4081794D-04 conv= 1.00D-05.
 RLE energy=       -0.5381926364
 DE(Corr)= -0.53815902     E(CORR)=     -152.65126616     Delta=-6.34D-04
 NORM(A)=   0.10645942D+01
 Iteration Nr.   5
 **********************
 DD1Dir will call FoFMem   1 times, MxPair=        72
 NAB=    36 NAA=     0 NBB=     0.
 A-vector RMS=  1.9272714D-05 Max=  1.8075318D-04 conv= 1.00D-05.
 RLE energy=       -0.5382048561
 DE(Corr)= -0.53819745     E(CORR)=     -152.65130458     Delta=-3.84D-05
 NORM(A)=   0.10646061D+01
 Iteration Nr.   6
 **********************
 DD1Dir will call FoFMem   1 times, MxPair=        72
 NAB=    36 NAA=     0 NBB=     0.
 A-vector RMS=  5.8693899D-06 Max=  4.3645513D-05 conv= 1.00D-05.
 RLE energy=       -0.5381971286
 DE(Corr)= -0.53820116     E(CORR)=     -152.65130830     Delta=-3.71D-06
 NORM(A)=   0.10646056D+01
 Iteration Nr.   7
 **********************
 DD1Dir will call FoFMem   1 times, MxPair=        72
 NAB=    36 NAA=     0 NBB=     0.
 A-vector RMS=  2.7374056D-06 Max=  2.7786238D-05 conv= 1.00D-05.
 RLE energy=       -0.5382005624
 DE(Corr)= -0.53820136     E(CORR)=     -152.65130849     Delta=-1.98D-07
 NORM(A)=   0.10646071D+01
 Iteration Nr.   8
 **********************
 DD1Dir will call FoFMem   1 times, MxPair=        72
 NAB=    36 NAA=     0 NBB=     0.
 A-vector RMS=  1.0696067D-06 Max=  9.6230626D-06 conv= 1.00D-05.
 RLE energy=       -0.5382006982
 DE(Corr)= -0.53820093     E(CORR)=     -152.65130807     Delta= 4.27D-07
 NORM(A)=   0.10646074D+01
 Iteration Nr.   9
 **********************
 DD1Dir will call FoFMem   1 times, MxPair=        72
 NAB=    36 NAA=     0 NBB=     0.
 A-vector RMS=  2.4198134D-07 Max=  3.2797438D-06 conv= 1.00D-05.
 RLE energy=       -0.5382009377
 DE(Corr)= -0.53820101     E(CORR)=     -152.65130815     Delta=-7.79D-08
 NORM(A)=   0.10646077D+01
 CI/CC converged in    9 iterations to DelEn=-7.79D-08 Conv= 1.00D-07 ErrA1= 2.42D-07 Conv= 1.00D-05
 Wavefunction amplitudes converged. E(Corr)=     -152.65130815    
 Largest amplitude= 4.24D-02
 IPart=  4 IA=    7   11.05% done.
 IPart=  3 IA=   13   21.46% done.
 IPart=  2 IA=   19   31.21% done.
 IPart=  1 IA=   25   40.32% done.
 IPart=  1 IA=   32   50.13% done.
 IPart=  3 IA=   40   60.27% done.
 IPart=  3 IA=   49   70.30% done.
 IPart=  1 IA=   60   80.58% done.
 IPart=  3 IA=   74   90.51% done.
 Time for triples=       55.18 seconds.
 T4(CCSD)= -0.16216228D-01
 T5(CCSD)=  0.41331550D-03
 CCSD(T)= -0.15266711106D+03
 Discarding MO integrals.
 Leave Link  913 at Sat Aug 27 23:53:13 2022, MaxMem=   536870912 cpu:              77.1 elap:              20.2
 (Enter /usr/site/hpc/x86_64/glibc-2.17/broadwell/gaussian/g16_a.03/pgi-16.5/g16/l601.exe)
 Copying SCF densities to generalized density rwf, IOpCl= 0 IROHF=0.

 **********************************************************************

            Population analysis using the SCF density.

 **********************************************************************

 Orbital symmetries:
       Occupied  (A') (A') (A') (A') (A') (A') (A') (A') (A") (A")
       Virtual   (A') (A') (A') (A') (A') (A') (A') (A') (A') (A')
                 (A") (A') (A") (A") (A') (A") (A') (A") (A') (A")
                 (A') (A') (A') (A') (A') (A') (A') (A') (A") (A")
                 (A") (A') (A") (A') (A') (A') (A') (A') (A') (A')
                 (A') (A') (A") (A") (A') (A") (A') (A") (A') (A')
                 (A") (A") (A') (A') (A') (A") (A') (A") (A") (A")
                 (A') (A') (A') (A") (A') (A") (A') (A') (A') (A')
                 (A") (A") (A') (A') (A') (A') (A') (A') (A') (A')
                 (A") (A") (A') (A') (A") (A") (A") (A') (A") (A")
                 (A") (A') (A') (A') (A') (A") (A') (A") (A') (A')
                 (A') (A') (A') (A') (A') (A')
 The electronic state is 1-A'.
 Alpha  occ. eigenvalues --  -20.57803 -20.53241  -1.35077  -1.30649  -0.72450
 Alpha  occ. eigenvalues --   -0.68190  -0.58837  -0.54028  -0.52205  -0.47795
 Alpha virt. eigenvalues --    0.12011   0.17238   0.19173   0.28213   0.50031
 Alpha virt. eigenvalues --    0.55016   0.56370   0.59047   0.69323   0.72513
 Alpha virt. eigenvalues --    0.74769   0.76860   0.81247   0.83091   0.84516
 Alpha virt. eigenvalues --    0.86491   0.86767   0.94725   0.95053   1.04040
 Alpha virt. eigenvalues --    1.11019   1.13466   1.22302   1.26492   1.50083
 Alpha virt. eigenvalues --    1.50692   1.53957   1.83859   1.98327   2.02968
 Alpha virt. eigenvalues --    2.04646   2.04749   2.09748   2.09950   2.15280
 Alpha virt. eigenvalues --    2.23912   2.27500   2.34239   2.59490   2.64802
 Alpha virt. eigenvalues --    2.91168   2.97101   3.37339   3.41708   3.48281
 Alpha virt. eigenvalues --    3.51184   3.52340   3.55481   3.57628   3.62103
 Alpha virt. eigenvalues --    3.76459   3.80735   3.82594   3.88895   3.90585
 Alpha virt. eigenvalues --    3.91598   3.91888   3.95275   4.02658   4.06484
 Alpha virt. eigenvalues --    4.06833   4.13094   4.13858   4.28132   4.29034
 Alpha virt. eigenvalues --    4.32517   4.40015   4.43628   4.45808   4.50912
 Alpha virt. eigenvalues --    4.64850   4.68777   4.80073   4.86421   5.02616
 Alpha virt. eigenvalues --    5.07716   5.25310   5.30597   5.52836   5.58266
 Alpha virt. eigenvalues --    5.95590   6.00085   6.38422   6.43914   6.83899
 Alpha virt. eigenvalues --    6.87441   6.88412   6.91707   6.92078   6.96717
 Alpha virt. eigenvalues --    7.01465   7.05413   7.08161   7.11877   7.15238
 Alpha virt. eigenvalues --    7.15942   7.17725   7.20575   7.45363   7.51700
 Alpha virt. eigenvalues --    7.68607   7.73539   8.14729   8.18952  12.49962
 Alpha virt. eigenvalues --   12.81669
          Condensed to atoms (all electrons):
               1          2          3          4          5          6
     1  O    7.843201   0.350835   0.344406  -0.003830   0.000146   0.000438
     2  H    0.350835   0.396306  -0.039064   0.019912  -0.001163  -0.001810
     3  H    0.344406  -0.039064   0.450277  -0.000385   0.000022   0.000158
     4  O   -0.003830   0.019912  -0.000385   7.838700   0.328014   0.322076
     5  H    0.000146  -0.001163   0.000022   0.328014   0.433842  -0.024280
     6  H    0.000438  -0.001810   0.000158   0.322076  -0.024280   0.446728
 Mulliken charges:
               1
     1  O   -0.535196
     2  H    0.274984
     3  H    0.244587
     4  O   -0.504486
     5  H    0.263420
     6  H    0.256691
 Sum of Mulliken charges =  -0.00000
 Mulliken charges with hydrogens summed into heavy atoms:
               1
     1  O   -0.015624
     4  O    0.015624
 Electronic spatial extent (au):  <R**2>=            239.2860
 Charge=             -0.0000 electrons
 Dipole moment (field-independent basis, Debye):
    X=             -2.0037    Y=             -3.4384    Z=             -0.0000  Tot=              3.9796
 Quadrupole moment (field-independent basis, Debye-Ang):
   XX=             -9.3764   YY=             -8.2105   ZZ=            -14.7323
   XY=             -3.5565   XZ=             -0.0000   YZ=             -0.0000
 Traceless Quadrupole moment (field-independent basis, Debye-Ang):
   XX=              1.3967   YY=              2.5626   ZZ=             -3.9592
   XY=             -3.5565   XZ=             -0.0000   YZ=             -0.0000
 Octapole moment (field-independent basis, Debye-Ang**2):
  XXX=             -2.5703  YYY=            -24.8357  ZZZ=             -0.0000  XYY=             -7.0708
  XXY=             -3.2576  XXZ=             -0.0000  XZZ=             -0.2599  YZZ=             -0.5570
  YYZ=             -0.0000  XYZ=             -0.0000
 Hexadecapole moment (field-independent basis, Debye-Ang**3):
 XXXX=            -11.3914 YYYY=           -184.5891 ZZZZ=            -11.3870 XXXY=             -0.1989
 XXXZ=             -0.0000 YYYX=            -21.3609 YYYZ=             -0.0000 ZZZX=             -0.0000
 ZZZY=             -0.0000 XXYY=            -24.4193 XXZZ=             -4.4490 YYZZ=            -45.7184
 XXYZ=             -0.0000 YYXZ=             -0.0000 ZZXY=              0.7001
 N-N= 3.377066643573D+01 E-N=-4.289569955829D+02  KE= 1.517949556981D+02
 Symmetry A'   KE= 1.427639073342D+02
 Symmetry A"   KE= 9.031048363899D+00
 Leave Link  601 at Sat Aug 27 23:53:13 2022, MaxMem=   536870912 cpu:               0.1 elap:               0.1
 (Enter /usr/site/hpc/x86_64/glibc-2.17/broadwell/gaussian/g16_a.03/pgi-16.5/g16/l9999.exe)
 1\1\GINC-N002\SP\RCCSD(T)-FC\CC-pVTZ\H4O2\ROOT\27-Aug-2022\0\\#p CCSD(
 T)/cc-pVTZ\\H2O_H2O_1611\\0,1\O,0,0.,-0.009833,0.\H,0,-0.799571,-0.580
 965,0.\H,0,0.799571,-0.580965,0.\O,0,-2.705918,-1.935593,0.\H,0,-3.683
 641,-1.837798,0.\H,0,-2.481342,-2.892187,0.\\Version=ES64L-G16RevA.03\
 State=1-A'\HF=-152.1131071\MP2=-152.640089\MP3=-152.647359\MP4D=-152.6
 564418\MP4DQ=-152.6488205\MP4SDQ=-152.6519306\CCSD=-152.6513081\CCSD(T
 )=-152.6671111\RMSD=6.686e-09\PG=CS [SG(H4O2)]\\@


 There was a great rattling of the words for the fewness of ideas.
                   -- Charles Baxter in Gryphon
 Job cpu time:       0 days  0 hours  1 minutes 31.1 seconds.
 Elapsed time:       0 days  0 hours  0 minutes 24.2 seconds.
 File lengths (MBytes):  RWF=    356 Int=      0 D2E=      0 Chk=      8 Scr=      8
 Normal termination of Gaussian 16 at Sat Aug 27 23:53:13 2022.
