 Entering Gaussian System, Link 0=g16
 Input=H2O_H2O_1654.com
 Output=H2O_H2O_1654.log
 Initial command:
 /usr/site/hpc/x86_64/glibc-2.17/broadwell/gaussian/g16_a.03/pgi-16.5/g16/l1.exe "/gpfs/gpfs1/scratch/c7441284/ForceFieldModel/FittingData2/Gau-868690.inp" -scrdir="/gpfs/gpfs1/scratch/c7441284/ForceFieldModel/FittingData2/"
 Entering Link 1 = /usr/site/hpc/x86_64/glibc-2.17/broadwell/gaussian/g16_a.03/pgi-16.5/g16/l1.exe PID=    868691.
  
 Copyright (c) 1988,1990,1992,1993,1995,1998,2003,2009,2016,
            Gaussian, Inc.  All Rights Reserved.
  
 This is part of the Gaussian(R) 16 program.  It is based on
 the Gaussian(R) 09 system (copyright 2009, Gaussian, Inc.),
 the Gaussian(R) 03 system (copyright 2003, Gaussian, Inc.),
 the Gaussian(R) 98 system (copyright 1998, Gaussian, Inc.),
 the Gaussian(R) 94 system (copyright 1995, Gaussian, Inc.),
 the Gaussian 92(TM) system (copyright 1992, Gaussian, Inc.),
 the Gaussian 90(TM) system (copyright 1990, Gaussian, Inc.),
 the Gaussian 88(TM) system (copyright 1988, Gaussian, Inc.),
 the Gaussian 86(TM) system (copyright 1986, Carnegie Mellon
 University), and the Gaussian 82(TM) system (copyright 1983,
 Carnegie Mellon University). Gaussian is a federally registered
 trademark of Gaussian, Inc.
  
 This software contains proprietary and confidential information,
 including trade secrets, belonging to Gaussian, Inc.
  
 This software is provided under written license and may be
 used, copied, transmitted, or stored only in accord with that
 written license.
  
 The following legend is applicable only to US Government
 contracts under FAR:
  
                    RESTRICTED RIGHTS LEGEND
  
 Use, reproduction and disclosure by the US Government is
 subject to restrictions as set forth in subparagraphs (a)
 and (c) of the Commercial Computer Software - Restricted
 Rights clause in FAR 52.227-19.
  
 Gaussian, Inc.
 340 Quinnipiac St., Bldg. 40, Wallingford CT 06492
  
  
 ---------------------------------------------------------------
 Warning -- This program may not be used in any manner that
 competes with the business of Gaussian, Inc. or will provide
 assistance to any competitor of Gaussian, Inc.  The licensee
 of this program is prohibited from giving any competitor of
 Gaussian, Inc. access to this program.  By using this program,
 the user acknowledges that Gaussian, Inc. is engaged in the
 business of creating and licensing software in the field of
 computational chemistry and represents and warrants to the
 licensee that it is not a competitor of Gaussian, Inc. and that
 it will not use this program in any manner prohibited above.
 ---------------------------------------------------------------
  

 Cite this work as:
 Gaussian 16, Revision A.03,
 M. J. Frisch, G. W. Trucks, H. B. Schlegel, G. E. Scuseria, 
 M. A. Robb, J. R. Cheeseman, G. Scalmani, V. Barone, 
 G. A. Petersson, H. Nakatsuji, X. Li, M. Caricato, A. V. Marenich, 
 J. Bloino, B. G. Janesko, R. Gomperts, B. Mennucci, H. P. Hratchian, 
 J. V. Ortiz, A. F. Izmaylov, J. L. Sonnenberg, D. Williams-Young, 
 F. Ding, F. Lipparini, F. Egidi, J. Goings, B. Peng, A. Petrone, 
 T. Henderson, D. Ranasinghe, V. G. Zakrzewski, J. Gao, N. Rega, 
 G. Zheng, W. Liang, M. Hada, M. Ehara, K. Toyota, R. Fukuda, 
 J. Hasegawa, M. Ishida, T. Nakajima, Y. Honda, O. Kitao, H. Nakai, 
 T. Vreven, K. Throssell, J. A. Montgomery, Jr., J. E. Peralta, 
 F. Ogliaro, M. J. Bearpark, J. J. Heyd, E. N. Brothers, K. N. Kudin, 
 V. N. Staroverov, T. A. Keith, R. Kobayashi, J. Normand, 
 K. Raghavachari, A. P. Rendell, J. C. Burant, S. S. Iyengar, 
 J. Tomasi, M. Cossi, J. M. Millam, M. Klene, C. Adamo, R. Cammi, 
 J. W. Ochterski, R. L. Martin, K. Morokuma, O. Farkas, 
 J. B. Foresman, and D. J. Fox, Gaussian, Inc., Wallingford CT, 2016.
 
 ******************************************
 Gaussian 16:  ES64L-G16RevA.03 25-Dec-2016
                28-Aug-2022 
 ******************************************
 %NProcShared=4
 Will use up to    4 processors via shared memory.
 %Mem=4GB
 %Chk=H2O_H2O_1654.chk
 ------------------
 #p CCSD(T)/cc-pVTZ
 ------------------
 1/38=1,172=1/1;
 2/12=2,17=6,18=5,40=1/2;
 3/5=16,6=1,11=9,25=1,30=1/1,2,3;
 4//1;
 5/5=2,38=5/2;
 8/6=4,9=120000,10=1/1,4;
 9/5=7,14=2/13;
 6/7=2,8=2,9=2,10=2/1;
 99/5=1,9=1/99;
 Leave Link    1 at Sun Aug 28 00:21:39 2022, MaxMem=   536870912 cpu:               0.3 elap:               0.1
 (Enter /usr/site/hpc/x86_64/glibc-2.17/broadwell/gaussian/g16_a.03/pgi-16.5/g16/l101.exe)
 ------------
 H2O_H2O_1654
 ------------
 Symbolic Z-matrix:
 Charge =  0 Multiplicity = 1
 O                     0.       -0.00983   0. 
 H                    -0.79957  -0.58097   0. 
 H                     0.79957  -0.58097   0. 
 O                    -2.73444  -1.96088   0. 
 H                    -3.65458  -2.30561   0. 
 H                    -2.10993  -2.7195    0. 
 
 ITRead=  0  0  0  0  0  0
 MicOpt= -1 -1 -1 -1 -1 -1
 NAtoms=      6 NQM=        6 NQMF=       0 NMMI=      0 NMMIF=      0
                NMic=       0 NMicF=      0.
                    Isotopes and Nuclear Properties:
 (Nuclear quadrupole moments (NQMom) in fm**2, nuclear magnetic moments (NMagM)
  in nuclear magnetons)

  Atom         1           2           3           4           5           6
 IAtWgt=          16           1           1          16           1           1
 AtmWgt=  15.9949146   1.0078250   1.0078250  15.9949146   1.0078250   1.0078250
 NucSpn=           0           1           1           0           1           1
 AtZEff=  -0.0000000  -0.0000000  -0.0000000  -0.0000000  -0.0000000  -0.0000000
 NQMom=    0.0000000   0.0000000   0.0000000   0.0000000   0.0000000   0.0000000
 NMagM=    0.0000000   2.7928460   2.7928460   0.0000000   2.7928460   2.7928460
 AtZNuc=   8.0000000   1.0000000   1.0000000   8.0000000   1.0000000   1.0000000
 Leave Link  101 at Sun Aug 28 00:21:39 2022, MaxMem=   536870912 cpu:               0.6 elap:               0.2
 (Enter /usr/site/hpc/x86_64/glibc-2.17/broadwell/gaussian/g16_a.03/pgi-16.5/g16/l202.exe)
                          Input orientation:                          
 ---------------------------------------------------------------------
 Center     Atomic      Atomic             Coordinates (Angstroms)
 Number     Number       Type             X           Y           Z
 ---------------------------------------------------------------------
      1          8           0        0.000000   -0.009833    0.000000
      2          1           0       -0.799571   -0.580965    0.000000
      3          1           0        0.799571   -0.580965    0.000000
      4          8           0       -2.734437   -1.960882    0.000000
      5          1           0       -3.654584   -2.305609    0.000000
      6          1           0       -2.109930   -2.719498    0.000000
 ---------------------------------------------------------------------
                    Distance matrix (angstroms):
                    1          2          3          4          5
     1  O    0.000000
     2  H    0.982601   0.000000
     3  H    0.982601   1.599142   0.000000
     4  O    3.359128   2.376526   3.793861   0.000000
     5  H    4.315851   3.335490   4.776389   0.982602   0.000000
     6  H    3.434252   2.508060   3.610889   0.982602   1.599144
                    6
     6  H    0.000000
 Stoichiometry    H4O2
 Framework group  CS[SG(H4O2)]
 Deg. of freedom     9
 Full point group                 CS      NOp   2
 Largest Abelian subgroup         CS      NOp   2
 Largest concise Abelian subgroup C1      NOp   1
                         Standard orientation:                         
 ---------------------------------------------------------------------
 Center     Atomic      Atomic             Coordinates (Angstroms)
 Number     Number       Type             X           Y           Z
 ---------------------------------------------------------------------
      1          8           0        0.082814   -1.756811    0.000000
      2          1           0        0.082301   -0.774210    0.000000
      3          1           0       -0.846513   -2.075963    0.000000
      4          8           0        0.082814    1.602316    0.000000
      5          1           0        0.336635    2.551569    0.000000
      6          1           0       -0.897450    1.534567    0.000000
 ---------------------------------------------------------------------
 Rotational constants (GHZ):         278.2660896           4.8462325           4.7632761
 Leave Link  202 at Sun Aug 28 00:21:39 2022, MaxMem=   536870912 cpu:               0.0 elap:               0.0
 (Enter /usr/site/hpc/x86_64/glibc-2.17/broadwell/gaussian/g16_a.03/pgi-16.5/g16/l301.exe)
 Standard basis: CC-pVTZ (5D, 7F)
 Ernie: Thresh=  0.10000D-02 Tol=  0.10000D-05 Strict=F.
 Ernie:  6 primitive shells out of 84 were deleted.
 There are    92 symmetry adapted cartesian basis functions of A'  symmetry.
 There are    38 symmetry adapted cartesian basis functions of A"  symmetry.
 There are    80 symmetry adapted basis functions of A'  symmetry.
 There are    36 symmetry adapted basis functions of A"  symmetry.
   116 basis functions,   172 primitive gaussians,   130 cartesian basis functions
    10 alpha electrons       10 beta electrons
       nuclear repulsion energy        33.7153045393 Hartrees.
 IExCor=    0 DFT=F Ex=HF Corr=None ExCW=0 ScaHFX=  1.000000
 ScaDFX=  1.000000  1.000000  1.000000  1.000000 ScalE2=  1.000000  1.000000
 IRadAn=      5 IRanWt=     -1 IRanGd=            0 ICorTp=0 IEmpDi=  4
 NAtoms=    6 NActive=    6 NUniq=    6 SFac= 1.00D+00 NAtFMM=   60 NAOKFM=F Big=F
 Integral buffers will be    131072 words long.
 Raffenetti 1 integral format.
 Two-electron integral symmetry is turned on.
 Leave Link  301 at Sun Aug 28 00:21:39 2022, MaxMem=   536870912 cpu:               0.2 elap:               0.0
 (Enter /usr/site/hpc/x86_64/glibc-2.17/broadwell/gaussian/g16_a.03/pgi-16.5/g16/l302.exe)
 NPDir=0 NMtPBC=     1 NCelOv=     1 NCel=       1 NClECP=     1 NCelD=      1
         NCelK=      1 NCelE2=     1 NClLst=     1 CellRange=     0.0.
 One-electron integrals computed using PRISM.
 One-electron integral symmetry used in STVInt
 NBasis=   116 RedAO= T EigKep=  2.23D-03  NBF=    80    36
 NBsUse=   116 1.00D-06 EigRej= -1.00D+00 NBFU=    80    36
 Leave Link  302 at Sun Aug 28 00:21:39 2022, MaxMem=   536870912 cpu:               0.5 elap:               0.1
 (Enter /usr/site/hpc/x86_64/glibc-2.17/broadwell/gaussian/g16_a.03/pgi-16.5/g16/l303.exe)
 DipDrv:  MaxL=1.
 Leave Link  303 at Sun Aug 28 00:21:39 2022, MaxMem=   536870912 cpu:               0.1 elap:               0.0
 (Enter /usr/site/hpc/x86_64/glibc-2.17/broadwell/gaussian/g16_a.03/pgi-16.5/g16/l401.exe)
 ExpMin= 1.03D-01 ExpMax= 1.53D+04 ExpMxC= 5.22D+02 IAcc=3 IRadAn=         5 AccDes= 0.00D+00
 Harris functional with IExCor=  205 and IRadAn=       5 diagonalized for initial guess.
 HarFok:  IExCor=  205 AccDes= 0.00D+00 IRadAn=         5 IDoV= 1 UseB2=F ITyADJ=14
 ICtDFT=  3500011 ScaDFX=  1.000000  1.000000  1.000000  1.000000
 FoFCou: FMM=F IPFlag=           0 FMFlag=      100000 FMFlg1=           0
         NFxFlg=           0 DoJE=T BraDBF=F KetDBF=T FulRan=T
         wScrn=  0.000000 ICntrl=       500 IOpCl=  0 I1Cent=   200000004 NGrid=           0
         NMat0=    1 NMatS0=      1 NMatT0=    0 NMatD0=    1 NMtDS0=    0 NMtDT0=    0
 Petite list used in FoFCou.
 Harris En= -152.300428288281    
 JPrj=0 DoOrth=F DoCkMO=F.
 Initial guess orbital symmetries:
       Occupied  (A') (A') (A') (A') (A') (A') (A') (A') (A") (A")
       Virtual   (A') (A') (A') (A') (A') (A') (A') (A') (A') (A")
                 (A') (A") (A') (A') (A') (A") (A") (A') (A") (A")
                 (A') (A') (A') (A') (A') (A') (A') (A') (A") (A")
                 (A") (A") (A') (A') (A') (A') (A') (A') (A') (A')
                 (A') (A') (A") (A") (A') (A') (A") (A") (A") (A")
                 (A') (A') (A') (A') (A') (A") (A') (A") (A') (A')
                 (A") (A') (A") (A') (A") (A") (A') (A') (A') (A")
                 (A") (A') (A') (A') (A') (A') (A') (A') (A') (A')
                 (A") (A") (A') (A') (A") (A") (A") (A") (A') (A")
                 (A") (A') (A') (A') (A') (A') (A") (A") (A') (A')
                 (A') (A') (A') (A') (A') (A')
 The electronic state of the initial guess is 1-A'.
 Leave Link  401 at Sun Aug 28 00:21:39 2022, MaxMem=   536870912 cpu:               0.8 elap:               0.2
 (Enter /usr/site/hpc/x86_64/glibc-2.17/broadwell/gaussian/g16_a.03/pgi-16.5/g16/l502.exe)
 Keep R1 ints in memory in symmetry-blocked form, NReq=34823457.
 FoFCou: FMM=F IPFlag=           0 FMFlag=           0 FMFlg1=           0
         NFxFlg=           0 DoJE=F BraDBF=F KetDBF=F FulRan=T
         wScrn=  0.000000 ICntrl=       600 IOpCl=  0 I1Cent=           0 NGrid=           0
         NMat0=    1 NMatS0=   6786 NMatT0=    0 NMatD0=    1 NMtDS0=    0 NMtDT0=    0
 Petite list used in FoFCou.
 Closed shell SCF:
 Using DIIS extrapolation, IDIIS=  1040.
 NGot=   536870912 LenX=   525040673 LenY=   525023332
 Requested convergence on RMS density matrix=1.00D-08 within 128 cycles.
 Requested convergence on MAX density matrix=1.00D-06.
 Requested convergence on             energy=1.00D-06.
 No special actions if energy rises.

 Cycle   1  Pass 1  IDiag  1:
 E= -151.936603266719    
 DIIS: error= 6.55D-02 at cycle   1 NSaved=   1.
 NSaved= 1 IEnMin= 1 EnMin= -151.936603266719     IErMin= 1 ErrMin= 6.55D-02
 ErrMax= 6.55D-02  0.00D+00 EMaxC= 1.00D-01 BMatC= 3.93D-01 BMatP= 3.93D-01
 IDIUse=3 WtCom= 3.45D-01 WtEn= 6.55D-01
 Coeff-Com:  0.100D+01
 Coeff-En:   0.100D+01
 Coeff:      0.100D+01
 Gap=     0.501 Goal=   None    Shift=    0.000
 GapD=    0.501 DampG=2.000 DampE=0.500 DampFc=1.0000 IDamp=-1.
 RMSDP=2.58D-03 MaxDP=6.79D-02              OVMax= 1.24D-01

 Cycle   2  Pass 1  IDiag  1:
 E= -152.045383449771     Delta-E=       -0.108780183052 Rises=F Damp=F
 DIIS: error= 4.07D-02 at cycle   2 NSaved=   2.
 NSaved= 2 IEnMin= 2 EnMin= -152.045383449771     IErMin= 2 ErrMin= 4.07D-02
 ErrMax= 4.07D-02  0.00D+00 EMaxC= 1.00D-01 BMatC= 1.08D-01 BMatP= 3.93D-01
 IDIUse=3 WtCom= 5.93D-01 WtEn= 4.07D-01
 Coeff-Com:  0.315D+00 0.685D+00
 Coeff-En:   0.160D+00 0.840D+00
 Coeff:      0.252D+00 0.748D+00
 Gap=     0.626 Goal=   None    Shift=    0.000
 RMSDP=1.39D-03 MaxDP=3.97D-02 DE=-1.09D-01 OVMax= 5.67D-02

 Cycle   3  Pass 1  IDiag  1:
 E= -152.107084625275     Delta-E=       -0.061701175504 Rises=F Damp=F
 DIIS: error= 9.10D-03 at cycle   3 NSaved=   3.
 NSaved= 3 IEnMin= 3 EnMin= -152.107084625275     IErMin= 3 ErrMin= 9.10D-03
 ErrMax= 9.10D-03  0.00D+00 EMaxC= 1.00D-01 BMatC= 5.99D-03 BMatP= 1.08D-01
 IDIUse=3 WtCom= 9.09D-01 WtEn= 9.10D-02
 Coeff-Com: -0.304D-01 0.159D+00 0.871D+00
 Coeff-En:   0.000D+00 0.000D+00 0.100D+01
 Coeff:     -0.276D-01 0.145D+00 0.883D+00
 Gap=     0.598 Goal=   None    Shift=    0.000
 RMSDP=2.53D-04 MaxDP=6.04D-03 DE=-6.17D-02 OVMax= 1.32D-02

 Cycle   4  Pass 1  IDiag  1:
 E= -152.110799224726     Delta-E=       -0.003714599451 Rises=F Damp=F
 DIIS: error= 8.26D-04 at cycle   4 NSaved=   4.
 NSaved= 4 IEnMin= 4 EnMin= -152.110799224726     IErMin= 4 ErrMin= 8.26D-04
 ErrMax= 8.26D-04  0.00D+00 EMaxC= 1.00D-01 BMatC= 3.66D-05 BMatP= 5.99D-03
 IDIUse=3 WtCom= 9.92D-01 WtEn= 8.26D-03
 Coeff-Com:  0.680D-02-0.623D-01-0.237D+00 0.129D+01
 Coeff-En:   0.000D+00 0.000D+00 0.000D+00 0.100D+01
 Coeff:      0.674D-02-0.617D-01-0.236D+00 0.129D+01
 Gap=     0.601 Goal=   None    Shift=    0.000
 RMSDP=5.27D-05 MaxDP=1.00D-03 DE=-3.71D-03 OVMax= 2.51D-03

 Cycle   5  Pass 1  IDiag  1:
 E= -152.110849794527     Delta-E=       -0.000050569801 Rises=F Damp=F
 DIIS: error= 1.84D-04 at cycle   5 NSaved=   5.
 NSaved= 5 IEnMin= 5 EnMin= -152.110849794527     IErMin= 5 ErrMin= 1.84D-04
 ErrMax= 1.84D-04  0.00D+00 EMaxC= 1.00D-01 BMatC= 1.42D-06 BMatP= 3.66D-05
 IDIUse=3 WtCom= 9.98D-01 WtEn= 1.84D-03
 Coeff-Com:  0.816D-03-0.208D-02-0.128D-01-0.169D+00 0.118D+01
 Coeff-En:   0.000D+00 0.000D+00 0.000D+00 0.000D+00 0.100D+01
 Coeff:      0.814D-03-0.207D-02-0.128D-01-0.169D+00 0.118D+01
 Gap=     0.602 Goal=   None    Shift=    0.000
 RMSDP=1.42D-05 MaxDP=3.24D-04 DE=-5.06D-05 OVMax= 7.30D-04

 Cycle   6  Pass 1  IDiag  1:
 E= -152.110852620595     Delta-E=       -0.000002826067 Rises=F Damp=F
 DIIS: error= 3.49D-05 at cycle   6 NSaved=   6.
 NSaved= 6 IEnMin= 6 EnMin= -152.110852620595     IErMin= 6 ErrMin= 3.49D-05
 ErrMax= 3.49D-05  0.00D+00 EMaxC= 1.00D-01 BMatC= 9.82D-08 BMatP= 1.42D-06
 IDIUse=1 WtCom= 1.00D+00 WtEn= 0.00D+00
 Coeff-Com: -0.927D-04 0.207D-02 0.701D-02-0.930D-01 0.236D+00 0.848D+00
 Coeff:     -0.927D-04 0.207D-02 0.701D-02-0.930D-01 0.236D+00 0.848D+00
 Gap=     0.602 Goal=   None    Shift=    0.000
 RMSDP=2.63D-06 MaxDP=7.36D-05 DE=-2.83D-06 OVMax= 1.51D-04

 Cycle   7  Pass 1  IDiag  1:
 E= -152.110852751322     Delta-E=       -0.000000130727 Rises=F Damp=F
 DIIS: error= 1.02D-05 at cycle   7 NSaved=   7.
 NSaved= 7 IEnMin= 7 EnMin= -152.110852751322     IErMin= 7 ErrMin= 1.02D-05
 ErrMax= 1.02D-05  0.00D+00 EMaxC= 1.00D-01 BMatC= 1.03D-08 BMatP= 9.82D-08
 IDIUse=1 WtCom= 1.00D+00 WtEn= 0.00D+00
 Coeff-Com: -0.107D-03 0.429D-03 0.196D-02 0.131D-01-0.139D+00 0.100D+00
 Coeff-Com:  0.102D+01
 Coeff:     -0.107D-03 0.429D-03 0.196D-02 0.131D-01-0.139D+00 0.100D+00
 Coeff:      0.102D+01
 Gap=     0.602 Goal=   None    Shift=    0.000
 RMSDP=1.24D-06 MaxDP=3.70D-05 DE=-1.31D-07 OVMax= 6.71D-05

 Cycle   8  Pass 1  IDiag  1:
 E= -152.110852769159     Delta-E=       -0.000000017837 Rises=F Damp=F
 DIIS: error= 2.20D-06 at cycle   8 NSaved=   8.
 NSaved= 8 IEnMin= 8 EnMin= -152.110852769159     IErMin= 8 ErrMin= 2.20D-06
 ErrMax= 2.20D-06  0.00D+00 EMaxC= 1.00D-01 BMatC= 4.41D-10 BMatP= 1.03D-08
 IDIUse=1 WtCom= 1.00D+00 WtEn= 0.00D+00
 Coeff-Com:  0.248D-04-0.227D-03-0.892D-03 0.482D-02 0.754D-02-0.662D-01
 Coeff-Com: -0.157D+00 0.121D+01
 Coeff:      0.248D-04-0.227D-03-0.892D-03 0.482D-02 0.754D-02-0.662D-01
 Coeff:     -0.157D+00 0.121D+01
 Gap=     0.602 Goal=   None    Shift=    0.000
 RMSDP=2.28D-07 MaxDP=4.00D-06 DE=-1.78D-08 OVMax= 1.45D-05

 Cycle   9  Pass 1  IDiag  1:
 E= -152.110852770126     Delta-E=       -0.000000000968 Rises=F Damp=F
 DIIS: error= 6.80D-07 at cycle   9 NSaved=   9.
 NSaved= 9 IEnMin= 9 EnMin= -152.110852770126     IErMin= 9 ErrMin= 6.80D-07
 ErrMax= 6.80D-07  0.00D+00 EMaxC= 1.00D-01 BMatC= 2.61D-11 BMatP= 4.41D-10
 IDIUse=1 WtCom= 1.00D+00 WtEn= 0.00D+00
 Coeff-Com:  0.164D-05 0.256D-04 0.102D-03-0.239D-02 0.872D-02 0.983D-02
 Coeff-Com: -0.352D-01-0.274D+00 0.129D+01
 Coeff:      0.164D-05 0.256D-04 0.102D-03-0.239D-02 0.872D-02 0.983D-02
 Coeff:     -0.352D-01-0.274D+00 0.129D+01
 Gap=     0.602 Goal=   None    Shift=    0.000
 RMSDP=5.93D-08 MaxDP=9.51D-07 DE=-9.68D-10 OVMax= 3.18D-06

 Cycle  10  Pass 1  IDiag  1:
 E= -152.110852770184     Delta-E=       -0.000000000057 Rises=F Damp=F
 DIIS: error= 8.79D-08 at cycle  10 NSaved=  10.
 NSaved=10 IEnMin=10 EnMin= -152.110852770184     IErMin=10 ErrMin= 8.79D-08
 ErrMax= 8.79D-08  0.00D+00 EMaxC= 1.00D-01 BMatC= 4.61D-13 BMatP= 2.61D-11
 IDIUse=1 WtCom= 1.00D+00 WtEn= 0.00D+00
 Coeff-Com: -0.708D-06 0.793D-06 0.124D-05 0.249D-03-0.118D-02-0.681D-03
 Coeff-Com:  0.637D-02 0.330D-01-0.254D+00 0.122D+01
 Coeff:     -0.708D-06 0.793D-06 0.124D-05 0.249D-03-0.118D-02-0.681D-03
 Coeff:      0.637D-02 0.330D-01-0.254D+00 0.122D+01
 Gap=     0.602 Goal=   None    Shift=    0.000
 RMSDP=7.04D-09 MaxDP=1.48D-07 DE=-5.73D-11 OVMax= 3.95D-07

 SCF Done:  E(RHF) =  -152.110852770     A.U. after   10 cycles
            NFock= 10  Conv=0.70D-08     -V/T= 2.0021
 KE= 1.517972454058D+02 PE=-4.287844168117D+02 EE= 9.116101409637D+01
 Leave Link  502 at Sun Aug 28 00:21:40 2022, MaxMem=   536870912 cpu:               4.2 elap:               1.1
 (Enter /usr/site/hpc/x86_64/glibc-2.17/broadwell/gaussian/g16_a.03/pgi-16.5/g16/l801.exe)
 Windowed orbitals will be sorted by symmetry type.
 ExpMin= 1.03D-01 ExpMax= 1.53D+04 ExpMxC= 5.22D+02 IAcc=3 IRadAn=         5 AccDes= 0.00D+00
 HarFok:  IExCor=  205 AccDes= 0.00D+00 IRadAn=         5 IDoV=-2 UseB2=F ITyADJ=14
 ICtDFT= 12500011 ScaDFX=  1.000000  1.000000  1.000000  1.000000
 Largest valence mixing into a core orbital is  1.12D-04
 Largest core mixing into a valence orbital is  1.77D-05
 Range of M.O.s used for correlation:     3   116
 NBasis=   116 NAE=    10 NBE=    10 NFC=     2 NFV=     0
 NROrb=    114 NOA=     8 NOB=     8 NVA=   106 NVB=   106
 Leave Link  801 at Sun Aug 28 00:21:40 2022, MaxMem=   536870912 cpu:               0.3 elap:               0.1
 (Enter /usr/site/hpc/x86_64/glibc-2.17/broadwell/gaussian/g16_a.03/pgi-16.5/g16/l804.exe)
 Closed-shell transformation, MDV=   536870912 ITran=4 ISComp=2.
 Unit  1 TFree=        834515 TCopy=        406125.
 Semi-Direct transformation.
 ModeAB=           4 MOrb=             8 LenV=     536364700
 LASXX=      2873146 LTotXX=     2873146 LenRXX=     5831278
 LTotAB=     2958132 MaxLAS=     7428240 LenRXY=           0
 NonZer=     8704424 LenScr=    13107200 LnRSAI=     7428240
 LnScr1=    11534336 LExtra=           0 Total=     37901054
 MaxDsk=          -1 SrtSym=           T ITran=            4
 DoSDTr:  NPSUse=  4
 JobTyp=0 Pass  1:  I=   1 to   8.
 (rs|ai) integrals will be sorted in core.
 Complete sort for first half transformation.
 First half transformation complete.
 Complete sort for second half transformation.
 Second half transformation complete.
 Spin components of T(2) and E(2):
     alpha-alpha T2 =       0.1568126250D-01 E2=     -0.6412935270D-01
     alpha-beta  T2 =       0.9206631565D-01 E2=     -0.3988431789D+00
     beta-beta   T2 =       0.1568126250D-01 E2=     -0.6412935270D-01
 ANorm=    0.1059919261D+01
 E2 =    -0.5271018843D+00 EUMP2 =    -0.15263795465448D+03
 Leave Link  804 at Sun Aug 28 00:21:42 2022, MaxMem=   536870912 cpu:               4.1 elap:               1.0
 (Enter /usr/site/hpc/x86_64/glibc-2.17/broadwell/gaussian/g16_a.03/pgi-16.5/g16/l913.exe)
 CIDS:  MDV=   536870912.
 Frozen-core window:  NFC=   2 NFV=   0.
 IFCWin=0 IBDFC=1 NFBD=     0     0 NFCmp=     0     0 NFFFC=     0     0
 Using DD3R+UMP44R for 1st iteration.
 Using DD4RQ for 2nd and later iterations.
 Keep R2 and R3 ints in memory in symmetry-blocked form, NReq=35357534.
 FoFCou: FMM=F IPFlag=           0 FMFlag=           0 FMFlg1=           0
         NFxFlg=           0 DoJE=F BraDBF=F KetDBF=F FulRan=T
         wScrn=  0.000000 ICntrl=       600 IOpCl=  0 I1Cent=           0 NGrid=           0
         NMat0=    1 NMatS0=   6786 NMatT0=    0 NMatD0=    1 NMtDS0=    0 NMtDT0=    0
 Petite list used in FoFCou.
 CIDS: In Core Option IDoMem=           1.
 CCSD(T)
 =======
 Iterations=  50 Convergence= 0.100D-06
 Produce multiple copies of IABC intergrals
 Iteration Nr.   1
 **********************
 DD1Dir will call FoFMem   1 times, MxPair=        72
 NAB=    36 NAA=     0 NBB=     0.
 MP4(R+Q)=  0.76303313D-02
 Maximum subspace dimension=  5
 A-vector RMS=  1.8102668D-03 Max=  5.7775482D-03 conv= 1.00D-05.
 RLE energy=       -0.5266752016
 E3=       -0.72728838D-02        EUMP3=      -0.15264522754D+03
 E4(DQ)=   -0.14716126D-02        UMP4(DQ)=   -0.15264669915D+03
 E4(SDQ)=  -0.46009482D-02        UMP4(SDQ)=  -0.15264982849D+03
 VARIATIONAL ENERGIES WITH THE FIRST-ORDER WAVEFUNCTION:
 DE(Corr)= -0.52667487     E(Corr)=     -152.63752764    
 NORM(A)=   0.10601854D+01
 Iteration Nr.   2
 **********************
 DD1Dir will call FoFMem   1 times, MxPair=        72
 NAB=    36 NAA=     0 NBB=     0.
 A-vector RMS=  2.1303900D-04 Max=  1.9895551D-03 conv= 1.00D-05.
 RLE energy=       -0.5377639368
 DE(Corr)= -0.53664197     E(CORR)=     -152.64749474     Delta=-9.97D-03
 NORM(A)=   0.10639475D+01
 Iteration Nr.   3
 **********************
 DD1Dir will call FoFMem   1 times, MxPair=        72
 NAB=    36 NAA=     0 NBB=     0.
 A-vector RMS=  1.6085710D-04 Max=  1.0945516D-03 conv= 1.00D-05.
 RLE energy=       -0.5382624007
 DE(Corr)= -0.53766937     E(CORR)=     -152.64852214     Delta=-1.03D-03
 NORM(A)=   0.10645858D+01
 Iteration Nr.   4
 **********************
 DD1Dir will call FoFMem   1 times, MxPair=        72
 NAB=    36 NAA=     0 NBB=     0.
 A-vector RMS=  3.3188651D-05 Max=  1.7977361D-04 conv= 1.00D-05.
 RLE energy=       -0.5383409886
 DE(Corr)= -0.53830727     E(CORR)=     -152.64916004     Delta=-6.38D-04
 NORM(A)=   0.10646984D+01
 Iteration Nr.   5
 **********************
 DD1Dir will call FoFMem   1 times, MxPair=        72
 NAB=    36 NAA=     0 NBB=     0.
 A-vector RMS=  2.0892788D-05 Max=  2.1639845D-04 conv= 1.00D-05.
 RLE energy=       -0.5383541963
 DE(Corr)= -0.53834642     E(CORR)=     -152.64919919     Delta=-3.91D-05
 NORM(A)=   0.10647119D+01
 Iteration Nr.   6
 **********************
 DD1Dir will call FoFMem   1 times, MxPair=        72
 NAB=    36 NAA=     0 NBB=     0.
 A-vector RMS=  6.2977940D-06 Max=  4.4786636D-05 conv= 1.00D-05.
 RLE energy=       -0.5383465271
 DE(Corr)= -0.53835035     E(CORR)=     -152.64920312     Delta=-3.93D-06
 NORM(A)=   0.10647116D+01
 Iteration Nr.   7
 **********************
 DD1Dir will call FoFMem   1 times, MxPair=        72
 NAB=    36 NAA=     0 NBB=     0.
 A-vector RMS=  2.8859760D-06 Max=  3.0409882D-05 conv= 1.00D-05.
 RLE energy=       -0.5383493625
 DE(Corr)= -0.53835055     E(CORR)=     -152.64920332     Delta=-2.06D-07
 NORM(A)=   0.10647130D+01
 Iteration Nr.   8
 **********************
 DD1Dir will call FoFMem   1 times, MxPair=        72
 NAB=    36 NAA=     0 NBB=     0.
 A-vector RMS=  1.1544119D-06 Max=  9.4943878D-06 conv= 1.00D-05.
 RLE energy=       -0.5383498461
 DE(Corr)= -0.53835011     E(CORR)=     -152.64920288     Delta= 4.43D-07
 NORM(A)=   0.10647135D+01
 Iteration Nr.   9
 **********************
 DD1Dir will call FoFMem   1 times, MxPair=        72
 NAB=    36 NAA=     0 NBB=     0.
 A-vector RMS=  2.5934880D-07 Max=  2.7945446D-06 conv= 1.00D-05.
 RLE energy=       -0.5383501000
 DE(Corr)= -0.53835017     E(CORR)=     -152.64920294     Delta=-5.94D-08
 NORM(A)=   0.10647139D+01
 CI/CC converged in    9 iterations to DelEn=-5.94D-08 Conv= 1.00D-07 ErrA1= 2.59D-07 Conv= 1.00D-05
 Wavefunction amplitudes converged. E(Corr)=     -152.64920294    
 Largest amplitude= 4.19D-02
 IPart=  2 IA=    7   11.05% done.
 IPart=  2 IA=   13   21.46% done.
 IPart=  2 IA=   19   31.21% done.
 IPart=  3 IA=   25   40.32% done.
 IPart=  3 IA=   32   50.13% done.
 IPart=  2 IA=   40   60.27% done.
 IPart=  2 IA=   49   70.30% done.
 IPart=  3 IA=   60   80.58% done.
 IPart=  3 IA=   74   90.51% done.
 Time for triples=       50.54 seconds.
 T4(CCSD)= -0.16237603D-01
 T5(CCSD)=  0.41863607D-03
 CCSD(T)= -0.15266502191D+03
 Discarding MO integrals.
 Leave Link  913 at Sun Aug 28 00:21:59 2022, MaxMem=   536870912 cpu:              70.6 elap:              17.7
 (Enter /usr/site/hpc/x86_64/glibc-2.17/broadwell/gaussian/g16_a.03/pgi-16.5/g16/l601.exe)
 Copying SCF densities to generalized density rwf, IOpCl= 0 IROHF=0.

 **********************************************************************

            Population analysis using the SCF density.

 **********************************************************************

 Orbital symmetries:
       Occupied  (A') (A') (A') (A') (A') (A') (A') (A') (A") (A")
       Virtual   (A') (A') (A') (A') (A') (A') (A') (A') (A') (A')
                 (A") (A') (A") (A") (A') (A') (A") (A') (A") (A")
                 (A') (A') (A') (A') (A') (A') (A') (A') (A") (A")
                 (A") (A') (A") (A') (A') (A') (A') (A') (A') (A')
                 (A') (A') (A") (A") (A') (A") (A') (A") (A') (A')
                 (A") (A") (A') (A') (A') (A") (A') (A") (A") (A")
                 (A') (A') (A') (A') (A") (A") (A') (A') (A') (A')
                 (A") (A") (A') (A') (A') (A') (A') (A') (A') (A')
                 (A") (A") (A') (A') (A") (A") (A") (A") (A') (A")
                 (A") (A') (A') (A') (A') (A") (A') (A") (A') (A')
                 (A') (A') (A') (A') (A') (A')
 The electronic state is 1-A'.
 Alpha  occ. eigenvalues --  -20.57699 -20.53995  -1.35006  -1.31358  -0.72526
 Alpha  occ. eigenvalues --   -0.68736  -0.58610  -0.54746  -0.52102  -0.48479
 Alpha virt. eigenvalues --    0.11706   0.16562   0.19835   0.27334   0.50346
 Alpha virt. eigenvalues --    0.55266   0.57183   0.58016   0.68957   0.74386
 Alpha virt. eigenvalues --    0.74793   0.77665   0.80704   0.82756   0.83663
 Alpha virt. eigenvalues --    0.86069   0.86995   0.91247   0.94794   1.01968
 Alpha virt. eigenvalues --    1.11686   1.17318   1.21702   1.22711   1.49384
 Alpha virt. eigenvalues --    1.51076   1.53322   1.81883   1.98474   2.01902
 Alpha virt. eigenvalues --    2.04712   2.07983   2.09218   2.11664   2.17802
 Alpha virt. eigenvalues --    2.19645   2.26176   2.37191   2.59857   2.65398
 Alpha virt. eigenvalues --    2.91553   2.97559   3.37337   3.40916   3.47995
 Alpha virt. eigenvalues --    3.51153   3.51709   3.54707   3.57592   3.61259
 Alpha virt. eigenvalues --    3.76511   3.80175   3.81038   3.83921   3.88558
 Alpha virt. eigenvalues --    3.91330   3.94364   3.95325   4.02027   4.05083
 Alpha virt. eigenvalues --    4.06544   4.11822   4.14487   4.25277   4.28216
 Alpha virt. eigenvalues --    4.31751   4.41124   4.43100   4.44208   4.55488
 Alpha virt. eigenvalues --    4.64857   4.68069   4.80601   4.86115   5.03064
 Alpha virt. eigenvalues --    5.08124   5.23271   5.28471   5.52978   5.58309
 Alpha virt. eigenvalues --    5.95707   5.99379   6.38542   6.43223   6.83974
 Alpha virt. eigenvalues --    6.87470   6.87701   6.91322   6.91781   6.96864
 Alpha virt. eigenvalues --    7.00745   7.05487   7.07165   7.10083   7.13697
 Alpha virt. eigenvalues --    7.16112   7.18377   7.19885   7.47418   7.50781
 Alpha virt. eigenvalues --    7.70431   7.73124   8.15380   8.18534  12.46796
 Alpha virt. eigenvalues --   12.91830
          Condensed to atoms (all electrons):
               1          2          3          4          5          6
     1  O    7.828006   0.355094   0.343563  -0.002837   0.000075   0.001184
     2  H    0.355094   0.399304  -0.039727   0.016686  -0.000917  -0.002278
     3  H    0.343563  -0.039727   0.453965  -0.000362   0.000010   0.000519
     4  O   -0.002837   0.016686  -0.000362   7.837594   0.326729   0.316739
     5  H    0.000075  -0.000917   0.000010   0.326729   0.440598  -0.022287
     6  H    0.001184  -0.002278   0.000519   0.316739  -0.022287   0.456150
 Mulliken charges:
               1
     1  O   -0.525085
     2  H    0.271839
     3  H    0.242032
     4  O   -0.494549
     5  H    0.255791
     6  H    0.249973
 Sum of Mulliken charges =  -0.00000
 Mulliken charges with hydrogens summed into heavy atoms:
               1
     1  O   -0.011215
     4  O    0.011215
 Electronic spatial extent (au):  <R**2>=            241.9457
 Charge=             -0.0000 electrons
 Dipole moment (field-independent basis, Debye):
    X=             -2.7783    Y=              2.9721    Z=              0.0000  Tot=              4.0685
 Quadrupole moment (field-independent basis, Debye-Ang):
   XX=            -10.2836   YY=             -8.5935   ZZ=            -14.7214
   XY=              2.7802   XZ=              0.0000   YZ=              0.0000
 Traceless Quadrupole moment (field-independent basis, Debye-Ang):
   XX=              0.9159   YY=              2.6060   ZZ=             -3.5219
   XY=              2.7802   XZ=              0.0000   YZ=              0.0000
 Octapole moment (field-independent basis, Debye-Ang**2):
  XXX=             -3.6342  YYY=             26.1083  ZZZ=              0.0000  XYY=             -7.5666
  XXY=              0.7842  XXZ=              0.0000  XZZ=             -0.3566  YZZ=              0.4721
  YYZ=              0.0000  XYZ=              0.0000
 Hexadecapole moment (field-independent basis, Debye-Ang**3):
 XXXX=            -11.5065 YYYY=           -173.3875 ZZZZ=            -11.3641 XXXY=             -0.3321
 XXXZ=              0.0000 YYYX=             23.7178 YYYZ=              0.0000 ZZZX=              0.0000
 ZZZY=              0.0000 XXYY=            -31.8089 XXZZ=             -4.3861 YYZZ=            -46.2652
 XXYZ=              0.0000 YYXZ=              0.0000 ZZXY=             -0.3631
 N-N= 3.371530453933D+01 E-N=-4.287844161542D+02  KE= 1.517972454058D+02
 Symmetry A'   KE= 1.427608085365D+02
 Symmetry A"   KE= 9.036436869280D+00
 Leave Link  601 at Sun Aug 28 00:21:59 2022, MaxMem=   536870912 cpu:               0.2 elap:               0.1
 (Enter /usr/site/hpc/x86_64/glibc-2.17/broadwell/gaussian/g16_a.03/pgi-16.5/g16/l9999.exe)
 1\1\GINC-N002\SP\RCCSD(T)-FC\CC-pVTZ\H4O2\ROOT\28-Aug-2022\0\\#p CCSD(
 T)/cc-pVTZ\\H2O_H2O_1654\\0,1\O,0,0.,-0.009833,0.\H,0,-0.799571,-0.580
 965,0.\H,0,0.799571,-0.580965,0.\O,0,-2.734437,-1.960882,0.\H,0,-3.654
 584,-2.305609,0.\H,0,-2.10993,-2.719498,0.\\Version=ES64L-G16RevA.03\S
 tate=1-A'\HF=-152.1108528\MP2=-152.6379547\MP3=-152.6452275\MP4D=-152.
 6543295\MP4DQ=-152.6466992\MP4SDQ=-152.6498285\CCSD=-152.6492029\CCSD(
 T)=-152.6650219\RMSD=7.043e-09\PG=CS [SG(H4O2)]\\@


 YE HAVE SOWN MUCH, AND BRING IN LITTLE.
 YE EAT, BUT YE HAVE NOT ENOUGH.
 YE DRINK, BUT YE ARE NOT FILLED WITH DRINK.
 YE CLOTHE YOU, BUT THERE IS NONE WARM.
 AND HE THAT EARNETH WAGES EARNETH WAGES TO PUT
 IT INTO A BAG WITH HOLES.
                                     HAGGAI I,6
 Job cpu time:       0 days  0 hours  1 minutes 22.2 seconds.
 Elapsed time:       0 days  0 hours  0 minutes 20.7 seconds.
 File lengths (MBytes):  RWF=    360 Int=      0 D2E=      0 Chk=      8 Scr=      8
 Normal termination of Gaussian 16 at Sun Aug 28 00:21:59 2022.
