 Entering Gaussian System, Link 0=g16
 Input=H2O_H2O_370.com
 Output=H2O_H2O_370.log
 Initial command:
 /usr/site/hpc/x86_64/glibc-2.17/broadwell/gaussian/g16_a.03/pgi-16.5/g16/l1.exe "/gpfs/gpfs1/scratch/c7441284/ForceFieldModel/FittingData2/Gau-4178060.inp" -scrdir="/gpfs/gpfs1/scratch/c7441284/ForceFieldModel/FittingData2/"
 Entering Link 1 = /usr/site/hpc/x86_64/glibc-2.17/broadwell/gaussian/g16_a.03/pgi-16.5/g16/l1.exe PID=   4178061.
  
 Copyright (c) 1988,1990,1992,1993,1995,1998,2003,2009,2016,
            Gaussian, Inc.  All Rights Reserved.
  
 This is part of the Gaussian(R) 16 program.  It is based on
 the Gaussian(R) 09 system (copyright 2009, Gaussian, Inc.),
 the Gaussian(R) 03 system (copyright 2003, Gaussian, Inc.),
 the Gaussian(R) 98 system (copyright 1998, Gaussian, Inc.),
 the Gaussian(R) 94 system (copyright 1995, Gaussian, Inc.),
 the Gaussian 92(TM) system (copyright 1992, Gaussian, Inc.),
 the Gaussian 90(TM) system (copyright 1990, Gaussian, Inc.),
 the Gaussian 88(TM) system (copyright 1988, Gaussian, Inc.),
 the Gaussian 86(TM) system (copyright 1986, Carnegie Mellon
 University), and the Gaussian 82(TM) system (copyright 1983,
 Carnegie Mellon University). Gaussian is a federally registered
 trademark of Gaussian, Inc.
  
 This software contains proprietary and confidential information,
 including trade secrets, belonging to Gaussian, Inc.
  
 This software is provided under written license and may be
 used, copied, transmitted, or stored only in accord with that
 written license.
  
 The following legend is applicable only to US Government
 contracts under FAR:
  
                    RESTRICTED RIGHTS LEGEND
  
 Use, reproduction and disclosure by the US Government is
 subject to restrictions as set forth in subparagraphs (a)
 and (c) of the Commercial Computer Software - Restricted
 Rights clause in FAR 52.227-19.
  
 Gaussian, Inc.
 340 Quinnipiac St., Bldg. 40, Wallingford CT 06492
  
  
 ---------------------------------------------------------------
 Warning -- This program may not be used in any manner that
 competes with the business of Gaussian, Inc. or will provide
 assistance to any competitor of Gaussian, Inc.  The licensee
 of this program is prohibited from giving any competitor of
 Gaussian, Inc. access to this program.  By using this program,
 the user acknowledges that Gaussian, Inc. is engaged in the
 business of creating and licensing software in the field of
 computational chemistry and represents and warrants to the
 licensee that it is not a competitor of Gaussian, Inc. and that
 it will not use this program in any manner prohibited above.
 ---------------------------------------------------------------
  

 Cite this work as:
 Gaussian 16, Revision A.03,
 M. J. Frisch, G. W. Trucks, H. B. Schlegel, G. E. Scuseria, 
 M. A. Robb, J. R. Cheeseman, G. Scalmani, V. Barone, 
 G. A. Petersson, H. Nakatsuji, X. Li, M. Caricato, A. V. Marenich, 
 J. Bloino, B. G. Janesko, R. Gomperts, B. Mennucci, H. P. Hratchian, 
 J. V. Ortiz, A. F. Izmaylov, J. L. Sonnenberg, D. Williams-Young, 
 F. Ding, F. Lipparini, F. Egidi, J. Goings, B. Peng, A. Petrone, 
 T. Henderson, D. Ranasinghe, V. G. Zakrzewski, J. Gao, N. Rega, 
 G. Zheng, W. Liang, M. Hada, M. Ehara, K. Toyota, R. Fukuda, 
 J. Hasegawa, M. Ishida, T. Nakajima, Y. Honda, O. Kitao, H. Nakai, 
 T. Vreven, K. Throssell, J. A. Montgomery, Jr., J. E. Peralta, 
 F. Ogliaro, M. J. Bearpark, J. J. Heyd, E. N. Brothers, K. N. Kudin, 
 V. N. Staroverov, T. A. Keith, R. Kobayashi, J. Normand, 
 K. Raghavachari, A. P. Rendell, J. C. Burant, S. S. Iyengar, 
 J. Tomasi, M. Cossi, J. M. Millam, M. Klene, C. Adamo, R. Cammi, 
 J. W. Ochterski, R. L. Martin, K. Morokuma, O. Farkas, 
 J. B. Foresman, and D. J. Fox, Gaussian, Inc., Wallingford CT, 2016.
 
 ******************************************
 Gaussian 16:  ES64L-G16RevA.03 25-Dec-2016
                26-Aug-2022 
 ******************************************
 %NProcShared=4
 Will use up to    4 processors via shared memory.
 %Mem=4GB
 %Chk=H2O_H2O_370.chk
 ------------------
 #p CCSD(T)/cc-pVTZ
 ------------------
 1/38=1,172=1/1;
 2/12=2,17=6,18=5,40=1/2;
 3/5=16,6=1,11=9,25=1,30=1/1,2,3;
 4//1;
 5/5=2,38=5/2;
 8/6=4,9=120000,10=1/1,4;
 9/5=7,14=2/13;
 6/7=2,8=2,9=2,10=2/1;
 99/5=1,9=1/99;
 Leave Link    1 at Fri Aug 26 17:45:09 2022, MaxMem=   536870912 cpu:               0.3 elap:               0.1
 (Enter /usr/site/hpc/x86_64/glibc-2.17/broadwell/gaussian/g16_a.03/pgi-16.5/g16/l101.exe)
 -----------
 H2O_H2O_370
 -----------
 Symbolic Z-matrix:
 Charge =  0 Multiplicity = 1
 O                     0.       -0.00983   0. 
 H                    -0.79957  -0.58097   0. 
 H                     0.79957  -0.58097   0. 
 O                    -1.89749  -1.35113   0. 
 H                    -2.6561   -0.72663   0. 
 H                    -2.24221  -2.27128   0. 
 
 ITRead=  0  0  0  0  0  0
 MicOpt= -1 -1 -1 -1 -1 -1
 NAtoms=      6 NQM=        6 NQMF=       0 NMMI=      0 NMMIF=      0
                NMic=       0 NMicF=      0.
                    Isotopes and Nuclear Properties:
 (Nuclear quadrupole moments (NQMom) in fm**2, nuclear magnetic moments (NMagM)
  in nuclear magnetons)

  Atom         1           2           3           4           5           6
 IAtWgt=          16           1           1          16           1           1
 AtmWgt=  15.9949146   1.0078250   1.0078250  15.9949146   1.0078250   1.0078250
 NucSpn=           0           1           1           0           1           1
 AtZEff=  -0.0000000  -0.0000000  -0.0000000  -0.0000000  -0.0000000  -0.0000000
 NQMom=    0.0000000   0.0000000   0.0000000   0.0000000   0.0000000   0.0000000
 NMagM=    0.0000000   2.7928460   2.7928460   0.0000000   2.7928460   2.7928460
 AtZNuc=   8.0000000   1.0000000   1.0000000   8.0000000   1.0000000   1.0000000
 Leave Link  101 at Fri Aug 26 17:45:09 2022, MaxMem=   536870912 cpu:               0.7 elap:               0.2
 (Enter /usr/site/hpc/x86_64/glibc-2.17/broadwell/gaussian/g16_a.03/pgi-16.5/g16/l202.exe)
                          Input orientation:                          
 ---------------------------------------------------------------------
 Center     Atomic      Atomic             Coordinates (Angstroms)
 Number     Number       Type             X           Y           Z
 ---------------------------------------------------------------------
      1          8           0        0.000000   -0.009833    0.000000
      2          1           0       -0.799571   -0.580965    0.000000
      3          1           0        0.799571   -0.580965    0.000000
      4          8           0       -1.897488   -1.351132    0.000000
      5          1           0       -2.656103   -0.726625    0.000000
      6          1           0       -2.242214   -2.271278    0.000000
 ---------------------------------------------------------------------
                    Distance matrix (angstroms):
                    1          2          3          4          5
     1  O    0.000000
     2  H    0.982601   0.000000
     3  H    0.982601   1.599142   0.000000
     4  O    2.323692   1.341111   2.804868   0.000000
     5  H    2.751122   1.862237   3.458742   0.982602   0.000000
     6  H    3.184597   2.222246   3.479887   0.982601   1.599143
                    6
     6  H    0.000000
 Stoichiometry    H4O2
 Framework group  CS[SG(H4O2)]
 Deg. of freedom     9
 Full point group                 CS      NOp   2
 Largest Abelian subgroup         CS      NOp   2
 Largest concise Abelian subgroup C1      NOp   1
                         Standard orientation:                         
 ---------------------------------------------------------------------
 Center     Atomic      Atomic             Coordinates (Angstroms)
 Number     Number       Type             X           Y           Z
 ---------------------------------------------------------------------
      1          8           0        0.026864    1.248394    0.000000
      2          1           0        0.022022    0.265805    0.000000
      3          1           0       -0.901047    1.571637   -0.000000
      4          8           0        0.026864   -1.075298    0.000000
      5          1           0        0.974720   -1.334287    0.000000
      6          1           0       -0.525526   -1.887929   -0.000000
 ---------------------------------------------------------------------
 Rotational constants (GHZ):         250.7107753           9.8373021           9.4658831
 Leave Link  202 at Fri Aug 26 17:45:09 2022, MaxMem=   536870912 cpu:               0.0 elap:               0.0
 (Enter /usr/site/hpc/x86_64/glibc-2.17/broadwell/gaussian/g16_a.03/pgi-16.5/g16/l301.exe)
 Standard basis: CC-pVTZ (5D, 7F)
 Ernie: Thresh=  0.10000D-02 Tol=  0.10000D-05 Strict=F.
 Ernie:  6 primitive shells out of 84 were deleted.
 There are    92 symmetry adapted cartesian basis functions of A'  symmetry.
 There are    38 symmetry adapted cartesian basis functions of A"  symmetry.
 There are    80 symmetry adapted basis functions of A'  symmetry.
 There are    36 symmetry adapted basis functions of A"  symmetry.
   116 basis functions,   172 primitive gaussians,   130 cartesian basis functions
    10 alpha electrons       10 beta electrons
       nuclear repulsion energy        40.8315887288 Hartrees.
 IExCor=    0 DFT=F Ex=HF Corr=None ExCW=0 ScaHFX=  1.000000
 ScaDFX=  1.000000  1.000000  1.000000  1.000000 ScalE2=  1.000000  1.000000
 IRadAn=      5 IRanWt=     -1 IRanGd=            0 ICorTp=0 IEmpDi=  4
 NAtoms=    6 NActive=    6 NUniq=    6 SFac= 1.00D+00 NAtFMM=   60 NAOKFM=F Big=F
 Integral buffers will be    131072 words long.
 Raffenetti 1 integral format.
 Two-electron integral symmetry is turned on.
 Leave Link  301 at Fri Aug 26 17:45:10 2022, MaxMem=   536870912 cpu:               0.2 elap:               0.0
 (Enter /usr/site/hpc/x86_64/glibc-2.17/broadwell/gaussian/g16_a.03/pgi-16.5/g16/l302.exe)
 NPDir=0 NMtPBC=     1 NCelOv=     1 NCel=       1 NClECP=     1 NCelD=      1
         NCelK=      1 NCelE2=     1 NClLst=     1 CellRange=     0.0.
 One-electron integrals computed using PRISM.
 One-electron integral symmetry used in STVInt
 NBasis=   116 RedAO= T EigKep=  2.03D-03  NBF=    80    36
 NBsUse=   116 1.00D-06 EigRej= -1.00D+00 NBFU=    80    36
 Leave Link  302 at Fri Aug 26 17:45:10 2022, MaxMem=   536870912 cpu:               0.5 elap:               0.1
 (Enter /usr/site/hpc/x86_64/glibc-2.17/broadwell/gaussian/g16_a.03/pgi-16.5/g16/l303.exe)
 DipDrv:  MaxL=1.
 Leave Link  303 at Fri Aug 26 17:45:10 2022, MaxMem=   536870912 cpu:               0.1 elap:               0.0
 (Enter /usr/site/hpc/x86_64/glibc-2.17/broadwell/gaussian/g16_a.03/pgi-16.5/g16/l401.exe)
 ExpMin= 1.03D-01 ExpMax= 1.53D+04 ExpMxC= 5.22D+02 IAcc=3 IRadAn=         5 AccDes= 0.00D+00
 Harris functional with IExCor=  205 and IRadAn=       5 diagonalized for initial guess.
 HarFok:  IExCor=  205 AccDes= 0.00D+00 IRadAn=         5 IDoV= 1 UseB2=F ITyADJ=14
 ICtDFT=  3500011 ScaDFX=  1.000000  1.000000  1.000000  1.000000
 FoFCou: FMM=F IPFlag=           0 FMFlag=      100000 FMFlg1=           0
         NFxFlg=           0 DoJE=T BraDBF=F KetDBF=T FulRan=T
         wScrn=  0.000000 ICntrl=       500 IOpCl=  0 I1Cent=   200000004 NGrid=           0
         NMat0=    1 NMatS0=      1 NMatT0=    0 NMatD0=    1 NMtDS0=    0 NMtDT0=    0
 Petite list used in FoFCou.
 Harris En= -152.304878378173    
 JPrj=0 DoOrth=F DoCkMO=F.
 Initial guess orbital symmetries:
       Occupied  (A') (A') (A') (A') (A') (A') (A') (A') (A") (A")
       Virtual   (A') (A') (A') (A') (A') (A') (A') (A') (A") (A')
                 (A') (A") (A') (A') (A") (A") (A') (A") (A') (A')
                 (A") (A') (A') (A') (A') (A') (A') (A") (A") (A')
                 (A") (A') (A') (A') (A') (A') (A") (A') (A') (A')
                 (A') (A') (A") (A") (A") (A') (A') (A") (A") (A')
                 (A") (A') (A') (A') (A") (A') (A") (A') (A") (A')
                 (A') (A") (A') (A') (A") (A') (A") (A') (A") (A')
                 (A") (A') (A') (A') (A') (A') (A') (A') (A') (A')
                 (A") (A") (A') (A") (A') (A") (A") (A") (A') (A')
                 (A") (A") (A") (A') (A') (A') (A') (A') (A") (A')
                 (A') (A') (A') (A') (A') (A')
 The electronic state of the initial guess is 1-A'.
 Leave Link  401 at Fri Aug 26 17:45:10 2022, MaxMem=   536870912 cpu:               0.8 elap:               0.2
 (Enter /usr/site/hpc/x86_64/glibc-2.17/broadwell/gaussian/g16_a.03/pgi-16.5/g16/l502.exe)
 Keep R1 ints in memory in symmetry-blocked form, NReq=34823457.
 FoFCou: FMM=F IPFlag=           0 FMFlag=           0 FMFlg1=           0
         NFxFlg=           0 DoJE=F BraDBF=F KetDBF=F FulRan=T
         wScrn=  0.000000 ICntrl=       600 IOpCl=  0 I1Cent=           0 NGrid=           0
         NMat0=    1 NMatS0=   6786 NMatT0=    0 NMatD0=    1 NMtDS0=    0 NMtDT0=    0
 Petite list used in FoFCou.
 Closed shell SCF:
 Using DIIS extrapolation, IDIIS=  1040.
 NGot=   536870912 LenX=   525040673 LenY=   525023332
 Requested convergence on RMS density matrix=1.00D-08 within 128 cycles.
 Requested convergence on MAX density matrix=1.00D-06.
 Requested convergence on             energy=1.00D-06.
 No special actions if energy rises.

 Cycle   1  Pass 1  IDiag  1:
 E= -151.911967279794    
 DIIS: error= 5.32D-02 at cycle   1 NSaved=   1.
 NSaved= 1 IEnMin= 1 EnMin= -151.911967279794     IErMin= 1 ErrMin= 5.32D-02
 ErrMax= 5.32D-02  0.00D+00 EMaxC= 1.00D-01 BMatC= 3.96D-01 BMatP= 3.96D-01
 IDIUse=3 WtCom= 4.68D-01 WtEn= 5.32D-01
 Coeff-Com:  0.100D+01
 Coeff-En:   0.100D+01
 Coeff:      0.100D+01
 Gap=     0.426 Goal=   None    Shift=    0.000
 GapD=    0.426 DampG=2.000 DampE=0.500 DampFc=1.0000 IDamp=-1.
 RMSDP=3.13D-03 MaxDP=9.19D-02              OVMax= 1.40D-01

 Cycle   2  Pass 1  IDiag  1:
 E= -152.028564110038     Delta-E=       -0.116596830244 Rises=F Damp=F
 DIIS: error= 2.98D-02 at cycle   2 NSaved=   2.
 NSaved= 2 IEnMin= 2 EnMin= -152.028564110038     IErMin= 2 ErrMin= 2.98D-02
 ErrMax= 2.98D-02  0.00D+00 EMaxC= 1.00D-01 BMatC= 9.95D-02 BMatP= 3.96D-01
 IDIUse=3 WtCom= 7.02D-01 WtEn= 2.98D-01
 Coeff-Com:  0.303D+00 0.697D+00
 Coeff-En:   0.107D+00 0.893D+00
 Coeff:      0.244D+00 0.756D+00
 Gap=     0.572 Goal=   None    Shift=    0.000
 RMSDP=1.60D-03 MaxDP=4.89D-02 DE=-1.17D-01 OVMax= 6.23D-02

 Cycle   3  Pass 1  IDiag  1:
 E= -152.085401889026     Delta-E=       -0.056837778988 Rises=F Damp=F
 DIIS: error= 6.71D-03 at cycle   3 NSaved=   3.
 NSaved= 3 IEnMin= 3 EnMin= -152.085401889026     IErMin= 3 ErrMin= 6.71D-03
 ErrMax= 6.71D-03  0.00D+00 EMaxC= 1.00D-01 BMatC= 5.39D-03 BMatP= 9.95D-02
 IDIUse=3 WtCom= 9.33D-01 WtEn= 6.71D-02
 Coeff-Com: -0.307D-01 0.155D+00 0.876D+00
 Coeff-En:   0.000D+00 0.000D+00 0.100D+01
 Coeff:     -0.286D-01 0.144D+00 0.884D+00
 Gap=     0.542 Goal=   None    Shift=    0.000
 RMSDP=2.62D-04 MaxDP=7.53D-03 DE=-5.68D-02 OVMax= 1.43D-02

 Cycle   4  Pass 1  IDiag  1:
 E= -152.088740602723     Delta-E=       -0.003338713697 Rises=F Damp=F
 DIIS: error= 5.60D-04 at cycle   4 NSaved=   4.
 NSaved= 4 IEnMin= 4 EnMin= -152.088740602723     IErMin= 4 ErrMin= 5.60D-04
 ErrMax= 5.60D-04  0.00D+00 EMaxC= 1.00D-01 BMatC= 3.16D-05 BMatP= 5.39D-03
 IDIUse=3 WtCom= 9.94D-01 WtEn= 5.60D-03
 Coeff-Com:  0.387D-02-0.427D-01-0.169D+00 0.121D+01
 Coeff-En:   0.000D+00 0.000D+00 0.000D+00 0.100D+01
 Coeff:      0.385D-02-0.425D-01-0.168D+00 0.121D+01
 Gap=     0.546 Goal=   None    Shift=    0.000
 RMSDP=6.51D-05 MaxDP=1.18D-03 DE=-3.34D-03 OVMax= 2.44D-03

 Cycle   5  Pass 1  IDiag  1:
 E= -152.088789162395     Delta-E=       -0.000048559672 Rises=F Damp=F
 DIIS: error= 2.54D-04 at cycle   5 NSaved=   5.
 NSaved= 5 IEnMin= 5 EnMin= -152.088789162395     IErMin= 5 ErrMin= 2.54D-04
 ErrMax= 2.54D-04  0.00D+00 EMaxC= 1.00D-01 BMatC= 5.00D-06 BMatP= 3.16D-05
 IDIUse=3 WtCom= 9.97D-01 WtEn= 2.54D-03
 Coeff-Com:  0.365D-02-0.251D-01-0.116D+00 0.318D+00 0.820D+00
 Coeff-En:   0.000D+00 0.000D+00 0.000D+00 0.000D+00 0.100D+01
 Coeff:      0.364D-02-0.251D-01-0.116D+00 0.317D+00 0.820D+00
 Gap=     0.546 Goal=   None    Shift=    0.000
 RMSDP=1.87D-05 MaxDP=3.37D-04 DE=-4.86D-05 OVMax= 8.69D-04

 Cycle   6  Pass 1  IDiag  1:
 E= -152.088794496520     Delta-E=       -0.000005334125 Rises=F Damp=F
 DIIS: error= 7.84D-05 at cycle   6 NSaved=   6.
 NSaved= 6 IEnMin= 6 EnMin= -152.088794496520     IErMin= 6 ErrMin= 7.84D-05
 ErrMax= 7.84D-05  0.00D+00 EMaxC= 1.00D-01 BMatC= 3.60D-07 BMatP= 5.00D-06
 IDIUse=1 WtCom= 1.00D+00 WtEn= 0.00D+00
 Coeff-Com: -0.176D-03 0.270D-02 0.133D-01-0.119D+00 0.522D-01 0.105D+01
 Coeff:     -0.176D-03 0.270D-02 0.133D-01-0.119D+00 0.522D-01 0.105D+01
 Gap=     0.546 Goal=   None    Shift=    0.000
 RMSDP=6.96D-06 MaxDP=1.65D-04 DE=-5.33D-06 OVMax= 3.51D-04

 Cycle   7  Pass 1  IDiag  1:
 E= -152.088795057826     Delta-E=       -0.000000561306 Rises=F Damp=F
 DIIS: error= 1.08D-05 at cycle   7 NSaved=   7.
 NSaved= 7 IEnMin= 7 EnMin= -152.088795057826     IErMin= 7 ErrMin= 1.08D-05
 ErrMax= 1.08D-05  0.00D+00 EMaxC= 1.00D-01 BMatC= 9.77D-09 BMatP= 3.60D-07
 IDIUse=1 WtCom= 1.00D+00 WtEn= 0.00D+00
 Coeff-Com: -0.109D-03 0.529D-03 0.209D-02 0.674D-02-0.476D-01-0.182D+00
 Coeff-Com:  0.122D+01
 Coeff:     -0.109D-03 0.529D-03 0.209D-02 0.674D-02-0.476D-01-0.182D+00
 Coeff:      0.122D+01
 Gap=     0.546 Goal=   None    Shift=    0.000
 RMSDP=1.85D-06 MaxDP=4.13D-05 DE=-5.61D-07 OVMax= 1.11D-04

 Cycle   8  Pass 1  IDiag  1:
 E= -152.088795085615     Delta-E=       -0.000000027789 Rises=F Damp=F
 DIIS: error= 2.99D-06 at cycle   8 NSaved=   8.
 NSaved= 8 IEnMin= 8 EnMin= -152.088795085615     IErMin= 8 ErrMin= 2.99D-06
 ErrMax= 2.99D-06  0.00D+00 EMaxC= 1.00D-01 BMatC= 6.33D-10 BMatP= 9.77D-09
 IDIUse=1 WtCom= 1.00D+00 WtEn= 0.00D+00
 Coeff-Com:  0.240D-04-0.254D-03-0.121D-02 0.775D-02 0.206D-02-0.480D-01
 Coeff-Com: -0.112D+00 0.115D+01
 Coeff:      0.240D-04-0.254D-03-0.121D-02 0.775D-02 0.206D-02-0.480D-01
 Coeff:     -0.112D+00 0.115D+01
 Gap=     0.546 Goal=   None    Shift=    0.000
 RMSDP=3.50D-07 MaxDP=6.50D-06 DE=-2.78D-08 OVMax= 2.43D-05

 Cycle   9  Pass 1  IDiag  1:
 E= -152.088795087037     Delta-E=       -0.000000001422 Rises=F Damp=F
 DIIS: error= 7.20D-07 at cycle   9 NSaved=   9.
 NSaved= 9 IEnMin= 9 EnMin= -152.088795087037     IErMin= 9 ErrMin= 7.20D-07
 ErrMax= 7.20D-07  0.00D+00 EMaxC= 1.00D-01 BMatC= 3.96D-11 BMatP= 6.33D-10
 IDIUse=1 WtCom= 1.00D+00 WtEn= 0.00D+00
 Coeff-Com:  0.371D-05 0.292D-05 0.703D-04-0.191D-02 0.308D-02 0.202D-01
 Coeff-Com: -0.494D-01-0.242D+00 0.127D+01
 Coeff:      0.371D-05 0.292D-05 0.703D-04-0.191D-02 0.308D-02 0.202D-01
 Coeff:     -0.494D-01-0.242D+00 0.127D+01
 Gap=     0.546 Goal=   None    Shift=    0.000
 RMSDP=8.42D-08 MaxDP=1.70D-06 DE=-1.42D-09 OVMax= 6.28D-06

 Cycle  10  Pass 1  IDiag  1:
 E= -152.088795087134     Delta-E=       -0.000000000097 Rises=F Damp=F
 DIIS: error= 1.74D-07 at cycle  10 NSaved=  10.
 NSaved=10 IEnMin=10 EnMin= -152.088795087134     IErMin=10 ErrMin= 1.74D-07
 ErrMax= 1.74D-07  0.00D+00 EMaxC= 1.00D-01 BMatC= 1.46D-12 BMatP= 3.96D-11
 IDIUse=1 WtCom= 1.00D+00 WtEn= 0.00D+00
 Coeff-Com: -0.147D-05 0.101D-04 0.404D-04-0.573D-04-0.460D-03-0.835D-03
 Coeff-Com:  0.816D-02 0.299D-02-0.220D+00 0.121D+01
 Coeff:     -0.147D-05 0.101D-04 0.404D-04-0.573D-04-0.460D-03-0.835D-03
 Coeff:      0.816D-02 0.299D-02-0.220D+00 0.121D+01
 Gap=     0.546 Goal=   None    Shift=    0.000
 RMSDP=1.56D-08 MaxDP=3.15D-07 DE=-9.70D-11 OVMax= 1.19D-06

 Cycle  11  Pass 1  IDiag  1:
 E= -152.088795087138     Delta-E=       -0.000000000004 Rises=F Damp=F
 DIIS: error= 2.91D-08 at cycle  11 NSaved=  11.
 NSaved=11 IEnMin=11 EnMin= -152.088795087138     IErMin=11 ErrMin= 2.91D-08
 ErrMax= 2.91D-08  0.00D+00 EMaxC= 1.00D-01 BMatC= 7.81D-14 BMatP= 1.46D-12
 IDIUse=1 WtCom= 1.00D+00 WtEn= 0.00D+00
 Coeff-Com:  0.272D-07-0.148D-05-0.935D-05 0.984D-04-0.560D-04-0.735D-03
 Coeff-Com:  0.709D-03 0.131D-01-0.258D-01-0.237D+00 0.125D+01
 Coeff:      0.272D-07-0.148D-05-0.935D-05 0.984D-04-0.560D-04-0.735D-03
 Coeff:      0.709D-03 0.131D-01-0.258D-01-0.237D+00 0.125D+01
 Gap=     0.546 Goal=   None    Shift=    0.000
 RMSDP=3.56D-09 MaxDP=7.89D-08 DE=-3.87D-12 OVMax= 2.26D-07

 SCF Done:  E(RHF) =  -152.088795087     A.U. after   11 cycles
            NFock= 11  Conv=0.36D-08     -V/T= 2.0005
 KE= 1.520197988933D+02 PE=-4.432753432214D+02 EE= 9.833516051218D+01
 Leave Link  502 at Fri Aug 26 17:45:11 2022, MaxMem=   536870912 cpu:               4.6 elap:               1.2
 (Enter /usr/site/hpc/x86_64/glibc-2.17/broadwell/gaussian/g16_a.03/pgi-16.5/g16/l801.exe)
 Windowed orbitals will be sorted by symmetry type.
 ExpMin= 1.03D-01 ExpMax= 1.53D+04 ExpMxC= 5.22D+02 IAcc=3 IRadAn=         5 AccDes= 0.00D+00
 HarFok:  IExCor=  205 AccDes= 0.00D+00 IRadAn=         5 IDoV=-2 UseB2=F ITyADJ=14
 ICtDFT= 12500011 ScaDFX=  1.000000  1.000000  1.000000  1.000000
 Largest valence mixing into a core orbital is  1.10D-04
 Largest core mixing into a valence orbital is  1.78D-05
 Range of M.O.s used for correlation:     3   116
 NBasis=   116 NAE=    10 NBE=    10 NFC=     2 NFV=     0
 NROrb=    114 NOA=     8 NOB=     8 NVA=   106 NVB=   106
 Leave Link  801 at Fri Aug 26 17:45:11 2022, MaxMem=   536870912 cpu:               0.3 elap:               0.1
 (Enter /usr/site/hpc/x86_64/glibc-2.17/broadwell/gaussian/g16_a.03/pgi-16.5/g16/l804.exe)
 Closed-shell transformation, MDV=   536870912 ITran=4 ISComp=2.
 Unit  1 TFree=        834515 TCopy=        406125.
 Semi-Direct transformation.
 ModeAB=           2 MOrb=             8 LenV=     536360036
 LASXX=      2873146 LTotXX=     2873146 LenRXX=     2873146
 LTotAB=     2958132 MaxLAS=     7765680 LenRXY=     7765680
 NonZer=     7990944 LenScr=    12058624 LnRSAI=           0
 LnScr1=           0 LExtra=           0 Total=     22697450
 MaxDsk=          -1 SrtSym=           F ITran=            4
 DoSDTr:  NPSUse=  4
 JobTyp=0 Pass  1:  I=   1 to   8.
 (rs|ai) integrals will be sorted in core.
 Complete sort for first half transformation.
 First half transformation complete.
 Complete sort for second half transformation.
 Second half transformation complete.
 Spin components of T(2) and E(2):
     alpha-alpha T2 =       0.1598353937D-01 E2=     -0.6592948579D-01
     alpha-beta  T2 =       0.9114997080D-01 E2=     -0.4010888757D+00
     beta-beta   T2 =       0.1598353937D-01 E2=     -0.6592948579D-01
 ANorm=    0.1059772169D+01
 E2 =    -0.5329478472D+00 EUMP2 =    -0.15262174293438D+03
 Leave Link  804 at Fri Aug 26 17:45:13 2022, MaxMem=   536870912 cpu:               5.4 elap:               1.4
 (Enter /usr/site/hpc/x86_64/glibc-2.17/broadwell/gaussian/g16_a.03/pgi-16.5/g16/l913.exe)
 CIDS:  MDV=   536870912.
 Frozen-core window:  NFC=   2 NFV=   0.
 IFCWin=0 IBDFC=1 NFBD=     0     0 NFCmp=     0     0 NFFFC=     0     0
 Using DD3R+UMP44R for 1st iteration.
 Using DD4RQ for 2nd and later iterations.
 Keep R2 and R3 ints in memory in symmetry-blocked form, NReq=35357534.
 FoFCou: FMM=F IPFlag=           0 FMFlag=           0 FMFlg1=           0
         NFxFlg=           0 DoJE=F BraDBF=F KetDBF=F FulRan=T
         wScrn=  0.000000 ICntrl=       600 IOpCl=  0 I1Cent=           0 NGrid=           0
         NMat0=    1 NMatS0=   6786 NMatT0=    0 NMatD0=    1 NMtDS0=    0 NMtDT0=    0
 Petite list used in FoFCou.
 CIDS: In Core Option IDoMem=           1.
 CCSD(T)
 =======
 Iterations=  50 Convergence= 0.100D-06
 Produce multiple copies of IABC intergrals
 Iteration Nr.   1
 **********************
 DD1Dir will call FoFMem   1 times, MxPair=        72
 NAB=    36 NAA=     0 NBB=     0.
 MP4(R+Q)=  0.81104083D-02
 Maximum subspace dimension=  5
 A-vector RMS=  1.9049151D-03 Max=  6.9497143D-03 conv= 1.00D-05.
 RLE energy=       -0.5310306198
 E3=       -0.62429007D-02        EUMP3=      -0.15262798584D+03
 E4(DQ)=   -0.75218350D-03        UMP4(DQ)=   -0.15262873802D+03
 E4(SDQ)=  -0.39936537D-02        UMP4(SDQ)=  -0.15263197949D+03
 VARIATIONAL ENERGIES WITH THE FIRST-ORDER WAVEFUNCTION:
 DE(Corr)= -0.53102370     E(Corr)=     -152.61981879    
 NORM(A)=   0.10595549D+01
 Iteration Nr.   2
 **********************
 DD1Dir will call FoFMem   1 times, MxPair=        72
 NAB=    36 NAA=     0 NBB=     0.
 A-vector RMS=  2.0827169D-04 Max=  1.8815581D-03 conv= 1.00D-05.
 RLE energy=       -0.5419350555
 DE(Corr)= -0.54098140     E(CORR)=     -152.62977648     Delta=-9.96D-03
 NORM(A)=   0.10631706D+01
 Iteration Nr.   3
 **********************
 DD1Dir will call FoFMem   1 times, MxPair=        72
 NAB=    36 NAA=     0 NBB=     0.
 A-vector RMS=  2.0315895D-04 Max=  1.8503024D-03 conv= 1.00D-05.
 RLE energy=       -0.5423988600
 DE(Corr)= -0.54182036     E(CORR)=     -152.63061545     Delta=-8.39D-04
 NORM(A)=   0.10637624D+01
 Iteration Nr.   4
 **********************
 DD1Dir will call FoFMem   1 times, MxPair=        72
 NAB=    36 NAA=     0 NBB=     0.
 A-vector RMS=  4.0188988D-05 Max=  4.0445831D-04 conv= 1.00D-05.
 RLE energy=       -0.5424667717
 DE(Corr)= -0.54243525     E(CORR)=     -152.63123034     Delta=-6.15D-04
 NORM(A)=   0.10638765D+01
 Iteration Nr.   5
 **********************
 DD1Dir will call FoFMem   1 times, MxPair=        72
 NAB=    36 NAA=     0 NBB=     0.
 A-vector RMS=  3.1503772D-05 Max=  4.0193252D-04 conv= 1.00D-05.
 RLE energy=       -0.5424848222
 DE(Corr)= -0.54247693     E(CORR)=     -152.63127201     Delta=-4.17D-05
 NORM(A)=   0.10638978D+01
 Iteration Nr.   6
 **********************
 DD1Dir will call FoFMem   1 times, MxPair=        72
 NAB=    36 NAA=     0 NBB=     0.
 A-vector RMS=  7.2461621D-06 Max=  8.4314900D-05 conv= 1.00D-05.
 RLE energy=       -0.5424812739
 DE(Corr)= -0.54248152     E(CORR)=     -152.63127661     Delta=-4.60D-06
 NORM(A)=   0.10638993D+01
 Iteration Nr.   7
 **********************
 DD1Dir will call FoFMem   1 times, MxPair=        72
 NAB=    36 NAA=     0 NBB=     0.
 A-vector RMS=  4.0596920D-06 Max=  4.7760812D-05 conv= 1.00D-05.
 RLE energy=       -0.5424788060
 DE(Corr)= -0.54248191     E(CORR)=     -152.63127700     Delta=-3.89D-07
 NORM(A)=   0.10639000D+01
 Iteration Nr.   8
 **********************
 DD1Dir will call FoFMem   1 times, MxPair=        72
 NAB=    36 NAA=     0 NBB=     0.
 A-vector RMS=  1.8940259D-06 Max=  2.3019341D-05 conv= 1.00D-05.
 RLE energy=       -0.5424812134
 DE(Corr)= -0.54248158     E(CORR)=     -152.63127666     Delta= 3.37D-07
 NORM(A)=   0.10639013D+01
 Iteration Nr.   9
 **********************
 DD1Dir will call FoFMem   1 times, MxPair=        72
 NAB=    36 NAA=     0 NBB=     0.
 A-vector RMS=  3.6980794D-07 Max=  5.2621054D-06 conv= 1.00D-05.
 RLE energy=       -0.5424813817
 DE(Corr)= -0.54248146     E(CORR)=     -152.63127654     Delta= 1.20D-07
 NORM(A)=   0.10639017D+01
 Iteration Nr.  10
 **********************
 DD1Dir will call FoFMem   1 times, MxPair=        72
 NAB=    36 NAA=     0 NBB=     0.
 A-vector RMS=  1.3501821D-07 Max=  1.6878964D-06 conv= 1.00D-05.
 RLE energy=       -0.5424816873
 DE(Corr)= -0.54248169     E(CORR)=     -152.63127677     Delta=-2.32D-07
 NORM(A)=   0.10639019D+01
 Iteration Nr.  11
 **********************
 DD1Dir will call FoFMem   1 times, MxPair=        72
 NAB=    36 NAA=     0 NBB=     0.
 A-vector RMS=  5.5494717D-08 Max=  4.9479779D-07 conv= 1.00D-05.
 RLE energy=       -0.5424817708
 DE(Corr)= -0.54248175     E(CORR)=     -152.63127683     Delta=-6.01D-08
 NORM(A)=   0.10639020D+01
 CI/CC converged in   11 iterations to DelEn=-6.01D-08 Conv= 1.00D-07 ErrA1= 5.55D-08 Conv= 1.00D-05
 Wavefunction amplitudes converged. E(Corr)=     -152.63127683    
 Largest amplitude= 3.79D-02
 IPart=  3 IA=    7   11.05% done.
 IPart=  3 IA=   13   21.46% done.
 IPart=  3 IA=   19   31.21% done.
 IPart=  3 IA=   25   40.32% done.
 IPart=  1 IA=   32   50.13% done.
 IPart=  1 IA=   40   60.27% done.
 IPart=  2 IA=   49   70.30% done.
 IPart=  4 IA=   60   80.58% done.
 IPart=  3 IA=   74   90.51% done.
 Time for triples=       59.07 seconds.
 T4(CCSD)= -0.17037100D-01
 T5(CCSD)=  0.42835940D-03
 CCSD(T)= -0.15264788558D+03
 Discarding MO integrals.
 Leave Link  913 at Fri Aug 26 17:45:34 2022, MaxMem=   536870912 cpu:              85.8 elap:              21.5
 (Enter /usr/site/hpc/x86_64/glibc-2.17/broadwell/gaussian/g16_a.03/pgi-16.5/g16/l601.exe)
 Copying SCF densities to generalized density rwf, IOpCl= 0 IROHF=0.

 **********************************************************************

            Population analysis using the SCF density.

 **********************************************************************

 Orbital symmetries:
       Occupied  (A') (A') (A') (A') (A') (A') (A') (A") (A') (A")
       Virtual   (A') (A') (A') (A') (A') (A') (A') (A') (A') (A")
                 (A') (A') (A") (A') (A") (A") (A') (A") (A') (A')
                 (A") (A') (A') (A') (A') (A') (A') (A") (A") (A')
                 (A") (A') (A') (A') (A') (A') (A") (A') (A') (A')
                 (A') (A') (A") (A") (A') (A") (A') (A') (A") (A')
                 (A") (A') (A") (A') (A") (A') (A") (A") (A") (A')
                 (A') (A') (A') (A') (A") (A') (A") (A') (A") (A')
                 (A') (A") (A') (A') (A') (A') (A') (A') (A') (A')
                 (A") (A") (A') (A') (A") (A") (A") (A") (A') (A")
                 (A') (A") (A') (A") (A') (A') (A') (A') (A") (A')
                 (A') (A') (A') (A') (A') (A')
 The electronic state is 1-A'.
 Alpha  occ. eigenvalues --  -20.60651 -20.47694  -1.39855  -1.26579  -0.77099
 Alpha  occ. eigenvalues --   -0.71737  -0.57976  -0.56105  -0.48114  -0.43451
 Alpha virt. eigenvalues --    0.11162   0.17614   0.20030   0.33931   0.47211
 Alpha virt. eigenvalues --    0.53108   0.59985   0.68308   0.70060   0.72059
 Alpha virt. eigenvalues --    0.76098   0.77827   0.79216   0.83884   0.83948
 Alpha virt. eigenvalues --    0.87207   0.96141   0.98375   1.05431   1.12446
 Alpha virt. eigenvalues --    1.19817   1.21401   1.30510   1.42819   1.51244
 Alpha virt. eigenvalues --    1.55542   1.63472   1.90311   1.99936   2.04583
 Alpha virt. eigenvalues --    2.08905   2.10423   2.19836   2.22147   2.29478
 Alpha virt. eigenvalues --    2.34370   2.36407   2.58527   2.61700   2.76680
 Alpha virt. eigenvalues --    3.03577   3.23106   3.31726   3.45201   3.46997
 Alpha virt. eigenvalues --    3.48247   3.49531   3.57830   3.59871   3.66841
 Alpha virt. eigenvalues --    3.69333   3.78274   3.85758   3.90934   3.90993
 Alpha virt. eigenvalues --    3.94884   3.95798   4.08047   4.11930   4.12704
 Alpha virt. eigenvalues --    4.16252   4.17902   4.24624   4.26518   4.31559
 Alpha virt. eigenvalues --    4.43645   4.47354   4.52040   4.67127   4.79403
 Alpha virt. eigenvalues --    4.82714   4.84736   4.88361   4.98276   5.10365
 Alpha virt. eigenvalues --    5.32202   5.51258   5.55936   5.68210   5.89029
 Alpha virt. eigenvalues --    6.04679   6.05756   6.55825   6.78503   6.80668
 Alpha virt. eigenvalues --    6.84410   6.92009   6.94054   6.99830   7.05558
 Alpha virt. eigenvalues --    7.05814   7.13638   7.20380   7.26078   7.30708
 Alpha virt. eigenvalues --    7.46317   7.48560   7.52384   7.53688   7.58311
 Alpha virt. eigenvalues --    7.86370   8.08072   8.39257   8.57260  12.96563
 Alpha virt. eigenvalues --   13.05060
          Condensed to atoms (all electrons):
               1          2          3          4          5          6
     1  O    7.983585   0.382335   0.346404  -0.086042   0.004659   0.004300
     2  H    0.382335   0.327378  -0.044822   0.043388  -0.004845  -0.003899
     3  H    0.346404  -0.044822   0.461806   0.006831  -0.000016  -0.000251
     4  O   -0.086042   0.043388   0.006831   7.815876   0.307814   0.306998
     5  H    0.004659  -0.004845  -0.000016   0.307814   0.445981  -0.014762
     6  H    0.004300  -0.003899  -0.000251   0.306998  -0.014762   0.469192
 Mulliken charges:
               1
     1  O   -0.635242
     2  H    0.300466
     3  H    0.230049
     4  O   -0.394864
     5  H    0.261169
     6  H    0.238422
 Sum of Mulliken charges =  -0.00000
 Mulliken charges with hydrogens summed into heavy atoms:
               1
     1  O   -0.104727
     4  O    0.104727
 Electronic spatial extent (au):  <R**2>=            137.9367
 Charge=             -0.0000 electrons
 Dipole moment (field-independent basis, Debye):
    X=             -0.8527    Y=             -4.3663    Z=             -0.0000  Tot=              4.4488
 Quadrupole moment (field-independent basis, Debye-Ang):
   XX=             -9.2301   YY=             -9.6201   ZZ=            -14.6411
   XY=             -3.0421   XZ=              0.0000   YZ=             -0.0000
 Traceless Quadrupole moment (field-independent basis, Debye-Ang):
   XX=              1.9337   YY=              1.5437   ZZ=             -3.4773
   XY=             -3.0421   XZ=              0.0000   YZ=             -0.0000
 Octapole moment (field-independent basis, Debye-Ang**2):
  XXX=              0.1150  YYY=            -16.8368  ZZZ=              0.0000  XYY=             -5.7923
  XXY=             -2.6596  XXZ=              0.0000  XZZ=             -0.1048  YZZ=             -1.0111
  YYZ=             -0.0000  XYZ=             -0.0000
 Hexadecapole moment (field-independent basis, Debye-Ang**3):
 XXXX=            -10.7755 YYYY=           -101.3295 ZZZZ=            -11.3140 XXXY=             -2.2130
 XXXZ=             -0.0000 YYYX=             -1.3307 YYYZ=              0.0000 ZZZX=             -0.0000
 ZZZY=              0.0000 XXYY=            -13.9599 XXZZ=             -4.4394 YYZZ=            -24.9846
 XXYZ=             -0.0000 YYXZ=              0.0000 ZZXY=              0.8229
 N-N= 4.083158872878D+01 E-N=-4.432753424717D+02  KE= 1.520197988933D+02
 Symmetry A'   KE= 1.430490218922D+02
 Symmetry A"   KE= 8.970777001098D+00
 Leave Link  601 at Fri Aug 26 17:45:34 2022, MaxMem=   536870912 cpu:               0.2 elap:               0.1
 (Enter /usr/site/hpc/x86_64/glibc-2.17/broadwell/gaussian/g16_a.03/pgi-16.5/g16/l9999.exe)
 1\1\GINC-N041\SP\RCCSD(T)-FC\CC-pVTZ\H4O2\C7441284\26-Aug-2022\0\\#p C
 CSD(T)/cc-pVTZ\\H2O_H2O_370\\0,1\O,0,0.,-0.009833,0.\H,0,-0.799571,-0.
 580965,0.\H,0,0.799571,-0.580965,0.\O,0,-1.897488,-1.351132,0.\H,0,-2.
 656103,-0.726625,0.\H,0,-2.242214,-2.271278,0.\\Version=ES64L-G16RevA.
 03\State=1-A'\HF=-152.0887951\MP2=-152.6217429\MP3=-152.6279858\MP4D=-
 152.6368484\MP4DQ=-152.628738\MP4SDQ=-152.6319795\CCSD=-152.6312768\CC
 SD(T)=-152.6478856\RMSD=3.562e-09\PG=CS [SG(H4O2)]\\@


 NO HUMAN INVESTIGATION CAN BECOME REAL SCIENCE
 WITHOUT GOING THROUGH MATHEMATICAL PEOPLE.
 -- LEONARDO DA VINCI, IN "PENSIERI" CA. 1492
 Job cpu time:       0 days  0 hours  1 minutes 39.2 seconds.
 Elapsed time:       0 days  0 hours  0 minutes 25.0 seconds.
 File lengths (MBytes):  RWF=    572 Int=      0 D2E=      0 Chk=      8 Scr=      8
 Normal termination of Gaussian 16 at Fri Aug 26 17:45:34 2022.
