 Entering Gaussian System, Link 0=g16
 Input=H2O_H2O_729.com
 Output=H2O_H2O_729.log
 Initial command:
 /usr/site/hpc/x86_64/glibc-2.17/broadwell/gaussian/g16_a.03/pgi-16.5/g16/l1.exe "/gpfs/gpfs1/scratch/c7441284/ForceFieldModel/FittingData2/Gau-46858.inp" -scrdir="/gpfs/gpfs1/scratch/c7441284/ForceFieldModel/FittingData2/"
 Entering Link 1 = /usr/site/hpc/x86_64/glibc-2.17/broadwell/gaussian/g16_a.03/pgi-16.5/g16/l1.exe PID=     46859.
  
 Copyright (c) 1988,1990,1992,1993,1995,1998,2003,2009,2016,
            Gaussian, Inc.  All Rights Reserved.
  
 This is part of the Gaussian(R) 16 program.  It is based on
 the Gaussian(R) 09 system (copyright 2009, Gaussian, Inc.),
 the Gaussian(R) 03 system (copyright 2003, Gaussian, Inc.),
 the Gaussian(R) 98 system (copyright 1998, Gaussian, Inc.),
 the Gaussian(R) 94 system (copyright 1995, Gaussian, Inc.),
 the Gaussian 92(TM) system (copyright 1992, Gaussian, Inc.),
 the Gaussian 90(TM) system (copyright 1990, Gaussian, Inc.),
 the Gaussian 88(TM) system (copyright 1988, Gaussian, Inc.),
 the Gaussian 86(TM) system (copyright 1986, Carnegie Mellon
 University), and the Gaussian 82(TM) system (copyright 1983,
 Carnegie Mellon University). Gaussian is a federally registered
 trademark of Gaussian, Inc.
  
 This software contains proprietary and confidential information,
 including trade secrets, belonging to Gaussian, Inc.
  
 This software is provided under written license and may be
 used, copied, transmitted, or stored only in accord with that
 written license.
  
 The following legend is applicable only to US Government
 contracts under FAR:
  
                    RESTRICTED RIGHTS LEGEND
  
 Use, reproduction and disclosure by the US Government is
 subject to restrictions as set forth in subparagraphs (a)
 and (c) of the Commercial Computer Software - Restricted
 Rights clause in FAR 52.227-19.
  
 Gaussian, Inc.
 340 Quinnipiac St., Bldg. 40, Wallingford CT 06492
  
  
 ---------------------------------------------------------------
 Warning -- This program may not be used in any manner that
 competes with the business of Gaussian, Inc. or will provide
 assistance to any competitor of Gaussian, Inc.  The licensee
 of this program is prohibited from giving any competitor of
 Gaussian, Inc. access to this program.  By using this program,
 the user acknowledges that Gaussian, Inc. is engaged in the
 business of creating and licensing software in the field of
 computational chemistry and represents and warrants to the
 licensee that it is not a competitor of Gaussian, Inc. and that
 it will not use this program in any manner prohibited above.
 ---------------------------------------------------------------
  

 Cite this work as:
 Gaussian 16, Revision A.03,
 M. J. Frisch, G. W. Trucks, H. B. Schlegel, G. E. Scuseria, 
 M. A. Robb, J. R. Cheeseman, G. Scalmani, V. Barone, 
 G. A. Petersson, H. Nakatsuji, X. Li, M. Caricato, A. V. Marenich, 
 J. Bloino, B. G. Janesko, R. Gomperts, B. Mennucci, H. P. Hratchian, 
 J. V. Ortiz, A. F. Izmaylov, J. L. Sonnenberg, D. Williams-Young, 
 F. Ding, F. Lipparini, F. Egidi, J. Goings, B. Peng, A. Petrone, 
 T. Henderson, D. Ranasinghe, V. G. Zakrzewski, J. Gao, N. Rega, 
 G. Zheng, W. Liang, M. Hada, M. Ehara, K. Toyota, R. Fukuda, 
 J. Hasegawa, M. Ishida, T. Nakajima, Y. Honda, O. Kitao, H. Nakai, 
 T. Vreven, K. Throssell, J. A. Montgomery, Jr., J. E. Peralta, 
 F. Ogliaro, M. J. Bearpark, J. J. Heyd, E. N. Brothers, K. N. Kudin, 
 V. N. Staroverov, T. A. Keith, R. Kobayashi, J. Normand, 
 K. Raghavachari, A. P. Rendell, J. C. Burant, S. S. Iyengar, 
 J. Tomasi, M. Cossi, J. M. Millam, M. Klene, C. Adamo, R. Cammi, 
 J. W. Ochterski, R. L. Martin, K. Morokuma, O. Farkas, 
 J. B. Foresman, and D. J. Fox, Gaussian, Inc., Wallingford CT, 2016.
 
 ******************************************
 Gaussian 16:  ES64L-G16RevA.03 25-Dec-2016
                26-Aug-2022 
 ******************************************
 %NProcShared=4
 Will use up to    4 processors via shared memory.
 %Mem=4GB
 %Chk=H2O_H2O_729.chk
 ------------------
 #p CCSD(T)/cc-pVTZ
 ------------------
 1/38=1,172=1/1;
 2/12=2,17=6,18=5,40=1/2;
 3/5=16,6=1,11=9,25=1,30=1/1,2,3;
 4//1;
 5/5=2,38=5/2;
 8/6=4,9=120000,10=1/1,4;
 9/5=7,14=2/13;
 6/7=2,8=2,9=2,10=2/1;
 99/5=1,9=1/99;
 Leave Link    1 at Fri Aug 26 20:08:37 2022, MaxMem=   536870912 cpu:               0.3 elap:               0.1
 (Enter /usr/site/hpc/x86_64/glibc-2.17/broadwell/gaussian/g16_a.03/pgi-16.5/g16/l101.exe)
 -----------
 H2O_H2O_729
 -----------
 Symbolic Z-matrix:
 Charge =  0 Multiplicity = 1
 O                     0.       -0.00983   0. 
 H                    -0.79957  -0.58097   0. 
 H                     0.79957  -0.58097   0. 
 O                    -2.13397  -1.53197   0. 
 H                    -3.05411  -1.8767    0. 
 H                    -1.50946  -2.29058   0. 
 
 ITRead=  0  0  0  0  0  0
 MicOpt= -1 -1 -1 -1 -1 -1
 NAtoms=      6 NQM=        6 NQMF=       0 NMMI=      0 NMMIF=      0
                NMic=       0 NMicF=      0.
                    Isotopes and Nuclear Properties:
 (Nuclear quadrupole moments (NQMom) in fm**2, nuclear magnetic moments (NMagM)
  in nuclear magnetons)

  Atom         1           2           3           4           5           6
 IAtWgt=          16           1           1          16           1           1
 AtmWgt=  15.9949146   1.0078250   1.0078250  15.9949146   1.0078250   1.0078250
 NucSpn=           0           1           1           0           1           1
 AtZEff=  -0.0000000  -0.0000000  -0.0000000  -0.0000000  -0.0000000  -0.0000000
 NQMom=    0.0000000   0.0000000   0.0000000   0.0000000   0.0000000   0.0000000
 NMagM=    0.0000000   2.7928460   2.7928460   0.0000000   2.7928460   2.7928460
 AtZNuc=   8.0000000   1.0000000   1.0000000   8.0000000   1.0000000   1.0000000
 Leave Link  101 at Fri Aug 26 20:08:37 2022, MaxMem=   536870912 cpu:               0.6 elap:               0.2
 (Enter /usr/site/hpc/x86_64/glibc-2.17/broadwell/gaussian/g16_a.03/pgi-16.5/g16/l202.exe)
                          Input orientation:                          
 ---------------------------------------------------------------------
 Center     Atomic      Atomic             Coordinates (Angstroms)
 Number     Number       Type             X           Y           Z
 ---------------------------------------------------------------------
      1          8           0        0.000000   -0.009833    0.000000
      2          1           0       -0.799571   -0.580965    0.000000
      3          1           0        0.799571   -0.580965    0.000000
      4          8           0       -2.133968   -1.531969    0.000000
      5          1           0       -3.054115   -1.876695    0.000000
      6          1           0       -1.509461   -2.290584    0.000000
 ---------------------------------------------------------------------
                    Distance matrix (angstroms):
                    1          2          3          4          5
     1  O    0.000000
     2  H    0.982601   0.000000
     3  H    0.982601   1.599142   0.000000
     4  O    2.621205   1.638604   3.083838   0.000000
     5  H    3.579496   2.600362   4.065687   0.982602   0.000000
     6  H    2.735013   1.851146   2.873052   0.982602   1.599144
                    6
     6  H    0.000000
 Stoichiometry    H4O2
 Framework group  CS[SG(H4O2)]
 Deg. of freedom     9
 Full point group                 CS      NOp   2
 Largest Abelian subgroup         CS      NOp   2
 Largest concise Abelian subgroup C1      NOp   1
                         Standard orientation:                         
 ---------------------------------------------------------------------
 Center     Atomic      Atomic             Coordinates (Angstroms)
 Number     Number       Type             X           Y           Z
 ---------------------------------------------------------------------
      1          8           0        0.082825   -1.387838    0.000000
      2          1           0        0.082169   -0.405237    0.000000
      3          1           0       -0.846454   -1.707126    0.000000
      4          8           0        0.082825    1.233367    0.000000
      5          1           0        0.336508    2.182657    0.000000
      6          1           0       -0.897428    1.165474    0.000000
 ---------------------------------------------------------------------
 Rotational constants (GHZ):         278.9338533           7.8493740           7.6345335
 Leave Link  202 at Fri Aug 26 20:08:37 2022, MaxMem=   536870912 cpu:               0.0 elap:               0.0
 (Enter /usr/site/hpc/x86_64/glibc-2.17/broadwell/gaussian/g16_a.03/pgi-16.5/g16/l301.exe)
 Standard basis: CC-pVTZ (5D, 7F)
 Ernie: Thresh=  0.10000D-02 Tol=  0.10000D-05 Strict=F.
 Ernie:  6 primitive shells out of 84 were deleted.
 There are    92 symmetry adapted cartesian basis functions of A'  symmetry.
 There are    38 symmetry adapted cartesian basis functions of A"  symmetry.
 There are    80 symmetry adapted basis functions of A'  symmetry.
 There are    36 symmetry adapted basis functions of A"  symmetry.
   116 basis functions,   172 primitive gaussians,   130 cartesian basis functions
    10 alpha electrons       10 beta electrons
       nuclear repulsion energy        38.3064362193 Hartrees.
 IExCor=    0 DFT=F Ex=HF Corr=None ExCW=0 ScaHFX=  1.000000
 ScaDFX=  1.000000  1.000000  1.000000  1.000000 ScalE2=  1.000000  1.000000
 IRadAn=      5 IRanWt=     -1 IRanGd=            0 ICorTp=0 IEmpDi=  4
 NAtoms=    6 NActive=    6 NUniq=    6 SFac= 1.00D+00 NAtFMM=   60 NAOKFM=F Big=F
 Integral buffers will be    131072 words long.
 Raffenetti 1 integral format.
 Two-electron integral symmetry is turned on.
 Leave Link  301 at Fri Aug 26 20:08:37 2022, MaxMem=   536870912 cpu:               0.1 elap:               0.0
 (Enter /usr/site/hpc/x86_64/glibc-2.17/broadwell/gaussian/g16_a.03/pgi-16.5/g16/l302.exe)
 NPDir=0 NMtPBC=     1 NCelOv=     1 NCel=       1 NClECP=     1 NCelD=      1
         NCelK=      1 NCelE2=     1 NClLst=     1 CellRange=     0.0.
 One-electron integrals computed using PRISM.
 One-electron integral symmetry used in STVInt
 NBasis=   116 RedAO= T EigKep=  2.03D-03  NBF=    80    36
 NBsUse=   116 1.00D-06 EigRej= -1.00D+00 NBFU=    80    36
 Leave Link  302 at Fri Aug 26 20:08:37 2022, MaxMem=   536870912 cpu:               0.5 elap:               0.1
 (Enter /usr/site/hpc/x86_64/glibc-2.17/broadwell/gaussian/g16_a.03/pgi-16.5/g16/l303.exe)
 DipDrv:  MaxL=1.
 Leave Link  303 at Fri Aug 26 20:08:37 2022, MaxMem=   536870912 cpu:               0.1 elap:               0.0
 (Enter /usr/site/hpc/x86_64/glibc-2.17/broadwell/gaussian/g16_a.03/pgi-16.5/g16/l401.exe)
 ExpMin= 1.03D-01 ExpMax= 1.53D+04 ExpMxC= 5.22D+02 IAcc=3 IRadAn=         5 AccDes= 0.00D+00
 Harris functional with IExCor=  205 and IRadAn=       5 diagonalized for initial guess.
 HarFok:  IExCor=  205 AccDes= 0.00D+00 IRadAn=         5 IDoV= 1 UseB2=F ITyADJ=14
 ICtDFT=  3500011 ScaDFX=  1.000000  1.000000  1.000000  1.000000
 FoFCou: FMM=F IPFlag=           0 FMFlag=      100000 FMFlg1=           0
         NFxFlg=           0 DoJE=T BraDBF=F KetDBF=T FulRan=T
         wScrn=  0.000000 ICntrl=       500 IOpCl=  0 I1Cent=   200000004 NGrid=           0
         NMat0=    1 NMatS0=      1 NMatT0=    0 NMatD0=    1 NMtDS0=    0 NMtDT0=    0
 Petite list used in FoFCou.
 Harris En= -152.303618080117    
 JPrj=0 DoOrth=F DoCkMO=F.
 Initial guess orbital symmetries:
       Occupied  (A') (A') (A') (A') (A') (A') (A') (A') (A") (A")
       Virtual   (A') (A') (A') (A') (A') (A') (A') (A') (A') (A")
                 (A') (A") (A') (A") (A') (A") (A') (A") (A') (A')
                 (A") (A') (A') (A') (A') (A') (A') (A') (A") (A")
                 (A") (A') (A') (A") (A') (A') (A') (A') (A') (A')
                 (A') (A') (A") (A") (A') (A") (A') (A") (A') (A")
                 (A") (A') (A') (A') (A') (A") (A') (A") (A') (A")
                 (A') (A") (A') (A') (A") (A") (A') (A') (A") (A')
                 (A") (A') (A') (A') (A') (A') (A') (A') (A') (A')
                 (A") (A") (A') (A') (A") (A") (A") (A") (A') (A")
                 (A') (A") (A') (A') (A") (A') (A") (A') (A') (A')
                 (A') (A') (A') (A') (A') (A')
 The electronic state of the initial guess is 1-A'.
 Leave Link  401 at Fri Aug 26 20:08:37 2022, MaxMem=   536870912 cpu:               0.8 elap:               0.2
 (Enter /usr/site/hpc/x86_64/glibc-2.17/broadwell/gaussian/g16_a.03/pgi-16.5/g16/l502.exe)
 Keep R1 ints in memory in symmetry-blocked form, NReq=34823457.
 FoFCou: FMM=F IPFlag=           0 FMFlag=           0 FMFlg1=           0
         NFxFlg=           0 DoJE=F BraDBF=F KetDBF=F FulRan=T
         wScrn=  0.000000 ICntrl=       600 IOpCl=  0 I1Cent=           0 NGrid=           0
         NMat0=    1 NMatS0=   6786 NMatT0=    0 NMatD0=    1 NMtDS0=    0 NMtDT0=    0
 Petite list used in FoFCou.
 Closed shell SCF:
 Using DIIS extrapolation, IDIIS=  1040.
 NGot=   536870912 LenX=   525040673 LenY=   525023332
 Requested convergence on RMS density matrix=1.00D-08 within 128 cycles.
 Requested convergence on MAX density matrix=1.00D-06.
 Requested convergence on             energy=1.00D-06.
 No special actions if energy rises.

 Cycle   1  Pass 1  IDiag  1:
 E= -151.934344858790    
 DIIS: error= 5.44D-02 at cycle   1 NSaved=   1.
 NSaved= 1 IEnMin= 1 EnMin= -151.934344858790     IErMin= 1 ErrMin= 5.44D-02
 ErrMax= 5.44D-02  0.00D+00 EMaxC= 1.00D-01 BMatC= 3.87D-01 BMatP= 3.87D-01
 IDIUse=3 WtCom= 4.56D-01 WtEn= 5.44D-01
 Coeff-Com:  0.100D+01
 Coeff-En:   0.100D+01
 Coeff:      0.100D+01
 Gap=     0.475 Goal=   None    Shift=    0.000
 GapD=    0.475 DampG=2.000 DampE=0.500 DampFc=1.0000 IDamp=-1.
 RMSDP=2.83D-03 MaxDP=8.45D-02              OVMax= 1.21D-01

 Cycle   2  Pass 1  IDiag  1:
 E= -152.043860852306     Delta-E=       -0.109515993517 Rises=F Damp=F
 DIIS: error= 3.28D-02 at cycle   2 NSaved=   2.
 NSaved= 2 IEnMin= 2 EnMin= -152.043860852306     IErMin= 2 ErrMin= 3.28D-02
 ErrMax= 3.28D-02  0.00D+00 EMaxC= 1.00D-01 BMatC= 9.97D-02 BMatP= 3.87D-01
 IDIUse=3 WtCom= 6.72D-01 WtEn= 3.28D-01
 Coeff-Com:  0.306D+00 0.694D+00
 Coeff-En:   0.130D+00 0.870D+00
 Coeff:      0.248D+00 0.752D+00
 Gap=     0.603 Goal=   None    Shift=    0.000
 RMSDP=1.50D-03 MaxDP=4.69D-02 DE=-1.10D-01 OVMax= 5.80D-02

 Cycle   3  Pass 1  IDiag  1:
 E= -152.100828137307     Delta-E=       -0.056967285001 Rises=F Damp=F
 DIIS: error= 7.41D-03 at cycle   3 NSaved=   3.
 NSaved= 3 IEnMin= 3 EnMin= -152.100828137307     IErMin= 3 ErrMin= 7.41D-03
 ErrMax= 7.41D-03  0.00D+00 EMaxC= 1.00D-01 BMatC= 5.48D-03 BMatP= 9.97D-02
 IDIUse=3 WtCom= 9.26D-01 WtEn= 7.41D-02
 Coeff-Com: -0.305D-01 0.157D+00 0.873D+00
 Coeff-En:   0.000D+00 0.000D+00 0.100D+01
 Coeff:     -0.283D-01 0.145D+00 0.883D+00
 Gap=     0.575 Goal=   None    Shift=    0.000
 RMSDP=2.54D-04 MaxDP=6.88D-03 DE=-5.70D-02 OVMax= 1.23D-02

 Cycle   4  Pass 1  IDiag  1:
 E= -152.104236728953     Delta-E=       -0.003408591646 Rises=F Damp=F
 DIIS: error= 6.58D-04 at cycle   4 NSaved=   4.
 NSaved= 4 IEnMin= 4 EnMin= -152.104236728953     IErMin= 4 ErrMin= 6.58D-04
 ErrMax= 6.58D-04  0.00D+00 EMaxC= 1.00D-01 BMatC= 3.08D-05 BMatP= 5.48D-03
 IDIUse=3 WtCom= 9.93D-01 WtEn= 6.58D-03
 Coeff-Com:  0.723D-02-0.623D-01-0.260D+00 0.131D+01
 Coeff-En:   0.000D+00 0.000D+00 0.000D+00 0.100D+01
 Coeff:      0.718D-02-0.619D-01-0.258D+00 0.131D+01
 Gap=     0.578 Goal=   None    Shift=    0.000
 RMSDP=6.16D-05 MaxDP=9.94D-04 DE=-3.41D-03 OVMax= 2.58D-03

 Cycle   5  Pass 1  IDiag  1:
 E= -152.104288147944     Delta-E=       -0.000051418991 Rises=F Damp=F
 DIIS: error= 1.87D-04 at cycle   5 NSaved=   5.
 NSaved= 5 IEnMin= 5 EnMin= -152.104288147944     IErMin= 5 ErrMin= 1.87D-04
 ErrMax= 1.87D-04  0.00D+00 EMaxC= 1.00D-01 BMatC= 1.52D-06 BMatP= 3.08D-05
 IDIUse=3 WtCom= 9.98D-01 WtEn= 1.87D-03
 Coeff-Com:  0.118D-02-0.564D-02-0.251D-01-0.770D-01 0.111D+01
 Coeff-En:   0.000D+00 0.000D+00 0.000D+00 0.000D+00 0.100D+01
 Coeff:      0.118D-02-0.563D-02-0.250D-01-0.769D-01 0.111D+01
 Gap=     0.579 Goal=   None    Shift=    0.000
 RMSDP=1.34D-05 MaxDP=2.40D-04 DE=-5.14D-05 OVMax= 6.94D-04

 Cycle   6  Pass 1  IDiag  1:
 E= -152.104290805508     Delta-E=       -0.000002657564 Rises=F Damp=F
 DIIS: error= 5.88D-05 at cycle   6 NSaved=   6.
 NSaved= 6 IEnMin= 6 EnMin= -152.104290805508     IErMin= 6 ErrMin= 5.88D-05
 ErrMax= 5.88D-05  0.00D+00 EMaxC= 1.00D-01 BMatC= 1.70D-07 BMatP= 1.52D-06
 IDIUse=1 WtCom= 1.00D+00 WtEn= 0.00D+00
 Coeff-Com: -0.134D-03 0.233D-02 0.100D-01-0.107D+00 0.283D+00 0.812D+00
 Coeff:     -0.134D-03 0.233D-02 0.100D-01-0.107D+00 0.283D+00 0.812D+00
 Gap=     0.579 Goal=   None    Shift=    0.000
 RMSDP=3.39D-06 MaxDP=9.59D-05 DE=-2.66D-06 OVMax= 1.45D-04

 Cycle   7  Pass 1  IDiag  1:
 E= -152.104291003022     Delta-E=       -0.000000197514 Rises=F Damp=F
 DIIS: error= 1.28D-05 at cycle   7 NSaved=   7.
 NSaved= 7 IEnMin= 7 EnMin= -152.104291003022     IErMin= 7 ErrMin= 1.28D-05
 ErrMax= 1.28D-05  0.00D+00 EMaxC= 1.00D-01 BMatC= 1.11D-08 BMatP= 1.70D-07
 IDIUse=1 WtCom= 1.00D+00 WtEn= 0.00D+00
 Coeff-Com: -0.113D-03 0.565D-03 0.232D-02 0.617D-02-0.119D+00 0.320D-01
 Coeff-Com:  0.108D+01
 Coeff:     -0.113D-03 0.565D-03 0.232D-02 0.617D-02-0.119D+00 0.320D-01
 Coeff:      0.108D+01
 Gap=     0.579 Goal=   None    Shift=    0.000
 RMSDP=1.39D-06 MaxDP=2.96D-05 DE=-1.98D-07 OVMax= 7.68D-05

 Cycle   8  Pass 1  IDiag  1:
 E= -152.104291023728     Delta-E=       -0.000000020707 Rises=F Damp=F
 DIIS: error= 1.91D-06 at cycle   8 NSaved=   8.
 NSaved= 8 IEnMin= 8 EnMin= -152.104291023728     IErMin= 8 ErrMin= 1.91D-06
 ErrMax= 1.91D-06  0.00D+00 EMaxC= 1.00D-01 BMatC= 5.16D-10 BMatP= 1.11D-08
 IDIUse=1 WtCom= 1.00D+00 WtEn= 0.00D+00
 Coeff-Com:  0.236D-04-0.249D-03-0.109D-02 0.749D-02-0.594D-02-0.512D-01
 Coeff-Com: -0.111D+00 0.116D+01
 Coeff:      0.236D-04-0.249D-03-0.109D-02 0.749D-02-0.594D-02-0.512D-01
 Coeff:     -0.111D+00 0.116D+01
 Gap=     0.579 Goal=   None    Shift=    0.000
 RMSDP=2.95D-07 MaxDP=5.55D-06 DE=-2.07D-08 OVMax= 1.62D-05

 Cycle   9  Pass 1  IDiag  1:
 E= -152.104291024821     Delta-E=       -0.000000001092 Rises=F Damp=F
 DIIS: error= 5.91D-07 at cycle   9 NSaved=   9.
 NSaved= 9 IEnMin= 9 EnMin= -152.104291024821     IErMin= 9 ErrMin= 5.91D-07
 ErrMax= 5.91D-07  0.00D+00 EMaxC= 1.00D-01 BMatC= 3.11D-11 BMatP= 5.16D-10
 IDIUse=1 WtCom= 1.00D+00 WtEn= 0.00D+00
 Coeff-Com:  0.293D-05 0.115D-04 0.846D-04-0.212D-02 0.923D-02 0.931D-02
 Coeff-Com: -0.392D-01-0.270D+00 0.129D+01
 Coeff:      0.293D-05 0.115D-04 0.846D-04-0.212D-02 0.923D-02 0.931D-02
 Coeff:     -0.392D-01-0.270D+00 0.129D+01
 Gap=     0.579 Goal=   None    Shift=    0.000
 RMSDP=7.06D-08 MaxDP=1.23D-06 DE=-1.09D-09 OVMax= 4.21D-06

 Cycle  10  Pass 1  IDiag  1:
 E= -152.104291024893     Delta-E=       -0.000000000072 Rises=F Damp=F
 DIIS: error= 1.04D-07 at cycle  10 NSaved=  10.
 NSaved=10 IEnMin=10 EnMin= -152.104291024893     IErMin=10 ErrMin= 1.04D-07
 ErrMax= 1.04D-07  0.00D+00 EMaxC= 1.00D-01 BMatC= 8.26D-13 BMatP= 3.11D-11
 IDIUse=1 WtCom= 1.00D+00 WtEn= 0.00D+00
 Coeff-Com: -0.107D-05 0.689D-05 0.255D-04-0.152D-04-0.679D-03 0.168D-03
 Coeff-Com:  0.579D-02 0.968D-02-0.192D+00 0.118D+01
 Coeff:     -0.107D-05 0.689D-05 0.255D-04-0.152D-04-0.679D-03 0.168D-03
 Coeff:      0.579D-02 0.968D-02-0.192D+00 0.118D+01
 Gap=     0.579 Goal=   None    Shift=    0.000
 RMSDP=9.71D-09 MaxDP=1.42D-07 DE=-7.17D-11 OVMax= 6.50D-07

 SCF Done:  E(RHF) =  -152.104291025     A.U. after   10 cycles
            NFock= 10  Conv=0.97D-08     -V/T= 2.0015
 KE= 1.518707290822D+02 PE=-4.380018592722D+02 EE= 9.572040294575D+01
 Leave Link  502 at Fri Aug 26 20:08:39 2022, MaxMem=   536870912 cpu:               4.4 elap:               1.2
 (Enter /usr/site/hpc/x86_64/glibc-2.17/broadwell/gaussian/g16_a.03/pgi-16.5/g16/l801.exe)
 Windowed orbitals will be sorted by symmetry type.
 ExpMin= 1.03D-01 ExpMax= 1.53D+04 ExpMxC= 5.22D+02 IAcc=3 IRadAn=         5 AccDes= 0.00D+00
 HarFok:  IExCor=  205 AccDes= 0.00D+00 IRadAn=         5 IDoV=-2 UseB2=F ITyADJ=14
 ICtDFT= 12500011 ScaDFX=  1.000000  1.000000  1.000000  1.000000
 Largest valence mixing into a core orbital is  1.11D-04
 Largest core mixing into a valence orbital is  1.78D-05
 Range of M.O.s used for correlation:     3   116
 NBasis=   116 NAE=    10 NBE=    10 NFC=     2 NFV=     0
 NROrb=    114 NOA=     8 NOB=     8 NVA=   106 NVB=   106
 Leave Link  801 at Fri Aug 26 20:08:39 2022, MaxMem=   536870912 cpu:               0.3 elap:               0.1
 (Enter /usr/site/hpc/x86_64/glibc-2.17/broadwell/gaussian/g16_a.03/pgi-16.5/g16/l804.exe)
 Closed-shell transformation, MDV=   536870912 ITran=4 ISComp=2.
 Unit  1 TFree=        834515 TCopy=        406125.
 Semi-Direct transformation.
 ModeAB=           2 MOrb=             8 LenV=     536361476
 LASXX=      2873146 LTotXX=     2873146 LenRXX=     2873146
 LTotAB=     2958132 MaxLAS=     7765680 LenRXY=     7765680
 NonZer=     7880592 LenScr=    12058624 LnRSAI=           0
 LnScr1=           0 LExtra=           0 Total=     22697450
 MaxDsk=          -1 SrtSym=           F ITran=            4
 DoSDTr:  NPSUse=  4
 JobTyp=0 Pass  1:  I=   1 to   8.
 (rs|ai) integrals will be sorted in core.
 Complete sort for first half transformation.
 First half transformation complete.
 Complete sort for second half transformation.
 Second half transformation complete.
 Spin components of T(2) and E(2):
     alpha-alpha T2 =       0.1594182260D-01 E2=     -0.6516158664D-01
     alpha-beta  T2 =       0.9208134549D-01 E2=     -0.4005594726D+00
     beta-beta   T2 =       0.1594182260D-01 E2=     -0.6516158664D-01
 ANorm=    0.1060172151D+01
 E2 =    -0.5308826459D+00 EUMP2 =    -0.15263517367074D+03
 Leave Link  804 at Fri Aug 26 20:08:40 2022, MaxMem=   536870912 cpu:               4.7 elap:               1.2
 (Enter /usr/site/hpc/x86_64/glibc-2.17/broadwell/gaussian/g16_a.03/pgi-16.5/g16/l913.exe)
 CIDS:  MDV=   536870912.
 Frozen-core window:  NFC=   2 NFV=   0.
 IFCWin=0 IBDFC=1 NFBD=     0     0 NFCmp=     0     0 NFFFC=     0     0
 Using DD3R+UMP44R for 1st iteration.
 Using DD4RQ for 2nd and later iterations.
 Keep R2 and R3 ints in memory in symmetry-blocked form, NReq=35357534.
 FoFCou: FMM=F IPFlag=           0 FMFlag=           0 FMFlg1=           0
         NFxFlg=           0 DoJE=F BraDBF=F KetDBF=F FulRan=T
         wScrn=  0.000000 ICntrl=       600 IOpCl=  0 I1Cent=           0 NGrid=           0
         NMat0=    1 NMatS0=   6786 NMatT0=    0 NMatD0=    1 NMtDS0=    0 NMtDT0=    0
 Petite list used in FoFCou.
 CIDS: In Core Option IDoMem=           1.
 CCSD(T)
 =======
 Iterations=  50 Convergence= 0.100D-06
 Produce multiple copies of IABC intergrals
 Iteration Nr.   1
 **********************
 DD1Dir will call FoFMem   1 times, MxPair=        72
 NAB=    36 NAA=     0 NBB=     0.
 MP4(R+Q)=  0.79575460D-02
 Maximum subspace dimension=  5
 A-vector RMS=  1.9188912D-03 Max=  7.3982905D-03 conv= 1.00D-05.
 RLE energy=       -0.5295344749
 E3=       -0.66708388D-02        EUMP3=      -0.15264184451D+03
 E4(DQ)=   -0.10759515D-02        UMP4(DQ)=   -0.15264292046D+03
 E4(SDQ)=  -0.43467244D-02        UMP4(SDQ)=  -0.15264619123D+03
 VARIATIONAL ENERGIES WITH THE FIRST-ORDER WAVEFUNCTION:
 DE(Corr)= -0.52953105     E(Corr)=     -152.63382208    
 NORM(A)=   0.10601710D+01
 Iteration Nr.   2
 **********************
 DD1Dir will call FoFMem   1 times, MxPair=        72
 NAB=    36 NAA=     0 NBB=     0.
 A-vector RMS=  2.1117211D-04 Max=  1.6713862D-03 conv= 1.00D-05.
 RLE energy=       -0.5406340327
 DE(Corr)= -0.53960884     E(CORR)=     -152.64389986     Delta=-1.01D-02
 NORM(A)=   0.10639119D+01
 Iteration Nr.   3
 **********************
 DD1Dir will call FoFMem   1 times, MxPair=        72
 NAB=    36 NAA=     0 NBB=     0.
 A-vector RMS=  1.9743025D-04 Max=  1.7289977D-03 conv= 1.00D-05.
 RLE energy=       -0.5411220866
 DE(Corr)= -0.54052294     E(CORR)=     -152.64481397     Delta=-9.14D-04
 NORM(A)=   0.10645404D+01
 Iteration Nr.   4
 **********************
 DD1Dir will call FoFMem   1 times, MxPair=        72
 NAB=    36 NAA=     0 NBB=     0.
 A-vector RMS=  3.9608367D-05 Max=  3.5487206D-04 conv= 1.00D-05.
 RLE energy=       -0.5411950285
 DE(Corr)= -0.54116174     E(CORR)=     -152.64545276     Delta=-6.39D-04
 NORM(A)=   0.10646590D+01
 Iteration Nr.   5
 **********************
 DD1Dir will call FoFMem   1 times, MxPair=        72
 NAB=    36 NAA=     0 NBB=     0.
 A-vector RMS=  2.6338215D-05 Max=  3.2625411D-04 conv= 1.00D-05.
 RLE energy=       -0.5412128340
 DE(Corr)= -0.54120442     E(CORR)=     -152.64549545     Delta=-4.27D-05
 NORM(A)=   0.10646789D+01
 Iteration Nr.   6
 **********************
 DD1Dir will call FoFMem   1 times, MxPair=        72
 NAB=    36 NAA=     0 NBB=     0.
 A-vector RMS=  6.7007102D-06 Max=  6.5059598D-05 conv= 1.00D-05.
 RLE energy=       -0.5412079517
 DE(Corr)= -0.54120908     E(CORR)=     -152.64550011     Delta=-4.66D-06
 NORM(A)=   0.10646795D+01
 Iteration Nr.   7
 **********************
 DD1Dir will call FoFMem   1 times, MxPair=        72
 NAB=    36 NAA=     0 NBB=     0.
 A-vector RMS=  3.4130087D-06 Max=  3.7918589D-05 conv= 1.00D-05.
 RLE energy=       -0.5412068210
 DE(Corr)= -0.54120936     E(CORR)=     -152.64550039     Delta=-2.80D-07
 NORM(A)=   0.10646803D+01
 Iteration Nr.   8
 **********************
 DD1Dir will call FoFMem   1 times, MxPair=        72
 NAB=    36 NAA=     0 NBB=     0.
 A-vector RMS=  1.4653369D-06 Max=  1.4612792D-05 conv= 1.00D-05.
 RLE energy=       -0.5412086677
 DE(Corr)= -0.54120899     E(CORR)=     -152.64550002     Delta= 3.74D-07
 NORM(A)=   0.10646812D+01
 Iteration Nr.   9
 **********************
 DD1Dir will call FoFMem   1 times, MxPair=        72
 NAB=    36 NAA=     0 NBB=     0.
 A-vector RMS=  3.5561282D-07 Max=  3.2312660D-06 conv= 1.00D-05.
 RLE energy=       -0.5412088583
 DE(Corr)= -0.54120893     E(CORR)=     -152.64549995     Delta= 6.21D-08
 NORM(A)=   0.10646816D+01
 CI/CC converged in    9 iterations to DelEn= 6.21D-08 Conv= 1.00D-07 ErrA1= 3.56D-07 Conv= 1.00D-05
 Wavefunction amplitudes converged. E(Corr)=     -152.64549995    
 Largest amplitude= 3.54D-02
 IPart=  2 IA=    7   11.05% done.
 IPart=  3 IA=   13   21.46% done.
 IPart=  1 IA=   19   31.21% done.
 IPart=  4 IA=   25   40.32% done.
 IPart=  4 IA=   32   50.13% done.
 IPart=  1 IA=   40   60.27% done.
 IPart=  1 IA=   49   70.30% done.
 IPart=  3 IA=   60   80.58% done.
 IPart=  2 IA=   74   90.51% done.
 Time for triples=       51.86 seconds.
 T4(CCSD)= -0.16833747D-01
 T5(CCSD)=  0.44083043D-03
 CCSD(T)= -0.15266189287D+03
 Discarding MO integrals.
 Leave Link  913 at Fri Aug 26 20:08:58 2022, MaxMem=   536870912 cpu:              73.7 elap:              18.5
 (Enter /usr/site/hpc/x86_64/glibc-2.17/broadwell/gaussian/g16_a.03/pgi-16.5/g16/l601.exe)
 Copying SCF densities to generalized density rwf, IOpCl= 0 IROHF=0.

 **********************************************************************

            Population analysis using the SCF density.

 **********************************************************************

 Orbital symmetries:
       Occupied  (A') (A') (A') (A') (A') (A') (A') (A") (A') (A")
       Virtual   (A') (A') (A') (A') (A') (A') (A') (A') (A') (A")
                 (A') (A') (A") (A") (A') (A") (A') (A") (A') (A')
                 (A") (A') (A') (A') (A') (A') (A') (A') (A") (A")
                 (A") (A') (A') (A') (A") (A') (A') (A') (A') (A')
                 (A') (A') (A") (A") (A') (A') (A") (A') (A") (A')
                 (A") (A') (A') (A") (A') (A") (A") (A") (A') (A")
                 (A') (A') (A') (A") (A') (A') (A") (A') (A') (A")
                 (A') (A") (A') (A') (A') (A') (A') (A') (A') (A')
                 (A") (A") (A') (A') (A") (A") (A") (A") (A') (A")
                 (A') (A') (A") (A') (A") (A") (A') (A') (A') (A')
                 (A') (A') (A') (A') (A') (A')
 The electronic state is 1-A'.
 Alpha  occ. eigenvalues --  -20.59407 -20.51654  -1.37421  -1.29495  -0.75504
 Alpha  occ. eigenvalues --   -0.68342  -0.59653  -0.54178  -0.52343  -0.46519
 Alpha virt. eigenvalues --    0.11367   0.16679   0.20338   0.32265   0.48263
 Alpha virt. eigenvalues --    0.53278   0.58807   0.62344   0.69705   0.71906
 Alpha virt. eigenvalues --    0.74212   0.77927   0.79665   0.83141   0.83547
 Alpha virt. eigenvalues --    0.87565   0.91763   0.96398   1.02651   1.09855
 Alpha virt. eigenvalues --    1.10462   1.16784   1.31512   1.38948   1.50384
 Alpha virt. eigenvalues --    1.53867   1.57405   1.89089   1.90760   2.00953
 Alpha virt. eigenvalues --    2.06233   2.08829   2.15017   2.20816   2.24845
 Alpha virt. eigenvalues --    2.28377   2.29819   2.43274   2.61287   2.77971
 Alpha virt. eigenvalues --    2.97570   3.25908   3.33949   3.41441   3.46944
 Alpha virt. eigenvalues --    3.51318   3.52446   3.55624   3.56038   3.67202
 Alpha virt. eigenvalues --    3.73261   3.82083   3.83472   3.83912   3.90584
 Alpha virt. eigenvalues --    3.91124   3.97162   4.01366   4.06532   4.07154
 Alpha virt. eigenvalues --    4.13089   4.14343   4.19942   4.22689   4.24734
 Alpha virt. eigenvalues --    4.40726   4.42543   4.57407   4.64352   4.65228
 Alpha virt. eigenvalues --    4.65683   4.75269   4.83330   4.92161   5.01911
 Alpha virt. eigenvalues --    5.19731   5.32973   5.43366   5.60374   5.71087
 Alpha virt. eigenvalues --    5.93648   6.01856   6.44202   6.48221   6.76042
 Alpha virt. eigenvalues --    6.83992   6.91244   6.93325   6.98828   7.02921
 Alpha virt. eigenvalues --    7.03979   7.07563   7.09170   7.16861   7.17323
 Alpha virt. eigenvalues --    7.25134   7.28727   7.31149   7.57725   7.60869
 Alpha virt. eigenvalues --    7.71348   7.86780   8.15748   8.48713  12.85457
 Alpha virt. eigenvalues --   13.18974
          Condensed to atoms (all electrons):
               1          2          3          4          5          6
     1  O    7.870137   0.372817   0.342816  -0.029384   0.001206   0.005475
     2  H    0.372817   0.347176  -0.043768   0.039573  -0.003481  -0.006396
     3  H    0.342816  -0.043768   0.472848   0.000929  -0.000035   0.002323
     4  O   -0.029384   0.039573   0.000929   7.813921   0.300129   0.302131
     5  H    0.001206  -0.003481  -0.000035   0.300129   0.481971  -0.014825
     6  H    0.005475  -0.006396   0.002323   0.302131  -0.014825   0.474931
 Mulliken charges:
               1
     1  O   -0.563066
     2  H    0.294080
     3  H    0.224887
     4  O   -0.427298
     5  H    0.235036
     6  H    0.236362
 Sum of Mulliken charges =  -0.00000
 Mulliken charges with hydrogens summed into heavy atoms:
               1
     1  O   -0.044100
     4  O    0.044100
 Electronic spatial extent (au):  <R**2>=            162.9409
 Charge=             -0.0000 electrons
 Dipole moment (field-independent basis, Debye):
    X=             -2.6894    Y=              3.4640    Z=              0.0000  Tot=              4.3854
 Quadrupole moment (field-independent basis, Debye-Ang):
   XX=            -10.2886   YY=             -9.1220   ZZ=            -14.6793
   XY=              2.5887   XZ=              0.0000   YZ=              0.0000
 Traceless Quadrupole moment (field-independent basis, Debye-Ang):
   XX=              1.0747   YY=              2.2413   ZZ=             -3.3160
   XY=              2.5887   XZ=              0.0000   YZ=              0.0000
 Octapole moment (field-independent basis, Debye-Ang**2):
  XXX=             -3.5037  YYY=             19.3462  ZZZ=              0.0000  XYY=             -4.3329
  XXY=              0.8968  XXZ=              0.0000  XZZ=             -0.3349  YZZ=              0.6967
  YYZ=              0.0000  XYZ=              0.0000
 Hexadecapole moment (field-independent basis, Debye-Ang**3):
 XXXX=            -11.6498 YYYY=           -112.2356 ZZZZ=            -11.3245 XXXY=             -0.2782
 XXXZ=              0.0000 YYYX=             14.7624 YYYZ=              0.0000 ZZZX=              0.0000
 ZZZY=              0.0000 XXYY=            -21.0369 XXZZ=             -4.3970 YYZZ=            -30.0371
 XXYZ=              0.0000 YYXZ=              0.0000 ZZXY=             -0.3288
 N-N= 3.830643621935D+01 E-N=-4.380018596439D+02  KE= 1.518707290822D+02
 Symmetry A'   KE= 1.428563226215D+02
 Symmetry A"   KE= 9.014406460666D+00
 Leave Link  601 at Fri Aug 26 20:08:58 2022, MaxMem=   536870912 cpu:               0.2 elap:               0.1
 (Enter /usr/site/hpc/x86_64/glibc-2.17/broadwell/gaussian/g16_a.03/pgi-16.5/g16/l9999.exe)
 1\1\GINC-N041\SP\RCCSD(T)-FC\CC-pVTZ\H4O2\C7441284\26-Aug-2022\0\\#p C
 CSD(T)/cc-pVTZ\\H2O_H2O_729\\0,1\O,0,0.,-0.009833,0.\H,0,-0.799571,-0.
 580965,0.\H,0,0.799571,-0.580965,0.\O,0,-2.133968,-1.531969,0.\H,0,-3.
 054115,-1.876695,0.\H,0,-1.509461,-2.290584,0.\\Version=ES64L-G16RevA.
 03\State=1-A'\HF=-152.104291\MP2=-152.6351737\MP3=-152.6418445\MP4D=-1
 52.650878\MP4DQ=-152.6429205\MP4SDQ=-152.6461912\CCSD=-152.6455\CCSD(T
 )=-152.6618929\RMSD=9.708e-09\PG=CS [SG(H4O2)]\\@


 Fatherhood is pretending the present you love most is soap-on-a-rope.
 -- Bill Cosby
 Job cpu time:       0 days  0 hours  1 minutes 26.2 seconds.
 Elapsed time:       0 days  0 hours  0 minutes 21.7 seconds.
 File lengths (MBytes):  RWF=    572 Int=      0 D2E=      0 Chk=      8 Scr=      8
 Normal termination of Gaussian 16 at Fri Aug 26 20:08:59 2022.
