 Entering Gaussian System, Link 0=g16
 Input=H2O_H2O_619.com
 Output=H2O_H2O_619.log
 Initial command:
 /usr/site/hpc/x86_64/glibc-2.17/broadwell/gaussian/g16_a.03/pgi-16.5/g16/l1.exe "/gpfs/gpfs1/scratch/c7441284/ForceFieldModel/FittingData2/Gau-27997.inp" -scrdir="/gpfs/gpfs1/scratch/c7441284/ForceFieldModel/FittingData2/"
 Entering Link 1 = /usr/site/hpc/x86_64/glibc-2.17/broadwell/gaussian/g16_a.03/pgi-16.5/g16/l1.exe PID=     27998.
  
 Copyright (c) 1988,1990,1992,1993,1995,1998,2003,2009,2016,
            Gaussian, Inc.  All Rights Reserved.
  
 This is part of the Gaussian(R) 16 program.  It is based on
 the Gaussian(R) 09 system (copyright 2009, Gaussian, Inc.),
 the Gaussian(R) 03 system (copyright 2003, Gaussian, Inc.),
 the Gaussian(R) 98 system (copyright 1998, Gaussian, Inc.),
 the Gaussian(R) 94 system (copyright 1995, Gaussian, Inc.),
 the Gaussian 92(TM) system (copyright 1992, Gaussian, Inc.),
 the Gaussian 90(TM) system (copyright 1990, Gaussian, Inc.),
 the Gaussian 88(TM) system (copyright 1988, Gaussian, Inc.),
 the Gaussian 86(TM) system (copyright 1986, Carnegie Mellon
 University), and the Gaussian 82(TM) system (copyright 1983,
 Carnegie Mellon University). Gaussian is a federally registered
 trademark of Gaussian, Inc.
  
 This software contains proprietary and confidential information,
 including trade secrets, belonging to Gaussian, Inc.
  
 This software is provided under written license and may be
 used, copied, transmitted, or stored only in accord with that
 written license.
  
 The following legend is applicable only to US Government
 contracts under FAR:
  
                    RESTRICTED RIGHTS LEGEND
  
 Use, reproduction and disclosure by the US Government is
 subject to restrictions as set forth in subparagraphs (a)
 and (c) of the Commercial Computer Software - Restricted
 Rights clause in FAR 52.227-19.
  
 Gaussian, Inc.
 340 Quinnipiac St., Bldg. 40, Wallingford CT 06492
  
  
 ---------------------------------------------------------------
 Warning -- This program may not be used in any manner that
 competes with the business of Gaussian, Inc. or will provide
 assistance to any competitor of Gaussian, Inc.  The licensee
 of this program is prohibited from giving any competitor of
 Gaussian, Inc. access to this program.  By using this program,
 the user acknowledges that Gaussian, Inc. is engaged in the
 business of creating and licensing software in the field of
 computational chemistry and represents and warrants to the
 licensee that it is not a competitor of Gaussian, Inc. and that
 it will not use this program in any manner prohibited above.
 ---------------------------------------------------------------
  

 Cite this work as:
 Gaussian 16, Revision A.03,
 M. J. Frisch, G. W. Trucks, H. B. Schlegel, G. E. Scuseria, 
 M. A. Robb, J. R. Cheeseman, G. Scalmani, V. Barone, 
 G. A. Petersson, H. Nakatsuji, X. Li, M. Caricato, A. V. Marenich, 
 J. Bloino, B. G. Janesko, R. Gomperts, B. Mennucci, H. P. Hratchian, 
 J. V. Ortiz, A. F. Izmaylov, J. L. Sonnenberg, D. Williams-Young, 
 F. Ding, F. Lipparini, F. Egidi, J. Goings, B. Peng, A. Petrone, 
 T. Henderson, D. Ranasinghe, V. G. Zakrzewski, J. Gao, N. Rega, 
 G. Zheng, W. Liang, M. Hada, M. Ehara, K. Toyota, R. Fukuda, 
 J. Hasegawa, M. Ishida, T. Nakajima, Y. Honda, O. Kitao, H. Nakai, 
 T. Vreven, K. Throssell, J. A. Montgomery, Jr., J. E. Peralta, 
 F. Ogliaro, M. J. Bearpark, J. J. Heyd, E. N. Brothers, K. N. Kudin, 
 V. N. Staroverov, T. A. Keith, R. Kobayashi, J. Normand, 
 K. Raghavachari, A. P. Rendell, J. C. Burant, S. S. Iyengar, 
 J. Tomasi, M. Cossi, J. M. Millam, M. Klene, C. Adamo, R. Cammi, 
 J. W. Ochterski, R. L. Martin, K. Morokuma, O. Farkas, 
 J. B. Foresman, and D. J. Fox, Gaussian, Inc., Wallingford CT, 2016.
 
 ******************************************
 Gaussian 16:  ES64L-G16RevA.03 25-Dec-2016
                26-Aug-2022 
 ******************************************
 %NProcShared=4
 Will use up to    4 processors via shared memory.
 %Mem=4GB
 %Chk=H2O_H2O_619.chk
 ------------------
 #p CCSD(T)/cc-pVTZ
 ------------------
 1/38=1,172=1/1;
 2/12=2,17=6,18=5,40=1/2;
 3/5=16,6=1,11=9,25=1,30=1/1,2,3;
 4//1;
 5/5=2,38=5/2;
 8/6=4,9=120000,10=1/1,4;
 9/5=7,14=2/13;
 6/7=2,8=2,9=2,10=2/1;
 99/5=1,9=1/99;
 Leave Link    1 at Fri Aug 26 19:26:05 2022, MaxMem=   536870912 cpu:               0.4 elap:               0.1
 (Enter /usr/site/hpc/x86_64/glibc-2.17/broadwell/gaussian/g16_a.03/pgi-16.5/g16/l101.exe)
 -----------
 H2O_H2O_619
 -----------
 Symbolic Z-matrix:
 Charge =  0 Multiplicity = 1
 O                     0.       -0.00983   0. 
 H                    -0.79957  -0.58097   0. 
 H                     0.79957  -0.58097   0. 
 O                    -2.05959  -1.46767   0. 
 H                    -2.85743  -0.89412   0. 
 H                    -2.3434   -2.40839   0. 
 
 ITRead=  0  0  0  0  0  0
 MicOpt= -1 -1 -1 -1 -1 -1
 NAtoms=      6 NQM=        6 NQMF=       0 NMMI=      0 NMMIF=      0
                NMic=       0 NMicF=      0.
                    Isotopes and Nuclear Properties:
 (Nuclear quadrupole moments (NQMom) in fm**2, nuclear magnetic moments (NMagM)
  in nuclear magnetons)

  Atom         1           2           3           4           5           6
 IAtWgt=          16           1           1          16           1           1
 AtmWgt=  15.9949146   1.0078250   1.0078250  15.9949146   1.0078250   1.0078250
 NucSpn=           0           1           1           0           1           1
 AtZEff=  -0.0000000  -0.0000000  -0.0000000  -0.0000000  -0.0000000  -0.0000000
 NQMom=    0.0000000   0.0000000   0.0000000   0.0000000   0.0000000   0.0000000
 NMagM=    0.0000000   2.7928460   2.7928460   0.0000000   2.7928460   2.7928460
 AtZNuc=   8.0000000   1.0000000   1.0000000   8.0000000   1.0000000   1.0000000
 Leave Link  101 at Fri Aug 26 19:26:05 2022, MaxMem=   536870912 cpu:               0.7 elap:               0.2
 (Enter /usr/site/hpc/x86_64/glibc-2.17/broadwell/gaussian/g16_a.03/pgi-16.5/g16/l202.exe)
                          Input orientation:                          
 ---------------------------------------------------------------------
 Center     Atomic      Atomic             Coordinates (Angstroms)
 Number     Number       Type             X           Y           Z
 ---------------------------------------------------------------------
      1          8           0        0.000000   -0.009833    0.000000
      2          1           0       -0.799571   -0.580965    0.000000
      3          1           0        0.799571   -0.580965    0.000000
      4          8           0       -2.059590   -1.467670    0.000000
      5          1           0       -2.857426   -0.894116    0.000000
      6          1           0       -2.343398   -2.408393    0.000000
 ---------------------------------------------------------------------
                    Distance matrix (angstroms):
                    1          2          3          4          5
     1  O    0.000000
     2  H    0.982601   0.000000
     3  H    0.982601   1.599142   0.000000
     4  O    2.523331   1.540745   2.993501   0.000000
     5  H    2.991127   2.081545   3.670380   0.982602   0.000000
     6  H    3.353298   2.392257   3.635622   0.982602   1.599143
                    6
     6  H    0.000000
 Stoichiometry    H4O2
 Framework group  CS[SG(H4O2)]
 Deg. of freedom     9
 Full point group                 CS      NOp   2
 Largest Abelian subgroup         CS      NOp   2
 Largest concise Abelian subgroup C1      NOp   1
                         Standard orientation:                         
 ---------------------------------------------------------------------
 Center     Atomic      Atomic             Coordinates (Angstroms)
 Number     Number       Type             X           Y           Z
 ---------------------------------------------------------------------
      1          8           0        0.030356    1.349412    0.000000
      2          1           0        0.026134    0.366819    0.000000
      3          1           0       -0.897759    1.672069    0.000000
      4          8           0        0.030356   -1.173919   -0.000000
      5          1           0        0.959445   -1.493761   -0.000000
      6          1           0       -0.573512   -1.949065   -0.000000
 ---------------------------------------------------------------------
 Rotational constants (GHZ):         247.4608879           8.3953413           8.1198672
 Leave Link  202 at Fri Aug 26 19:26:05 2022, MaxMem=   536870912 cpu:               0.0 elap:               0.0
 (Enter /usr/site/hpc/x86_64/glibc-2.17/broadwell/gaussian/g16_a.03/pgi-16.5/g16/l301.exe)
 Standard basis: CC-pVTZ (5D, 7F)
 Ernie: Thresh=  0.10000D-02 Tol=  0.10000D-05 Strict=F.
 Ernie:  6 primitive shells out of 84 were deleted.
 There are    92 symmetry adapted cartesian basis functions of A'  symmetry.
 There are    38 symmetry adapted cartesian basis functions of A"  symmetry.
 There are    80 symmetry adapted basis functions of A'  symmetry.
 There are    36 symmetry adapted basis functions of A"  symmetry.
   116 basis functions,   172 primitive gaussians,   130 cartesian basis functions
    10 alpha electrons       10 beta electrons
       nuclear repulsion energy        38.9218029305 Hartrees.
 IExCor=    0 DFT=F Ex=HF Corr=None ExCW=0 ScaHFX=  1.000000
 ScaDFX=  1.000000  1.000000  1.000000  1.000000 ScalE2=  1.000000  1.000000
 IRadAn=      5 IRanWt=     -1 IRanGd=            0 ICorTp=0 IEmpDi=  4
 NAtoms=    6 NActive=    6 NUniq=    6 SFac= 1.00D+00 NAtFMM=   60 NAOKFM=F Big=F
 Integral buffers will be    131072 words long.
 Raffenetti 1 integral format.
 Two-electron integral symmetry is turned on.
 Leave Link  301 at Fri Aug 26 19:26:05 2022, MaxMem=   536870912 cpu:               0.2 elap:               0.0
 (Enter /usr/site/hpc/x86_64/glibc-2.17/broadwell/gaussian/g16_a.03/pgi-16.5/g16/l302.exe)
 NPDir=0 NMtPBC=     1 NCelOv=     1 NCel=       1 NClECP=     1 NCelD=      1
         NCelK=      1 NCelE2=     1 NClLst=     1 CellRange=     0.0.
 One-electron integrals computed using PRISM.
 One-electron integral symmetry used in STVInt
 NBasis=   116 RedAO= T EigKep=  2.11D-03  NBF=    80    36
 NBsUse=   116 1.00D-06 EigRej= -1.00D+00 NBFU=    80    36
 Leave Link  302 at Fri Aug 26 19:26:05 2022, MaxMem=   536870912 cpu:               0.5 elap:               0.1
 (Enter /usr/site/hpc/x86_64/glibc-2.17/broadwell/gaussian/g16_a.03/pgi-16.5/g16/l303.exe)
 DipDrv:  MaxL=1.
 Leave Link  303 at Fri Aug 26 19:26:05 2022, MaxMem=   536870912 cpu:               0.1 elap:               0.0
 (Enter /usr/site/hpc/x86_64/glibc-2.17/broadwell/gaussian/g16_a.03/pgi-16.5/g16/l401.exe)
 ExpMin= 1.03D-01 ExpMax= 1.53D+04 ExpMxC= 5.22D+02 IAcc=3 IRadAn=         5 AccDes= 0.00D+00
 Harris functional with IExCor=  205 and IRadAn=       5 diagonalized for initial guess.
 HarFok:  IExCor=  205 AccDes= 0.00D+00 IRadAn=         5 IDoV= 1 UseB2=F ITyADJ=14
 ICtDFT=  3500011 ScaDFX=  1.000000  1.000000  1.000000  1.000000
 FoFCou: FMM=F IPFlag=           0 FMFlag=      100000 FMFlg1=           0
         NFxFlg=           0 DoJE=T BraDBF=F KetDBF=T FulRan=T
         wScrn=  0.000000 ICntrl=       500 IOpCl=  0 I1Cent=   200000004 NGrid=           0
         NMat0=    1 NMatS0=      1 NMatT0=    0 NMatD0=    1 NMtDS0=    0 NMtDT0=    0
 Petite list used in FoFCou.
 Harris En= -152.308674101409    
 JPrj=0 DoOrth=F DoCkMO=F.
 Initial guess orbital symmetries:
       Occupied  (A') (A') (A') (A') (A') (A') (A') (A') (A") (A")
       Virtual   (A') (A') (A') (A') (A') (A') (A') (A') (A") (A')
                 (A') (A") (A') (A') (A") (A") (A') (A") (A') (A')
                 (A") (A') (A') (A') (A') (A') (A') (A") (A') (A")
                 (A") (A') (A') (A') (A") (A') (A') (A') (A') (A')
                 (A') (A') (A") (A") (A") (A') (A") (A') (A") (A')
                 (A") (A') (A') (A') (A') (A") (A") (A') (A") (A')
                 (A') (A") (A') (A') (A") (A') (A") (A') (A") (A')
                 (A") (A') (A') (A') (A') (A') (A') (A') (A') (A')
                 (A") (A") (A') (A') (A") (A") (A") (A") (A") (A')
                 (A') (A") (A') (A') (A") (A') (A") (A') (A') (A')
                 (A') (A') (A') (A') (A') (A')
 The electronic state of the initial guess is 1-A'.
 Leave Link  401 at Fri Aug 26 19:26:06 2022, MaxMem=   536870912 cpu:               0.8 elap:               0.2
 (Enter /usr/site/hpc/x86_64/glibc-2.17/broadwell/gaussian/g16_a.03/pgi-16.5/g16/l502.exe)
 Keep R1 ints in memory in symmetry-blocked form, NReq=34823457.
 FoFCou: FMM=F IPFlag=           0 FMFlag=           0 FMFlg1=           0
         NFxFlg=           0 DoJE=F BraDBF=F KetDBF=F FulRan=T
         wScrn=  0.000000 ICntrl=       600 IOpCl=  0 I1Cent=           0 NGrid=           0
         NMat0=    1 NMatS0=   6786 NMatT0=    0 NMatD0=    1 NMtDS0=    0 NMtDT0=    0
 Petite list used in FoFCou.
 Closed shell SCF:
 Using DIIS extrapolation, IDIIS=  1040.
 NGot=   536870912 LenX=   525040673 LenY=   525023332
 Requested convergence on RMS density matrix=1.00D-08 within 128 cycles.
 Requested convergence on MAX density matrix=1.00D-06.
 Requested convergence on             energy=1.00D-06.
 No special actions if energy rises.

 Cycle   1  Pass 1  IDiag  1:
 E= -151.935430320053    
 DIIS: error= 5.15D-02 at cycle   1 NSaved=   1.
 NSaved= 1 IEnMin= 1 EnMin= -151.935430320053     IErMin= 1 ErrMin= 5.15D-02
 ErrMax= 5.15D-02  0.00D+00 EMaxC= 1.00D-01 BMatC= 3.87D-01 BMatP= 3.87D-01
 IDIUse=3 WtCom= 4.85D-01 WtEn= 5.15D-01
 Coeff-Com:  0.100D+01
 Coeff-En:   0.100D+01
 Coeff:      0.100D+01
 Gap=     0.457 Goal=   None    Shift=    0.000
 GapD=    0.457 DampG=2.000 DampE=0.500 DampFc=1.0000 IDamp=-1.
 RMSDP=2.83D-03 MaxDP=8.11D-02              OVMax= 1.28D-01

 Cycle   2  Pass 1  IDiag  1:
 E= -152.046866731141     Delta-E=       -0.111436411088 Rises=F Damp=F
 DIIS: error= 3.04D-02 at cycle   2 NSaved=   2.
 NSaved= 2 IEnMin= 2 EnMin= -152.046866731141     IErMin= 2 ErrMin= 3.04D-02
 ErrMax= 3.04D-02  0.00D+00 EMaxC= 1.00D-01 BMatC= 9.68D-02 BMatP= 3.87D-01
 IDIUse=3 WtCom= 6.96D-01 WtEn= 3.04D-01
 Coeff-Com:  0.302D+00 0.698D+00
 Coeff-En:   0.113D+00 0.887D+00
 Coeff:      0.245D+00 0.755D+00
 Gap=     0.588 Goal=   None    Shift=    0.000
 RMSDP=1.45D-03 MaxDP=4.48D-02 DE=-1.11D-01 OVMax= 5.89D-02

 Cycle   3  Pass 1  IDiag  1:
 E= -152.101945421526     Delta-E=       -0.055078690385 Rises=F Damp=F
 DIIS: error= 6.95D-03 at cycle   3 NSaved=   3.
 NSaved= 3 IEnMin= 3 EnMin= -152.101945421526     IErMin= 3 ErrMin= 6.95D-03
 ErrMax= 6.95D-03  0.00D+00 EMaxC= 1.00D-01 BMatC= 5.28D-03 BMatP= 9.68D-02
 IDIUse=3 WtCom= 9.30D-01 WtEn= 6.95D-02
 Coeff-Com: -0.303D-01 0.156D+00 0.874D+00
 Coeff-En:   0.000D+00 0.000D+00 0.100D+01
 Coeff:     -0.282D-01 0.145D+00 0.883D+00
 Gap=     0.560 Goal=   None    Shift=    0.000
 RMSDP=2.50D-04 MaxDP=6.72D-03 DE=-5.51D-02 OVMax= 1.29D-02

 Cycle   4  Pass 1  IDiag  1:
 E= -152.105210962309     Delta-E=       -0.003265540783 Rises=F Damp=F
 DIIS: error= 5.47D-04 at cycle   4 NSaved=   4.
 NSaved= 4 IEnMin= 4 EnMin= -152.105210962309     IErMin= 4 ErrMin= 5.47D-04
 ErrMax= 5.47D-04  0.00D+00 EMaxC= 1.00D-01 BMatC= 2.85D-05 BMatP= 5.28D-03
 IDIUse=3 WtCom= 9.95D-01 WtEn= 5.47D-03
 Coeff-Com:  0.698D-02-0.600D-01-0.256D+00 0.131D+01
 Coeff-En:   0.000D+00 0.000D+00 0.000D+00 0.100D+01
 Coeff:      0.694D-02-0.597D-01-0.255D+00 0.131D+01
 Gap=     0.563 Goal=   None    Shift=    0.000
 RMSDP=6.38D-05 MaxDP=1.01D-03 DE=-3.27D-03 OVMax= 2.54D-03

 Cycle   5  Pass 1  IDiag  1:
 E= -152.105259577536     Delta-E=       -0.000048615227 Rises=F Damp=F
 DIIS: error= 1.81D-04 at cycle   5 NSaved=   5.
 NSaved= 5 IEnMin= 5 EnMin= -152.105259577536     IErMin= 5 ErrMin= 1.81D-04
 ErrMax= 1.81D-04  0.00D+00 EMaxC= 1.00D-01 BMatC= 1.76D-06 BMatP= 2.85D-05
 IDIUse=3 WtCom= 9.98D-01 WtEn= 1.81D-03
 Coeff-Com:  0.183D-02-0.111D-01-0.494D-01 0.444D-01 0.101D+01
 Coeff-En:   0.000D+00 0.000D+00 0.000D+00 0.000D+00 0.100D+01
 Coeff:      0.182D-02-0.111D-01-0.493D-01 0.443D-01 0.101D+01
 Gap=     0.564 Goal=   None    Shift=    0.000
 RMSDP=1.41D-05 MaxDP=2.44D-04 DE=-4.86D-05 OVMax= 7.13D-04

 Cycle   6  Pass 1  IDiag  1:
 E= -152.105262223091     Delta-E=       -0.000002645555 Rises=F Damp=F
 DIIS: error= 7.11D-05 at cycle   6 NSaved=   6.
 NSaved= 6 IEnMin= 6 EnMin= -152.105262223091     IErMin= 6 ErrMin= 7.11D-05
 ErrMax= 7.11D-05  0.00D+00 EMaxC= 1.00D-01 BMatC= 2.65D-07 BMatP= 1.76D-06
 IDIUse=1 WtCom= 1.00D+00 WtEn= 0.00D+00
 Coeff-Com: -0.170D-03 0.267D-02 0.121D-01-0.122D+00 0.280D+00 0.827D+00
 Coeff:     -0.170D-03 0.267D-02 0.121D-01-0.122D+00 0.280D+00 0.827D+00
 Gap=     0.564 Goal=   None    Shift=    0.000
 RMSDP=4.30D-06 MaxDP=1.20D-04 DE=-2.65D-06 OVMax= 1.99D-04

 Cycle   7  Pass 1  IDiag  1:
 E= -152.105262526205     Delta-E=       -0.000000303114 Rises=F Damp=F
 DIIS: error= 1.15D-05 at cycle   7 NSaved=   7.
 NSaved= 7 IEnMin= 7 EnMin= -152.105262526205     IErMin= 7 ErrMin= 1.15D-05
 ErrMax= 1.15D-05  0.00D+00 EMaxC= 1.00D-01 BMatC= 9.39D-09 BMatP= 2.65D-07
 IDIUse=1 WtCom= 1.00D+00 WtEn= 0.00D+00
 Coeff-Com: -0.103D-03 0.498D-03 0.197D-02 0.720D-02-0.104D+00-0.660D-01
 Coeff-Com:  0.116D+01
 Coeff:     -0.103D-03 0.498D-03 0.197D-02 0.720D-02-0.104D+00-0.660D-01
 Coeff:      0.116D+01
 Gap=     0.564 Goal=   None    Shift=    0.000
 RMSDP=1.53D-06 MaxDP=3.05D-05 DE=-3.03D-07 OVMax= 9.14D-05

 Cycle   8  Pass 1  IDiag  1:
 E= -152.105262548396     Delta-E=       -0.000000022191 Rises=F Damp=F
 DIIS: error= 2.26D-06 at cycle   8 NSaved=   8.
 NSaved= 8 IEnMin= 8 EnMin= -152.105262548396     IErMin= 8 ErrMin= 2.26D-06
 ErrMax= 2.26D-06  0.00D+00 EMaxC= 1.00D-01 BMatC= 5.19D-10 BMatP= 9.39D-09
 IDIUse=1 WtCom= 1.00D+00 WtEn= 0.00D+00
 Coeff-Com:  0.238D-04-0.252D-03-0.113D-02 0.781D-02-0.621D-02-0.418D-01
 Coeff-Com: -0.117D+00 0.116D+01
 Coeff:      0.238D-04-0.252D-03-0.113D-02 0.781D-02-0.621D-02-0.418D-01
 Coeff:     -0.117D+00 0.116D+01
 Gap=     0.564 Goal=   None    Shift=    0.000
 RMSDP=2.87D-07 MaxDP=6.03D-06 DE=-2.22D-08 OVMax= 1.92D-05

 Cycle   9  Pass 1  IDiag  1:
 E= -152.105262549529     Delta-E=       -0.000000001133 Rises=F Damp=F
 DIIS: error= 6.76D-07 at cycle   9 NSaved=   9.
 NSaved= 9 IEnMin= 9 EnMin= -152.105262549529     IErMin= 9 ErrMin= 6.76D-07
 ErrMax= 6.76D-07  0.00D+00 EMaxC= 1.00D-01 BMatC= 3.15D-11 BMatP= 5.19D-10
 IDIUse=1 WtCom= 1.00D+00 WtEn= 0.00D+00
 Coeff-Com:  0.295D-05 0.912D-05 0.846D-04-0.206D-02 0.830D-02 0.124D-01
 Coeff-Com: -0.450D-01-0.253D+00 0.128D+01
 Coeff:      0.295D-05 0.912D-05 0.846D-04-0.206D-02 0.830D-02 0.124D-01
 Coeff:     -0.450D-01-0.253D+00 0.128D+01
 Gap=     0.564 Goal=   None    Shift=    0.000
 RMSDP=7.08D-08 MaxDP=1.35D-06 DE=-1.13D-09 OVMax= 4.96D-06

 Cycle  10  Pass 1  IDiag  1:
 E= -152.105262549603     Delta-E=       -0.000000000073 Rises=F Damp=F
 DIIS: error= 1.42D-07 at cycle  10 NSaved=  10.
 NSaved=10 IEnMin=10 EnMin= -152.105262549603     IErMin=10 ErrMin= 1.42D-07
 ErrMax= 1.42D-07  0.00D+00 EMaxC= 1.00D-01 BMatC= 8.99D-13 BMatP= 3.15D-11
 IDIUse=1 WtCom= 1.00D+00 WtEn= 0.00D+00
 Coeff-Com: -0.115D-05 0.766D-05 0.294D-04-0.342D-04-0.663D-03-0.244D-03
 Coeff-Com:  0.700D-02 0.507D-02-0.189D+00 0.118D+01
 Coeff:     -0.115D-05 0.766D-05 0.294D-04-0.342D-04-0.663D-03-0.244D-03
 Coeff:      0.700D-02 0.507D-02-0.189D+00 0.118D+01
 Gap=     0.564 Goal=   None    Shift=    0.000
 RMSDP=1.05D-08 MaxDP=1.84D-07 DE=-7.35D-11 OVMax= 7.85D-07

 Cycle  11  Pass 1  IDiag  1:
 E= -152.105262549605     Delta-E=       -0.000000000002 Rises=F Damp=F
 DIIS: error= 2.68D-08 at cycle  11 NSaved=  11.
 NSaved=11 IEnMin=11 EnMin= -152.105262549605     IErMin=11 ErrMin= 2.68D-08
 ErrMax= 2.68D-08  0.00D+00 EMaxC= 1.00D-01 BMatC= 5.45D-14 BMatP= 8.99D-13
 IDIUse=1 WtCom= 1.00D+00 WtEn= 0.00D+00
 Coeff-Com:  0.611D-07-0.180D-05-0.971D-05 0.106D-03-0.237D-03-0.527D-03
 Coeff-Com:  0.543D-03 0.133D-01-0.293D-01-0.260D+00 0.128D+01
 Coeff:      0.611D-07-0.180D-05-0.971D-05 0.106D-03-0.237D-03-0.527D-03
 Coeff:      0.543D-03 0.133D-01-0.293D-01-0.260D+00 0.128D+01
 Gap=     0.564 Goal=   None    Shift=    0.000
 RMSDP=2.94D-09 MaxDP=6.78D-08 DE=-2.13D-12 OVMax= 1.80D-07

 SCF Done:  E(RHF) =  -152.105262550     A.U. after   11 cycles
            NFock= 11  Conv=0.29D-08     -V/T= 2.0013
 KE= 1.519031499778D+02 PE=-4.393749163835D+02 EE= 9.644470092555D+01
 Leave Link  502 at Fri Aug 26 19:26:07 2022, MaxMem=   536870912 cpu:               4.5 elap:               1.2
 (Enter /usr/site/hpc/x86_64/glibc-2.17/broadwell/gaussian/g16_a.03/pgi-16.5/g16/l801.exe)
 Windowed orbitals will be sorted by symmetry type.
 ExpMin= 1.03D-01 ExpMax= 1.53D+04 ExpMxC= 5.22D+02 IAcc=3 IRadAn=         5 AccDes= 0.00D+00
 HarFok:  IExCor=  205 AccDes= 0.00D+00 IRadAn=         5 IDoV=-2 UseB2=F ITyADJ=14
 ICtDFT= 12500011 ScaDFX=  1.000000  1.000000  1.000000  1.000000
 Largest valence mixing into a core orbital is  1.11D-04
 Largest core mixing into a valence orbital is  1.78D-05
 Range of M.O.s used for correlation:     3   116
 NBasis=   116 NAE=    10 NBE=    10 NFC=     2 NFV=     0
 NROrb=    114 NOA=     8 NOB=     8 NVA=   106 NVB=   106
 Leave Link  801 at Fri Aug 26 19:26:07 2022, MaxMem=   536870912 cpu:               0.3 elap:               0.1
 (Enter /usr/site/hpc/x86_64/glibc-2.17/broadwell/gaussian/g16_a.03/pgi-16.5/g16/l804.exe)
 Closed-shell transformation, MDV=   536870912 ITran=4 ISComp=2.
 Unit  1 TFree=        834515 TCopy=        406125.
 Semi-Direct transformation.
 ModeAB=           2 MOrb=             8 LenV=     536360999
 LASXX=      2873146 LTotXX=     2873146 LenRXX=     2873146
 LTotAB=     2958132 MaxLAS=     7765680 LenRXY=     7765680
 NonZer=     7963584 LenScr=    12058624 LnRSAI=           0
 LnScr1=           0 LExtra=           0 Total=     22697450
 MaxDsk=          -1 SrtSym=           F ITran=            4
 DoSDTr:  NPSUse=  4
 JobTyp=0 Pass  1:  I=   1 to   8.
 (rs|ai) integrals will be sorted in core.
 Complete sort for first half transformation.
 First half transformation complete.
 Complete sort for second half transformation.
 Second half transformation complete.
 Spin components of T(2) and E(2):
     alpha-alpha T2 =       0.1589229482D-01 E2=     -0.6527890270D-01
     alpha-beta  T2 =       0.9152549448D-01 E2=     -0.4002431597D+00
     beta-beta   T2 =       0.1589229482D-01 E2=     -0.6527890270D-01
 ANorm=    0.1059863238D+01
 E2 =    -0.5308009651D+00 EUMP2 =    -0.15263606351470D+03
 Leave Link  804 at Fri Aug 26 19:26:08 2022, MaxMem=   536870912 cpu:               4.8 elap:               1.2
 (Enter /usr/site/hpc/x86_64/glibc-2.17/broadwell/gaussian/g16_a.03/pgi-16.5/g16/l913.exe)
 CIDS:  MDV=   536870912.
 Frozen-core window:  NFC=   2 NFV=   0.
 IFCWin=0 IBDFC=1 NFBD=     0     0 NFCmp=     0     0 NFFFC=     0     0
 Using DD3R+UMP44R for 1st iteration.
 Using DD4RQ for 2nd and later iterations.
 Keep R2 and R3 ints in memory in symmetry-blocked form, NReq=35357534.
 FoFCou: FMM=F IPFlag=           0 FMFlag=           0 FMFlg1=           0
         NFxFlg=           0 DoJE=F BraDBF=F KetDBF=F FulRan=T
         wScrn=  0.000000 ICntrl=       600 IOpCl=  0 I1Cent=           0 NGrid=           0
         NMat0=    1 NMatS0=   6786 NMatT0=    0 NMatD0=    1 NMtDS0=    0 NMtDT0=    0
 Petite list used in FoFCou.
 CIDS: In Core Option IDoMem=           1.
 CCSD(T)
 =======
 Iterations=  50 Convergence= 0.100D-06
 Produce multiple copies of IABC intergrals
 Iteration Nr.   1
 **********************
 DD1Dir will call FoFMem   1 times, MxPair=        72
 NAB=    36 NAA=     0 NBB=     0.
 MP4(R+Q)=  0.79610238D-02
 Maximum subspace dimension=  5
 A-vector RMS=  1.8685630D-03 Max=  6.2138859D-03 conv= 1.00D-05.
 RLE energy=       -0.5294290513
 E3=       -0.66459096D-02        EUMP3=      -0.15264270942D+03
 E4(DQ)=   -0.98071306D-03        UMP4(DQ)=   -0.15264369014D+03
 E4(SDQ)=  -0.41864640D-02        UMP4(SDQ)=  -0.15264689589D+03
 VARIATIONAL ENERGIES WITH THE FIRST-ORDER WAVEFUNCTION:
 DE(Corr)= -0.52942550     E(Corr)=     -152.63468805    
 NORM(A)=   0.10598132D+01
 Iteration Nr.   2
 **********************
 DD1Dir will call FoFMem   1 times, MxPair=        72
 NAB=    36 NAA=     0 NBB=     0.
 A-vector RMS=  2.0928100D-04 Max=  1.7663640D-03 conv= 1.00D-05.
 RLE energy=       -0.5403963653
 DE(Corr)= -0.53938552     E(CORR)=     -152.64464807     Delta=-9.96D-03
 NORM(A)=   0.10634757D+01
 Iteration Nr.   3
 **********************
 DD1Dir will call FoFMem   1 times, MxPair=        72
 NAB=    36 NAA=     0 NBB=     0.
 A-vector RMS=  1.7857340D-04 Max=  1.3802955D-03 conv= 1.00D-05.
 RLE energy=       -0.5408678349
 DE(Corr)= -0.54028712     E(CORR)=     -152.64554967     Delta=-9.02D-04
 NORM(A)=   0.10640749D+01
 Iteration Nr.   4
 **********************
 DD1Dir will call FoFMem   1 times, MxPair=        72
 NAB=    36 NAA=     0 NBB=     0.
 A-vector RMS=  3.5194050D-05 Max=  2.5283838D-04 conv= 1.00D-05.
 RLE energy=       -0.5409400174
 DE(Corr)= -0.54090823     E(CORR)=     -152.64617078     Delta=-6.21D-04
 NORM(A)=   0.10641863D+01
 Iteration Nr.   5
 **********************
 DD1Dir will call FoFMem   1 times, MxPair=        72
 NAB=    36 NAA=     0 NBB=     0.
 A-vector RMS=  2.4131179D-05 Max=  2.9394915D-04 conv= 1.00D-05.
 RLE energy=       -0.5409555184
 DE(Corr)= -0.54094806     E(CORR)=     -152.64621061     Delta=-3.98D-05
 NORM(A)=   0.10642019D+01
 Iteration Nr.   6
 **********************
 DD1Dir will call FoFMem   1 times, MxPair=        72
 NAB=    36 NAA=     0 NBB=     0.
 A-vector RMS=  5.8537017D-06 Max=  6.1502950D-05 conv= 1.00D-05.
 RLE energy=       -0.5409508228
 DE(Corr)= -0.54095210     E(CORR)=     -152.64621465     Delta=-4.04D-06
 NORM(A)=   0.10642020D+01
 Iteration Nr.   7
 **********************
 DD1Dir will call FoFMem   1 times, MxPair=        72
 NAB=    36 NAA=     0 NBB=     0.
 A-vector RMS=  3.3942807D-06 Max=  3.9072663D-05 conv= 1.00D-05.
 RLE energy=       -0.5409500990
 DE(Corr)= -0.54095239     E(CORR)=     -152.64621494     Delta=-2.87D-07
 NORM(A)=   0.10642026D+01
 Iteration Nr.   8
 **********************
 DD1Dir will call FoFMem   1 times, MxPair=        72
 NAB=    36 NAA=     0 NBB=     0.
 A-vector RMS=  1.4320851D-06 Max=  1.4647661D-05 conv= 1.00D-05.
 RLE energy=       -0.5409517469
 DE(Corr)= -0.54095205     E(CORR)=     -152.64621460     Delta= 3.34D-07
 NORM(A)=   0.10642034D+01
 Iteration Nr.   9
 **********************
 DD1Dir will call FoFMem   1 times, MxPair=        72
 NAB=    36 NAA=     0 NBB=     0.
 A-vector RMS=  3.2653388D-07 Max=  4.1320224D-06 conv= 1.00D-05.
 RLE energy=       -0.5409519368
 DE(Corr)= -0.54095200     E(CORR)=     -152.64621455     Delta= 4.93D-08
 NORM(A)=   0.10642038D+01
 CI/CC converged in    9 iterations to DelEn= 4.93D-08 Conv= 1.00D-07 ErrA1= 3.27D-07 Conv= 1.00D-05
 Wavefunction amplitudes converged. E(Corr)=     -152.64621455    
 Largest amplitude= 3.60D-02
 IPart=  3 IA=    7   11.05% done.
 IPart=  4 IA=   13   21.46% done.
 IPart=  2 IA=   19   31.21% done.
 IPart=  1 IA=   25   40.32% done.
 IPart=  1 IA=   32   50.13% done.
 IPart=  3 IA=   40   60.27% done.
 IPart=  3 IA=   49   70.30% done.
 IPart=  1 IA=   60   80.58% done.
 IPart=  3 IA=   74   90.51% done.
 Time for triples=       53.00 seconds.
 T4(CCSD)= -0.16788470D-01
 T5(CCSD)=  0.42275907D-03
 CCSD(T)= -0.15266258026D+03
 Discarding MO integrals.
 Leave Link  913 at Fri Aug 26 19:26:27 2022, MaxMem=   536870912 cpu:              76.1 elap:              19.1
 (Enter /usr/site/hpc/x86_64/glibc-2.17/broadwell/gaussian/g16_a.03/pgi-16.5/g16/l601.exe)
 Copying SCF densities to generalized density rwf, IOpCl= 0 IROHF=0.

 **********************************************************************

            Population analysis using the SCF density.

 **********************************************************************

 Orbital symmetries:
       Occupied  (A') (A') (A') (A') (A') (A') (A') (A") (A') (A")
       Virtual   (A') (A') (A') (A') (A') (A') (A') (A') (A') (A")
                 (A') (A') (A") (A") (A') (A") (A') (A") (A') (A')
                 (A") (A') (A') (A') (A') (A') (A') (A") (A') (A")
                 (A") (A') (A') (A') (A') (A") (A') (A') (A') (A')
                 (A') (A') (A") (A") (A") (A') (A') (A') (A") (A')
                 (A") (A') (A") (A") (A') (A') (A") (A") (A') (A")
                 (A') (A') (A') (A') (A") (A") (A') (A') (A') (A")
                 (A') (A") (A') (A') (A') (A') (A') (A') (A') (A')
                 (A") (A") (A') (A') (A") (A") (A") (A") (A') (A")
                 (A') (A") (A') (A") (A') (A") (A') (A') (A') (A')
                 (A') (A') (A') (A') (A') (A')
 The electronic state is 1-A'.
 Alpha  occ. eigenvalues --  -20.59804 -20.49626  -1.37975  -1.27858  -0.75115
 Alpha  occ. eigenvalues --   -0.69669  -0.59271  -0.54744  -0.50188  -0.44869
 Alpha virt. eigenvalues --    0.11528   0.18060   0.19381   0.33616   0.47594
 Alpha virt. eigenvalues --    0.53945   0.58730   0.66235   0.68597   0.72311
 Alpha virt. eigenvalues --    0.73315   0.77872   0.80711   0.83530   0.84022
 Alpha virt. eigenvalues --    0.85986   0.93621   0.97190   1.05547   1.11633
 Alpha virt. eigenvalues --    1.16790   1.24339   1.29416   1.41750   1.50978
 Alpha virt. eigenvalues --    1.53469   1.60537   1.90278   1.92871   2.01400
 Alpha virt. eigenvalues --    2.07653   2.11275   2.17953   2.20638   2.26089
 Alpha virt. eigenvalues --    2.26975   2.33179   2.58672   2.60150   2.72381
 Alpha virt. eigenvalues --    2.97922   3.13759   3.34404   3.44801   3.49093
 Alpha virt. eigenvalues --    3.49929   3.52937   3.55699   3.58169   3.64488
 Alpha virt. eigenvalues --    3.71701   3.78155   3.85333   3.91277   3.91307
 Alpha virt. eigenvalues --    3.92363   3.94796   4.05414   4.08871   4.11712
 Alpha virt. eigenvalues --    4.12914   4.16084   4.18292   4.24289   4.27686
 Alpha virt. eigenvalues --    4.39905   4.41776   4.49232   4.65582   4.65891
 Alpha virt. eigenvalues --    4.70747   4.76795   4.82317   4.95210   5.01447
 Alpha virt. eigenvalues --    5.31501   5.39534   5.54778   5.59707   5.71902
 Alpha virt. eigenvalues --    5.96855   6.03241   6.51041   6.56945   6.79427
 Alpha virt. eigenvalues --    6.84570   6.90534   6.93210   6.98855   7.04785
 Alpha virt. eigenvalues --    7.06882   7.13315   7.13669   7.17448   7.21914
 Alpha virt. eigenvalues --    7.30455   7.33435   7.46162   7.52186   7.65493
 Alpha virt. eigenvalues --    7.70750   7.88644   8.20803   8.46023  12.77415
 Alpha virt. eigenvalues --   12.98930
          Condensed to atoms (all electrons):
               1          2          3          4          5          6
     1  O    7.931167   0.369262   0.346194  -0.044805   0.002735   0.002276
     2  H    0.369262   0.333586  -0.041434   0.039033  -0.004230  -0.003241
     3  H    0.346194  -0.041434   0.455412   0.002992   0.000017  -0.000004
     4  O   -0.044805   0.039033   0.002992   7.830490   0.310650   0.307397
     5  H    0.002735  -0.004230   0.000017   0.310650   0.443995  -0.015668
     6  H    0.002276  -0.003241  -0.000004   0.307397  -0.015668   0.463000
 Mulliken charges:
               1
     1  O   -0.606829
     2  H    0.307024
     3  H    0.236822
     4  O   -0.445757
     5  H    0.262501
     6  H    0.246239
 Sum of Mulliken charges =  -0.00000
 Mulliken charges with hydrogens summed into heavy atoms:
               1
     1  O   -0.062983
     4  O    0.062983
 Electronic spatial extent (au):  <R**2>=            155.4233
 Charge=             -0.0000 electrons
 Dipole moment (field-independent basis, Debye):
    X=             -0.9852    Y=             -4.0677    Z=             -0.0000  Tot=              4.1853
 Quadrupole moment (field-independent basis, Debye-Ang):
   XX=             -9.1994   YY=             -9.2523   ZZ=            -14.6883
   XY=             -3.2562   XZ=             -0.0000   YZ=              0.0000
 Traceless Quadrupole moment (field-independent basis, Debye-Ang):
   XX=              1.8473   YY=              1.7943   ZZ=             -3.6416
   XY=             -3.2562   XZ=             -0.0000   YZ=              0.0000
 Octapole moment (field-independent basis, Debye-Ang**2):
  XXX=             -0.1677  YYY=            -17.6402  ZZZ=             -0.0000  XYY=             -6.2626
  XXY=             -2.8418  XXZ=             -0.0000  XZZ=             -0.1236  YZZ=             -0.8550
  YYZ=             -0.0000  XYZ=             -0.0000
 Hexadecapole moment (field-independent basis, Debye-Ang**3):
 XXXX=            -10.8599 YYYY=           -116.3493 ZZZZ=            -11.3600 XXXY=             -2.2747
 XXXZ=             -0.0000 YYYX=             -3.1885 YYYZ=             -0.0000 ZZZX=              0.0000
 ZZZY=             -0.0000 XXYY=            -15.2573 XXZZ=             -4.4515 YYZZ=            -28.5352
 XXYZ=             -0.0000 YYXZ=             -0.0000 ZZXY=              0.8509
 N-N= 3.892180293048D+01 E-N=-4.393749157774D+02  KE= 1.519031499778D+02
 Symmetry A'   KE= 1.429132363305D+02
 Symmetry A"   KE= 8.989913647309D+00
 Leave Link  601 at Fri Aug 26 19:26:27 2022, MaxMem=   536870912 cpu:               0.2 elap:               0.1
 (Enter /usr/site/hpc/x86_64/glibc-2.17/broadwell/gaussian/g16_a.03/pgi-16.5/g16/l9999.exe)
 1\1\GINC-N041\SP\RCCSD(T)-FC\CC-pVTZ\H4O2\C7441284\26-Aug-2022\0\\#p C
 CSD(T)/cc-pVTZ\\H2O_H2O_619\\0,1\O,0,0.,-0.009833,0.\H,0,-0.799571,-0.
 580965,0.\H,0,0.799571,-0.580965,0.\O,0,-2.05959,-1.46767,0.\H,0,-2.85
 7426,-0.894116,0.\H,0,-2.343398,-2.408393,0.\\Version=ES64L-G16RevA.03
 \State=1-A'\HF=-152.1052625\MP2=-152.6360635\MP3=-152.6427094\MP4D=-15
 2.6516512\MP4DQ=-152.6436901\MP4SDQ=-152.6468959\CCSD=-152.6462146\CCS
 D(T)=-152.6625803\RMSD=2.943e-09\PG=CS [SG(H4O2)]\\@


 THE ONLY EXISTING THINGS ARE ATOMS AND EMPTY SPACE;
 ALL ELSE IS MERE OPINION. -- DEMOCRITUS OF ABDERA D. 370 B.C.
 EXPERIMENTS ARE THE ONLY MEANS OF KNOWLEDGE AT OUR DISPOSAL
 THE REST IS POETRY, IMAGINATION. -- MAX PLANCK
 Job cpu time:       0 days  0 hours  1 minutes 29.0 seconds.
 Elapsed time:       0 days  0 hours  0 minutes 22.4 seconds.
 File lengths (MBytes):  RWF=    572 Int=      0 D2E=      0 Chk=      8 Scr=      8
 Normal termination of Gaussian 16 at Fri Aug 26 19:26:27 2022.
