 Entering Gaussian System, Link 0=g16
 Input=H2O_H2O_200.com
 Output=H2O_H2O_200.log
 Initial command:
 /usr/site/hpc/x86_64/glibc-2.17/broadwell/gaussian/g16_a.03/pgi-16.5/g16/l1.exe "/gpfs/gpfs1/scratch/c7441284/ForceFieldModel/FittingData2/Gau-4108469.inp" -scrdir="/gpfs/gpfs1/scratch/c7441284/ForceFieldModel/FittingData2/"
 Entering Link 1 = /usr/site/hpc/x86_64/glibc-2.17/broadwell/gaussian/g16_a.03/pgi-16.5/g16/l1.exe PID=   4108474.
  
 Copyright (c) 1988,1990,1992,1993,1995,1998,2003,2009,2016,
            Gaussian, Inc.  All Rights Reserved.
  
 This is part of the Gaussian(R) 16 program.  It is based on
 the Gaussian(R) 09 system (copyright 2009, Gaussian, Inc.),
 the Gaussian(R) 03 system (copyright 2003, Gaussian, Inc.),
 the Gaussian(R) 98 system (copyright 1998, Gaussian, Inc.),
 the Gaussian(R) 94 system (copyright 1995, Gaussian, Inc.),
 the Gaussian 92(TM) system (copyright 1992, Gaussian, Inc.),
 the Gaussian 90(TM) system (copyright 1990, Gaussian, Inc.),
 the Gaussian 88(TM) system (copyright 1988, Gaussian, Inc.),
 the Gaussian 86(TM) system (copyright 1986, Carnegie Mellon
 University), and the Gaussian 82(TM) system (copyright 1983,
 Carnegie Mellon University). Gaussian is a federally registered
 trademark of Gaussian, Inc.
  
 This software contains proprietary and confidential information,
 including trade secrets, belonging to Gaussian, Inc.
  
 This software is provided under written license and may be
 used, copied, transmitted, or stored only in accord with that
 written license.
  
 The following legend is applicable only to US Government
 contracts under FAR:
  
                    RESTRICTED RIGHTS LEGEND
  
 Use, reproduction and disclosure by the US Government is
 subject to restrictions as set forth in subparagraphs (a)
 and (c) of the Commercial Computer Software - Restricted
 Rights clause in FAR 52.227-19.
  
 Gaussian, Inc.
 340 Quinnipiac St., Bldg. 40, Wallingford CT 06492
  
  
 ---------------------------------------------------------------
 Warning -- This program may not be used in any manner that
 competes with the business of Gaussian, Inc. or will provide
 assistance to any competitor of Gaussian, Inc.  The licensee
 of this program is prohibited from giving any competitor of
 Gaussian, Inc. access to this program.  By using this program,
 the user acknowledges that Gaussian, Inc. is engaged in the
 business of creating and licensing software in the field of
 computational chemistry and represents and warrants to the
 licensee that it is not a competitor of Gaussian, Inc. and that
 it will not use this program in any manner prohibited above.
 ---------------------------------------------------------------
  

 Cite this work as:
 Gaussian 16, Revision A.03,
 M. J. Frisch, G. W. Trucks, H. B. Schlegel, G. E. Scuseria, 
 M. A. Robb, J. R. Cheeseman, G. Scalmani, V. Barone, 
 G. A. Petersson, H. Nakatsuji, X. Li, M. Caricato, A. V. Marenich, 
 J. Bloino, B. G. Janesko, R. Gomperts, B. Mennucci, H. P. Hratchian, 
 J. V. Ortiz, A. F. Izmaylov, J. L. Sonnenberg, D. Williams-Young, 
 F. Ding, F. Lipparini, F. Egidi, J. Goings, B. Peng, A. Petrone, 
 T. Henderson, D. Ranasinghe, V. G. Zakrzewski, J. Gao, N. Rega, 
 G. Zheng, W. Liang, M. Hada, M. Ehara, K. Toyota, R. Fukuda, 
 J. Hasegawa, M. Ishida, T. Nakajima, Y. Honda, O. Kitao, H. Nakai, 
 T. Vreven, K. Throssell, J. A. Montgomery, Jr., J. E. Peralta, 
 F. Ogliaro, M. J. Bearpark, J. J. Heyd, E. N. Brothers, K. N. Kudin, 
 V. N. Staroverov, T. A. Keith, R. Kobayashi, J. Normand, 
 K. Raghavachari, A. P. Rendell, J. C. Burant, S. S. Iyengar, 
 J. Tomasi, M. Cossi, J. M. Millam, M. Klene, C. Adamo, R. Cammi, 
 J. W. Ochterski, R. L. Martin, K. Morokuma, O. Farkas, 
 J. B. Foresman, and D. J. Fox, Gaussian, Inc., Wallingford CT, 2016.
 
 ******************************************
 Gaussian 16:  ES64L-G16RevA.03 25-Dec-2016
                26-Aug-2022 
 ******************************************
 %NProcShared=4
 Will use up to    4 processors via shared memory.
 %Mem=4GB
 %Chk=H2O_H2O_200.chk
 ------------------
 #p CCSD(T)/cc-pVTZ
 ------------------
 1/38=1,172=1/1;
 2/12=2,17=6,18=5,40=1/2;
 3/5=16,6=1,11=9,25=1,30=1/1,2,3;
 4//1;
 5/5=2,38=5/2;
 8/6=4,9=120000,10=1/1,4;
 9/5=7,14=2/13;
 6/7=2,8=2,9=2,10=2/1;
 99/5=1,9=1/99;
 Leave Link    1 at Fri Aug 26 16:32:57 2022, MaxMem=   536870912 cpu:               0.4 elap:               0.1
 (Enter /usr/site/hpc/x86_64/glibc-2.17/broadwell/gaussian/g16_a.03/pgi-16.5/g16/l101.exe)
 -----------
 H2O_H2O_200
 -----------
 Symbolic Z-matrix:
 Charge =  0 Multiplicity = 1
 O                     0.       -0.00983   0. 
 H                    -0.79957  -0.58097   0. 
 H                     0.79957  -0.58097   0. 
 O                    -1.79062  -1.28887   0. 
 H                    -2.59019  -1.86      0. 
 H                    -0.99105  -1.86      0. 
 
 ITRead=  0  0  0  0  0  0
 MicOpt= -1 -1 -1 -1 -1 -1
 NAtoms=      6 NQM=        6 NQMF=       0 NMMI=      0 NMMIF=      0
                NMic=       0 NMicF=      0.
                    Isotopes and Nuclear Properties:
 (Nuclear quadrupole moments (NQMom) in fm**2, nuclear magnetic moments (NMagM)
  in nuclear magnetons)

  Atom         1           2           3           4           5           6
 IAtWgt=          16           1           1          16           1           1
 AtmWgt=  15.9949146   1.0078250   1.0078250  15.9949146   1.0078250   1.0078250
 NucSpn=           0           1           1           0           1           1
 AtZEff=  -0.0000000  -0.0000000  -0.0000000  -0.0000000  -0.0000000  -0.0000000
 NQMom=    0.0000000   0.0000000   0.0000000   0.0000000   0.0000000   0.0000000
 NMagM=    0.0000000   2.7928460   2.7928460   0.0000000   2.7928460   2.7928460
 AtZNuc=   8.0000000   1.0000000   1.0000000   8.0000000   1.0000000   1.0000000
 Leave Link  101 at Fri Aug 26 16:32:58 2022, MaxMem=   536870912 cpu:               0.7 elap:               0.2
 (Enter /usr/site/hpc/x86_64/glibc-2.17/broadwell/gaussian/g16_a.03/pgi-16.5/g16/l202.exe)
                          Input orientation:                          
 ---------------------------------------------------------------------
 Center     Atomic      Atomic             Coordinates (Angstroms)
 Number     Number       Type             X           Y           Z
 ---------------------------------------------------------------------
      1          8           0        0.000000   -0.009833    0.000000
      2          1           0       -0.799571   -0.580965    0.000000
      3          1           0        0.799571   -0.580965    0.000000
      4          8           0       -1.790616   -1.288866    0.000000
      5          1           0       -2.590188   -1.859998    0.000000
      6          1           0       -0.991045   -1.859998    0.000000
 ---------------------------------------------------------------------
                    Distance matrix (angstroms):
                    1          2          3          4          5
     1  O    0.000000
     2  H    0.982601   0.000000
     3  H    0.982601   1.599142   0.000000
     4  O    2.200507   1.217906   2.685180   0.000000
     5  H    3.183109   2.200508   3.623036   0.982602   0.000000
     6  H    2.098876   1.293286   2.200507   0.982601   1.599143
                    6
     6  H    0.000000
 Stoichiometry    H4O2
 Framework group  CS[SG(H4O2)]
 Deg. of freedom     9
 Full point group                 CS      NOp   2
 Largest Abelian subgroup         CS      NOp   2
 Largest concise Abelian subgroup C1      NOp   1
                         Standard orientation:                         
 ---------------------------------------------------------------------
 Center     Atomic      Atomic             Coordinates (Angstroms)
 Number     Number       Type             X           Y           Z
 ---------------------------------------------------------------------
      1          8           0        0.092949   -1.166647    0.000000
      2          1           0        0.092949   -0.184046    0.000000
      3          1           0       -0.836544   -1.485314    0.000000
      4          8           0        0.092949    1.033860    0.000000
      5          1           0        0.092950    2.016462    0.000000
      6          1           0       -0.836544    0.715193    0.000000
 ---------------------------------------------------------------------
 Rotational constants (GHZ):         309.3073386          11.0545498          10.6730966
 Leave Link  202 at Fri Aug 26 16:32:58 2022, MaxMem=   536870912 cpu:               0.0 elap:               0.0
 (Enter /usr/site/hpc/x86_64/glibc-2.17/broadwell/gaussian/g16_a.03/pgi-16.5/g16/l301.exe)
 Standard basis: CC-pVTZ (5D, 7F)
 Ernie: Thresh=  0.10000D-02 Tol=  0.10000D-05 Strict=F.
 Ernie:  6 primitive shells out of 84 were deleted.
 There are    92 symmetry adapted cartesian basis functions of A'  symmetry.
 There are    38 symmetry adapted cartesian basis functions of A"  symmetry.
 There are    80 symmetry adapted basis functions of A'  symmetry.
 There are    36 symmetry adapted basis functions of A"  symmetry.
   116 basis functions,   172 primitive gaussians,   130 cartesian basis functions
    10 alpha electrons       10 beta electrons
       nuclear repulsion energy        42.7217459871 Hartrees.
 IExCor=    0 DFT=F Ex=HF Corr=None ExCW=0 ScaHFX=  1.000000
 ScaDFX=  1.000000  1.000000  1.000000  1.000000 ScalE2=  1.000000  1.000000
 IRadAn=      5 IRanWt=     -1 IRanGd=            0 ICorTp=0 IEmpDi=  4
 NAtoms=    6 NActive=    6 NUniq=    6 SFac= 1.00D+00 NAtFMM=   60 NAOKFM=F Big=F
 Integral buffers will be    131072 words long.
 Raffenetti 1 integral format.
 Two-electron integral symmetry is turned on.
 Leave Link  301 at Fri Aug 26 16:32:58 2022, MaxMem=   536870912 cpu:               0.2 elap:               0.0
 (Enter /usr/site/hpc/x86_64/glibc-2.17/broadwell/gaussian/g16_a.03/pgi-16.5/g16/l302.exe)
 NPDir=0 NMtPBC=     1 NCelOv=     1 NCel=       1 NClECP=     1 NCelD=      1
         NCelK=      1 NCelE2=     1 NClLst=     1 CellRange=     0.0.
 One-electron integrals computed using PRISM.
 One-electron integral symmetry used in STVInt
 NBasis=   116 RedAO= T EigKep=  1.77D-03  NBF=    80    36
 NBsUse=   116 1.00D-06 EigRej= -1.00D+00 NBFU=    80    36
 Leave Link  302 at Fri Aug 26 16:32:58 2022, MaxMem=   536870912 cpu:               0.5 elap:               0.1
 (Enter /usr/site/hpc/x86_64/glibc-2.17/broadwell/gaussian/g16_a.03/pgi-16.5/g16/l303.exe)
 DipDrv:  MaxL=1.
 Leave Link  303 at Fri Aug 26 16:32:58 2022, MaxMem=   536870912 cpu:               0.1 elap:               0.0
 (Enter /usr/site/hpc/x86_64/glibc-2.17/broadwell/gaussian/g16_a.03/pgi-16.5/g16/l401.exe)
 ExpMin= 1.03D-01 ExpMax= 1.53D+04 ExpMxC= 5.22D+02 IAcc=3 IRadAn=         5 AccDes= 0.00D+00
 Harris functional with IExCor=  205 and IRadAn=       5 diagonalized for initial guess.
 HarFok:  IExCor=  205 AccDes= 0.00D+00 IRadAn=         5 IDoV= 1 UseB2=F ITyADJ=14
 ICtDFT=  3500011 ScaDFX=  1.000000  1.000000  1.000000  1.000000
 FoFCou: FMM=F IPFlag=           0 FMFlag=      100000 FMFlg1=           0
         NFxFlg=           0 DoJE=T BraDBF=F KetDBF=T FulRan=T
         wScrn=  0.000000 ICntrl=       500 IOpCl=  0 I1Cent=   200000004 NGrid=           0
         NMat0=    1 NMatS0=      1 NMatT0=    0 NMatD0=    1 NMtDS0=    0 NMtDT0=    0
 Petite list used in FoFCou.
 Harris En= -152.274373204387    
 JPrj=0 DoOrth=F DoCkMO=F.
 Initial guess orbital symmetries:
       Occupied  (A') (A') (A') (A') (A') (A') (A') (A') (A") (A")
       Virtual   (A') (A') (A') (A') (A') (A') (A') (A") (A') (A')
                 (A') (A") (A') (A") (A') (A") (A') (A") (A') (A')
                 (A") (A') (A') (A') (A') (A') (A') (A") (A") (A")
                 (A') (A') (A') (A') (A') (A') (A") (A') (A') (A')
                 (A') (A") (A') (A') (A") (A") (A') (A") (A') (A")
                 (A') (A") (A') (A") (A') (A') (A") (A') (A") (A')
                 (A") (A') (A') (A") (A') (A") (A') (A") (A') (A')
                 (A') (A") (A') (A') (A') (A') (A') (A') (A') (A")
                 (A") (A') (A') (A') (A") (A") (A") (A") (A') (A")
                 (A") (A') (A') (A") (A') (A') (A') (A') (A') (A")
                 (A') (A') (A') (A') (A') (A')
 The electronic state of the initial guess is 1-A'.
 Leave Link  401 at Fri Aug 26 16:32:58 2022, MaxMem=   536870912 cpu:               0.8 elap:               0.2
 (Enter /usr/site/hpc/x86_64/glibc-2.17/broadwell/gaussian/g16_a.03/pgi-16.5/g16/l502.exe)
 Keep R1 ints in memory in symmetry-blocked form, NReq=34823457.
 FoFCou: FMM=F IPFlag=           0 FMFlag=           0 FMFlg1=           0
         NFxFlg=           0 DoJE=F BraDBF=F KetDBF=F FulRan=T
         wScrn=  0.000000 ICntrl=       600 IOpCl=  0 I1Cent=           0 NGrid=           0
         NMat0=    1 NMatS0=   6786 NMatT0=    0 NMatD0=    1 NMtDS0=    0 NMtDT0=    0
 Petite list used in FoFCou.
 Closed shell SCF:
 Using DIIS extrapolation, IDIIS=  1040.
 NGot=   536870912 LenX=   525040673 LenY=   525023332
 Requested convergence on RMS density matrix=1.00D-08 within 128 cycles.
 Requested convergence on MAX density matrix=1.00D-06.
 Requested convergence on             energy=1.00D-06.
 No special actions if energy rises.

 Cycle   1  Pass 1  IDiag  1:
 E= -151.868220870834    
 DIIS: error= 6.71D-02 at cycle   1 NSaved=   1.
 NSaved= 1 IEnMin= 1 EnMin= -151.868220870834     IErMin= 1 ErrMin= 6.71D-02
 ErrMax= 6.71D-02  0.00D+00 EMaxC= 1.00D-01 BMatC= 4.03D-01 BMatP= 4.03D-01
 IDIUse=3 WtCom= 3.29D-01 WtEn= 6.71D-01
 Coeff-Com:  0.100D+01
 Coeff-En:   0.100D+01
 Coeff:      0.100D+01
 Gap=     0.434 Goal=   None    Shift=    0.000
 GapD=    0.434 DampG=2.000 DampE=0.500 DampFc=1.0000 IDamp=-1.
 RMSDP=3.36D-03 MaxDP=9.67D-02              OVMax= 1.44D-01

 Cycle   2  Pass 1  IDiag  1:
 E= -151.985591800803     Delta-E=       -0.117370929969 Rises=F Damp=F
 DIIS: error= 3.96D-02 at cycle   2 NSaved=   2.
 NSaved= 2 IEnMin= 2 EnMin= -151.985591800803     IErMin= 2 ErrMin= 3.96D-02
 ErrMax= 3.96D-02  0.00D+00 EMaxC= 1.00D-01 BMatC= 1.05D-01 BMatP= 4.03D-01
 IDIUse=3 WtCom= 6.04D-01 WtEn= 3.96D-01
 Coeff-Com:  0.308D+00 0.692D+00
 Coeff-En:   0.126D+00 0.874D+00
 Coeff:      0.236D+00 0.764D+00
 Gap=     0.589 Goal=   None    Shift=    0.000
 RMSDP=1.82D-03 MaxDP=5.23D-02 DE=-1.17D-01 OVMax= 6.92D-02

 Cycle   3  Pass 1  IDiag  1:
 E= -152.045922354049     Delta-E=       -0.060330553246 Rises=F Damp=F
 DIIS: error= 1.02D-02 at cycle   3 NSaved=   3.
 NSaved= 3 IEnMin= 3 EnMin= -152.045922354049     IErMin= 3 ErrMin= 1.02D-02
 ErrMax= 1.02D-02  0.00D+00 EMaxC= 1.00D-01 BMatC= 6.93D-03 BMatP= 1.05D-01
 IDIUse=3 WtCom= 8.98D-01 WtEn= 1.02D-01
 Coeff-Com: -0.317D-01 0.171D+00 0.860D+00
 Coeff-En:   0.000D+00 0.000D+00 0.100D+01
 Coeff:     -0.285D-01 0.154D+00 0.875D+00
 Gap=     0.551 Goal=   None    Shift=    0.000
 RMSDP=3.06D-04 MaxDP=8.78D-03 DE=-6.03D-02 OVMax= 1.63D-02

 Cycle   4  Pass 1  IDiag  1:
 E= -152.050179921795     Delta-E=       -0.004257567747 Rises=F Damp=F
 DIIS: error= 8.64D-04 at cycle   4 NSaved=   4.
 NSaved= 4 IEnMin= 4 EnMin= -152.050179921795     IErMin= 4 ErrMin= 8.64D-04
 ErrMax= 8.64D-04  0.00D+00 EMaxC= 1.00D-01 BMatC= 5.17D-05 BMatP= 6.93D-03
 IDIUse=3 WtCom= 9.91D-01 WtEn= 8.64D-03
 Coeff-Com:  0.458D-03-0.300D-01-0.605D-01 0.109D+01
 Coeff-En:   0.000D+00 0.000D+00 0.000D+00 0.100D+01
 Coeff:      0.454D-03-0.298D-01-0.600D-01 0.109D+01
 Gap=     0.556 Goal=   None    Shift=    0.000
 RMSDP=6.88D-05 MaxDP=1.32D-03 DE=-4.26D-03 OVMax= 2.58D-03

 Cycle   5  Pass 1  IDiag  1:
 E= -152.050238314292     Delta-E=       -0.000058392497 Rises=F Damp=F
 DIIS: error= 2.99D-04 at cycle   5 NSaved=   5.
 NSaved= 5 IEnMin= 5 EnMin= -152.050238314292     IErMin= 5 ErrMin= 2.99D-04
 ErrMax= 2.99D-04  0.00D+00 EMaxC= 1.00D-01 BMatC= 8.10D-06 BMatP= 5.17D-05
 IDIUse=3 WtCom= 9.97D-01 WtEn= 2.99D-03
 Coeff-Com:  0.392D-02-0.295D-01-0.118D+00 0.304D+00 0.840D+00
 Coeff-En:   0.000D+00 0.000D+00 0.000D+00 0.000D+00 0.100D+01
 Coeff:      0.391D-02-0.294D-01-0.118D+00 0.303D+00 0.840D+00
 Gap=     0.556 Goal=   None    Shift=    0.000
 RMSDP=2.37D-05 MaxDP=4.05D-04 DE=-5.84D-05 OVMax= 9.80D-04

 Cycle   6  Pass 1  IDiag  1:
 E= -152.050246833140     Delta-E=       -0.000008518848 Rises=F Damp=F
 DIIS: error= 9.88D-05 at cycle   6 NSaved=   6.
 NSaved= 6 IEnMin= 6 EnMin= -152.050246833140     IErMin= 6 ErrMin= 9.88D-05
 ErrMax= 9.88D-05  0.00D+00 EMaxC= 1.00D-01 BMatC= 4.21D-07 BMatP= 8.10D-06
 IDIUse=1 WtCom= 1.00D+00 WtEn= 0.00D+00
 Coeff-Com: -0.853D-04 0.264D-02 0.971D-02-0.107D+00-0.150D-01 0.111D+01
 Coeff:     -0.853D-04 0.264D-02 0.971D-02-0.107D+00-0.150D-01 0.111D+01
 Gap=     0.556 Goal=   None    Shift=    0.000
 RMSDP=7.43D-06 MaxDP=1.63D-04 DE=-8.52D-06 OVMax= 3.57D-04

 Cycle   7  Pass 1  IDiag  1:
 E= -152.050247508022     Delta-E=       -0.000000674882 Rises=F Damp=F
 DIIS: error= 9.60D-06 at cycle   7 NSaved=   7.
 NSaved= 7 IEnMin= 7 EnMin= -152.050247508022     IErMin= 7 ErrMin= 9.60D-06
 ErrMax= 9.60D-06  0.00D+00 EMaxC= 1.00D-01 BMatC= 1.06D-08 BMatP= 4.21D-07
 IDIUse=1 WtCom= 1.00D+00 WtEn= 0.00D+00
 Coeff-Com: -0.127D-03 0.682D-03 0.268D-02 0.472D-02-0.355D-01-0.172D+00
 Coeff-Com:  0.120D+01
 Coeff:     -0.127D-03 0.682D-03 0.268D-02 0.472D-02-0.355D-01-0.172D+00
 Coeff:      0.120D+01
 Gap=     0.556 Goal=   None    Shift=    0.000
 RMSDP=1.78D-06 MaxDP=3.57D-05 DE=-6.75D-07 OVMax= 8.74D-05

 Cycle   8  Pass 1  IDiag  1:
 E= -152.050247534310     Delta-E=       -0.000000026288 Rises=F Damp=F
 DIIS: error= 2.17D-06 at cycle   8 NSaved=   8.
 NSaved= 8 IEnMin= 8 EnMin= -152.050247534310     IErMin= 8 ErrMin= 2.17D-06
 ErrMax= 2.17D-06  0.00D+00 EMaxC= 1.00D-01 BMatC= 6.06D-10 BMatP= 1.06D-08
 IDIUse=1 WtCom= 1.00D+00 WtEn= 0.00D+00
 Coeff-Com:  0.960D-05-0.198D-03-0.752D-03 0.683D-02 0.235D-02-0.614D-01
 Coeff-Com: -0.110D-01 0.106D+01
 Coeff:      0.960D-05-0.198D-03-0.752D-03 0.683D-02 0.235D-02-0.614D-01
 Coeff:     -0.110D-01 0.106D+01
 Gap=     0.556 Goal=   None    Shift=    0.000
 RMSDP=3.25D-07 MaxDP=5.86D-06 DE=-2.63D-08 OVMax= 1.74D-05

 Cycle   9  Pass 1  IDiag  1:
 E= -152.050247535378     Delta-E=       -0.000000001068 Rises=F Damp=F
 DIIS: error= 8.32D-07 at cycle   9 NSaved=   9.
 NSaved= 9 IEnMin= 9 EnMin= -152.050247535378     IErMin= 9 ErrMin= 8.32D-07
 ErrMax= 8.32D-07  0.00D+00 EMaxC= 1.00D-01 BMatC= 3.95D-11 BMatP= 6.06D-10
 IDIUse=1 WtCom= 1.00D+00 WtEn= 0.00D+00
 Coeff-Com:  0.619D-05-0.124D-04-0.364D-04-0.147D-02 0.189D-02 0.186D-01
 Coeff-Com: -0.486D-01-0.252D+00 0.128D+01
 Coeff:      0.619D-05-0.124D-04-0.364D-04-0.147D-02 0.189D-02 0.186D-01
 Coeff:     -0.486D-01-0.252D+00 0.128D+01
 Gap=     0.556 Goal=   None    Shift=    0.000
 RMSDP=9.17D-08 MaxDP=1.45D-06 DE=-1.07D-09 OVMax= 6.10D-06

 Cycle  10  Pass 1  IDiag  1:
 E= -152.050247535475     Delta-E=       -0.000000000097 Rises=F Damp=F
 DIIS: error= 1.62D-07 at cycle  10 NSaved=  10.
 NSaved=10 IEnMin=10 EnMin= -152.050247535475     IErMin=10 ErrMin= 1.62D-07
 ErrMax= 1.62D-07  0.00D+00 EMaxC= 1.00D-01 BMatC= 2.13D-12 BMatP= 3.95D-11
 IDIUse=1 WtCom= 1.00D+00 WtEn= 0.00D+00
 Coeff-Com: -0.153D-05 0.119D-04 0.433D-04-0.868D-04-0.406D-03-0.434D-03
 Coeff-Com:  0.752D-02 0.444D-02-0.266D+00 0.126D+01
 Coeff:     -0.153D-05 0.119D-04 0.433D-04-0.868D-04-0.406D-03-0.434D-03
 Coeff:      0.752D-02 0.444D-02-0.266D+00 0.126D+01
 Gap=     0.556 Goal=   None    Shift=    0.000
 RMSDP=2.18D-08 MaxDP=3.63D-07 DE=-9.71D-11 OVMax= 1.68D-06

 Cycle  11  Pass 1  IDiag  1:
 E= -152.050247535481     Delta-E=       -0.000000000006 Rises=F Damp=F
 DIIS: error= 3.32D-08 at cycle  11 NSaved=  11.
 NSaved=11 IEnMin=11 EnMin= -152.050247535481     IErMin=11 ErrMin= 3.32D-08
 ErrMax= 3.32D-08  0.00D+00 EMaxC= 1.00D-01 BMatC= 1.26D-13 BMatP= 2.13D-12
 IDIUse=1 WtCom= 1.00D+00 WtEn= 0.00D+00
 Coeff-Com: -0.952D-07-0.102D-05-0.489D-05 0.901D-04-0.161D-04-0.794D-03
 Coeff-Com:  0.812D-03 0.149D-01-0.295D-01-0.234D+00 0.125D+01
 Coeff:     -0.952D-07-0.102D-05-0.489D-05 0.901D-04-0.161D-04-0.794D-03
 Coeff:      0.812D-03 0.149D-01-0.295D-01-0.234D+00 0.125D+01
 Gap=     0.556 Goal=   None    Shift=    0.000
 RMSDP=5.13D-09 MaxDP=8.96D-08 DE=-6.25D-12 OVMax= 4.10D-07

 SCF Done:  E(RHF) =  -152.050247535     A.U. after   11 cycles
            NFock= 11  Conv=0.51D-08     -V/T= 1.9993
 KE= 1.521533609562D+02 PE=-4.468754616706D+02 EE= 9.995010719179D+01
 Leave Link  502 at Fri Aug 26 16:32:59 2022, MaxMem=   536870912 cpu:               4.8 elap:               1.3
 (Enter /usr/site/hpc/x86_64/glibc-2.17/broadwell/gaussian/g16_a.03/pgi-16.5/g16/l801.exe)
 Windowed orbitals will be sorted by symmetry type.
 ExpMin= 1.03D-01 ExpMax= 1.53D+04 ExpMxC= 5.22D+02 IAcc=3 IRadAn=         5 AccDes= 0.00D+00
 HarFok:  IExCor=  205 AccDes= 0.00D+00 IRadAn=         5 IDoV=-2 UseB2=F ITyADJ=14
 ICtDFT= 12500011 ScaDFX=  1.000000  1.000000  1.000000  1.000000
 Largest valence mixing into a core orbital is  1.10D-04
 Largest core mixing into a valence orbital is  1.75D-05
 Range of M.O.s used for correlation:     3   116
 NBasis=   116 NAE=    10 NBE=    10 NFC=     2 NFV=     0
 NROrb=    114 NOA=     8 NOB=     8 NVA=   106 NVB=   106
 Leave Link  801 at Fri Aug 26 16:33:00 2022, MaxMem=   536870912 cpu:               0.3 elap:               0.1
 (Enter /usr/site/hpc/x86_64/glibc-2.17/broadwell/gaussian/g16_a.03/pgi-16.5/g16/l804.exe)
 Closed-shell transformation, MDV=   536870912 ITran=4 ISComp=2.
 Unit  1 TFree=        834515 TCopy=        406125.
 Semi-Direct transformation.
 ModeAB=           2 MOrb=             8 LenV=     536359196
 LASXX=      2873146 LTotXX=     2873146 LenRXX=     2873146
 LTotAB=     2958132 MaxLAS=     7765680 LenRXY=     7765680
 NonZer=     7990944 LenScr=    12058624 LnRSAI=           0
 LnScr1=           0 LExtra=           0 Total=     22697450
 MaxDsk=          -1 SrtSym=           F ITran=            4
 DoSDTr:  NPSUse=  4
 JobTyp=0 Pass  1:  I=   1 to   8.
 (rs|ai) integrals will be sorted in core.
 Complete sort for first half transformation.
 First half transformation complete.
 Complete sort for second half transformation.
 Second half transformation complete.
 Spin components of T(2) and E(2):
     alpha-alpha T2 =       0.1630865019D-01 E2=     -0.6700389449D-01
     alpha-beta  T2 =       0.9185785336D-01 E2=     -0.4036977171D+00
     beta-beta   T2 =       0.1630865019D-01 E2=     -0.6700389449D-01
 ANorm=    0.1060412728D+01
 E2 =    -0.5377055061D+00 EUMP2 =    -0.15258795304160D+03
 Leave Link  804 at Fri Aug 26 16:33:01 2022, MaxMem=   536870912 cpu:               5.2 elap:               1.3
 (Enter /usr/site/hpc/x86_64/glibc-2.17/broadwell/gaussian/g16_a.03/pgi-16.5/g16/l913.exe)
 CIDS:  MDV=   536870912.
 Frozen-core window:  NFC=   2 NFV=   0.
 IFCWin=0 IBDFC=1 NFBD=     0     0 NFCmp=     0     0 NFFFC=     0     0
 Using DD3R+UMP44R for 1st iteration.
 Using DD4RQ for 2nd and later iterations.
 Keep R2 and R3 ints in memory in symmetry-blocked form, NReq=35357534.
 FoFCou: FMM=F IPFlag=           0 FMFlag=           0 FMFlg1=           0
         NFxFlg=           0 DoJE=F BraDBF=F KetDBF=F FulRan=T
         wScrn=  0.000000 ICntrl=       600 IOpCl=  0 I1Cent=           0 NGrid=           0
         NMat0=    1 NMatS0=   6786 NMatT0=    0 NMatD0=    1 NMtDS0=    0 NMtDT0=    0
 Petite list used in FoFCou.
 CIDS: In Core Option IDoMem=           1.
 CCSD(T)
 =======
 Iterations=  50 Convergence= 0.100D-06
 Produce multiple copies of IABC intergrals
 Iteration Nr.   1
 **********************
 DD1Dir will call FoFMem   1 times, MxPair=        72
 NAB=    36 NAA=     0 NBB=     0.
 MP4(R+Q)=  0.84402867D-02
 Maximum subspace dimension=  5
 A-vector RMS=  2.1078440D-03 Max=  1.1040933D-02 conv= 1.00D-05.
 RLE energy=       -0.5346396308
 E3=       -0.54199829D-02        EUMP3=      -0.15259337302D+03
 E4(DQ)=   -0.50699220D-03        UMP4(DQ)=   -0.15259388002D+03
 E4(SDQ)=  -0.40156763D-02        UMP4(SDQ)=  -0.15259738870D+03
 VARIATIONAL ENERGIES WITH THE FIRST-ORDER WAVEFUNCTION:
 DE(Corr)= -0.53462206     E(Corr)=     -152.58486959    
 NORM(A)=   0.10599601D+01
 Iteration Nr.   2
 **********************
 DD1Dir will call FoFMem   1 times, MxPair=        72
 NAB=    36 NAA=     0 NBB=     0.
 A-vector RMS=  2.1762238D-04 Max=  1.8567138D-03 conv= 1.00D-05.
 RLE energy=       -0.5457833727
 DE(Corr)= -0.54492296     E(CORR)=     -152.59517049     Delta=-1.03D-02
 NORM(A)=   0.10636840D+01
 Iteration Nr.   3
 **********************
 DD1Dir will call FoFMem   1 times, MxPair=        72
 NAB=    36 NAA=     0 NBB=     0.
 A-vector RMS=  2.8900119D-04 Max=  2.9965963D-03 conv= 1.00D-05.
 RLE energy=       -0.5462768884
 DE(Corr)= -0.54564665     E(CORR)=     -152.59589418     Delta=-7.24D-04
 NORM(A)=   0.10643414D+01
 Iteration Nr.   4
 **********************
 DD1Dir will call FoFMem   1 times, MxPair=        72
 NAB=    36 NAA=     0 NBB=     0.
 A-vector RMS=  5.2665737D-05 Max=  6.9538231D-04 conv= 1.00D-05.
 RLE energy=       -0.5463443522
 DE(Corr)= -0.54630398     E(CORR)=     -152.59655152     Delta=-6.57D-04
 NORM(A)=   0.10644891D+01
 Iteration Nr.   5
 **********************
 DD1Dir will call FoFMem   1 times, MxPair=        72
 NAB=    36 NAA=     0 NBB=     0.
 A-vector RMS=  4.2429568D-05 Max=  5.4287166D-04 conv= 1.00D-05.
 RLE energy=       -0.5463693726
 DE(Corr)= -0.54635852     E(CORR)=     -152.59660606     Delta=-5.45D-05
 NORM(A)=   0.10645308D+01
 Iteration Nr.   6
 **********************
 DD1Dir will call FoFMem   1 times, MxPair=        72
 NAB=    36 NAA=     0 NBB=     0.
 A-vector RMS=  1.2329733D-05 Max=  1.1583989D-04 conv= 1.00D-05.
 RLE energy=       -0.5463662683
 DE(Corr)= -0.54636519     E(CORR)=     -152.59661273     Delta=-6.67D-06
 NORM(A)=   0.10645377D+01
 Iteration Nr.   7
 **********************
 DD1Dir will call FoFMem   1 times, MxPair=        72
 NAB=    36 NAA=     0 NBB=     0.
 A-vector RMS=  4.9267305D-06 Max=  5.6344722D-05 conv= 1.00D-05.
 RLE energy=       -0.5463609494
 DE(Corr)= -0.54636567     E(CORR)=     -152.59661321     Delta=-4.77D-07
 NORM(A)=   0.10645392D+01
 Iteration Nr.   8
 **********************
 DD1Dir will call FoFMem   1 times, MxPair=        72
 NAB=    36 NAA=     0 NBB=     0.
 A-vector RMS=  2.1810034D-06 Max=  2.5626924D-05 conv= 1.00D-05.
 RLE energy=       -0.5463647322
 DE(Corr)= -0.54636518     E(CORR)=     -152.59661271     Delta= 4.94D-07
 NORM(A)=   0.10645413D+01
 Iteration Nr.   9
 **********************
 DD1Dir will call FoFMem   1 times, MxPair=        72
 NAB=    36 NAA=     0 NBB=     0.
 A-vector RMS=  5.1010975D-07 Max=  4.8913948D-06 conv= 1.00D-05.
 RLE energy=       -0.5463648409
 DE(Corr)= -0.54636493     E(CORR)=     -152.59661247     Delta= 2.41D-07
 NORM(A)=   0.10645417D+01
 Iteration Nr.  10
 **********************
 DD1Dir will call FoFMem   1 times, MxPair=        72
 NAB=    36 NAA=     0 NBB=     0.
 A-vector RMS=  1.6641717D-07 Max=  1.6030771D-06 conv= 1.00D-05.
 RLE energy=       -0.5463652062
 DE(Corr)= -0.54636521     E(CORR)=     -152.59661275     Delta=-2.79D-07
 NORM(A)=   0.10645420D+01
 Iteration Nr.  11
 **********************
 DD1Dir will call FoFMem   1 times, MxPair=        72
 NAB=    36 NAA=     0 NBB=     0.
 A-vector RMS=  9.3594897D-08 Max=  7.9887521D-07 conv= 1.00D-05.
 RLE energy=       -0.5463652980
 DE(Corr)= -0.54636527     E(CORR)=     -152.59661280     Delta=-5.37D-08
 NORM(A)=   0.10645421D+01
 CI/CC converged in   11 iterations to DelEn=-5.37D-08 Conv= 1.00D-07 ErrA1= 9.36D-08 Conv= 1.00D-05
 Wavefunction amplitudes converged. E(Corr)=     -152.59661280    
 Largest amplitude= 3.39D-02
 IPart=  3 IA=    7   11.05% done.
 IPart=  4 IA=   13   21.46% done.
 IPart=  1 IA=   19   31.21% done.
 IPart=  2 IA=   25   40.32% done.
 IPart=  2 IA=   32   50.13% done.
 IPart=  4 IA=   40   60.27% done.
 IPart=  3 IA=   49   70.30% done.
 IPart=  1 IA=   60   80.58% done.
 IPart=  3 IA=   74   90.51% done.
 Time for triples=       55.12 seconds.
 T4(CCSD)= -0.17719881D-01
 T5(CCSD)=  0.48990291D-03
 CCSD(T)= -0.15261384278D+03
 Discarding MO integrals.
 Leave Link  913 at Fri Aug 26 16:33:22 2022, MaxMem=   536870912 cpu:              82.7 elap:              20.8
 (Enter /usr/site/hpc/x86_64/glibc-2.17/broadwell/gaussian/g16_a.03/pgi-16.5/g16/l601.exe)
 Copying SCF densities to generalized density rwf, IOpCl= 0 IROHF=0.

 **********************************************************************

            Population analysis using the SCF density.

 **********************************************************************

 Orbital symmetries:
       Occupied  (A') (A') (A') (A') (A') (A') (A') (A") (A') (A")
       Virtual   (A') (A') (A') (A') (A') (A') (A') (A') (A") (A')
                 (A") (A') (A') (A') (A") (A") (A') (A") (A') (A')
                 (A") (A') (A') (A') (A') (A') (A') (A") (A") (A')
                 (A") (A') (A') (A') (A') (A') (A") (A') (A') (A')
                 (A") (A') (A') (A') (A") (A') (A") (A') (A") (A')
                 (A") (A") (A') (A") (A') (A") (A') (A") (A") (A')
                 (A') (A') (A') (A") (A') (A") (A') (A") (A') (A')
                 (A') (A') (A") (A') (A') (A') (A') (A') (A') (A")
                 (A") (A') (A') (A') (A") (A") (A") (A") (A') (A")
                 (A") (A') (A') (A") (A') (A') (A') (A') (A') (A")
                 (A') (A') (A') (A') (A') (A')
 The electronic state is 1-A'.
 Alpha  occ. eigenvalues --  -20.61025 -20.48968  -1.42392  -1.27830  -0.82327
 Alpha  occ. eigenvalues --   -0.69116  -0.57962  -0.57047  -0.49726  -0.44702
 Alpha virt. eigenvalues --    0.10937   0.16027   0.21716   0.31853   0.49047
 Alpha virt. eigenvalues --    0.50804   0.59537   0.67454   0.71199   0.72692
 Alpha virt. eigenvalues --    0.75322   0.77219   0.79399   0.83260   0.85105
 Alpha virt. eigenvalues --    0.87601   0.96334   0.99506   1.03543   1.08725
 Alpha virt. eigenvalues --    1.15715   1.23740   1.36017   1.41100   1.51632
 Alpha virt. eigenvalues --    1.60962   1.65053   1.93622   1.97846   2.03677
 Alpha virt. eigenvalues --    2.07640   2.12446   2.18588   2.24390   2.28910
 Alpha virt. eigenvalues --    2.41220   2.44535   2.47508   2.75344   2.93178
 Alpha virt. eigenvalues --    3.12745   3.15573   3.34151   3.39666   3.43831
 Alpha virt. eigenvalues --    3.46213   3.54267   3.56464   3.66634   3.71532
 Alpha virt. eigenvalues --    3.78704   3.84177   3.87683   3.90720   3.90922
 Alpha virt. eigenvalues --    4.00127   4.01777   4.07337   4.10522   4.12991
 Alpha virt. eigenvalues --    4.14490   4.26469   4.34788   4.41539   4.41794
 Alpha virt. eigenvalues --    4.52308   4.64096   4.68063   4.72859   4.81716
 Alpha virt. eigenvalues --    4.92605   4.98283   4.99755   5.11755   5.18965
 Alpha virt. eigenvalues --    5.29733   5.46063   5.63821   5.65421   5.90637
 Alpha virt. eigenvalues --    6.08591   6.15829   6.44002   6.63557   6.75625
 Alpha virt. eigenvalues --    6.82954   6.90735   6.94851   6.96740   7.01970
 Alpha virt. eigenvalues --    7.13453   7.18800   7.23108   7.32011   7.36981
 Alpha virt. eigenvalues --    7.42256   7.54806   7.62848   7.75355   7.90862
 Alpha virt. eigenvalues --    8.05364   8.22233   8.58519   9.15353  13.00737
 Alpha virt. eigenvalues --   13.46478
          Condensed to atoms (all electrons):
               1          2          3          4          5          6
     1  O    7.930841   0.406518   0.341960  -0.110470   0.005571   0.006508
     2  H    0.406518   0.348225  -0.054961   0.059325  -0.008963  -0.013437
     3  H    0.341960  -0.054961   0.504542   0.005889  -0.000358   0.008972
     4  O   -0.110470   0.059325   0.005889   7.789951   0.298851   0.293692
     5  H    0.005571  -0.008963  -0.000358   0.298851   0.485053  -0.006586
     6  H    0.006508  -0.013437   0.008972   0.293692  -0.006586   0.476365
 Mulliken charges:
               1
     1  O   -0.580928
     2  H    0.263294
     3  H    0.193955
     4  O   -0.337239
     5  H    0.226431
     6  H    0.234486
 Sum of Mulliken charges =  -0.00000
 Mulliken charges with hydrogens summed into heavy atoms:
               1
     1  O   -0.123679
     4  O    0.123679
 Electronic spatial extent (au):  <R**2>=            125.4938
 Charge=             -0.0000 electrons
 Dipole moment (field-independent basis, Debye):
    X=             -2.9253    Y=              3.6846    Z=              0.0000  Tot=              4.7046
 Quadrupole moment (field-independent basis, Debye-Ang):
   XX=            -10.8192   YY=             -9.8403   ZZ=            -14.5461
   XY=              1.9293   XZ=              0.0000   YZ=              0.0000
 Traceless Quadrupole moment (field-independent basis, Debye-Ang):
   XX=              0.9160   YY=              1.8949   ZZ=             -2.8109
   XY=              1.9293   XZ=              0.0000   YZ=              0.0000
 Octapole moment (field-independent basis, Debye-Ang**2):
  XXX=             -3.1737  YYY=             17.2810  ZZZ=              0.0000  XYY=             -4.0082
  XXY=              0.0190  XXZ=              0.0000  XZZ=             -0.3503  YZZ=              0.9357
  YYZ=              0.0000  XYZ=              0.0000
 Hexadecapole moment (field-independent basis, Debye-Ang**3):
 XXXX=            -11.9754 YYYY=            -80.3912 ZZZZ=            -11.1607 XXXY=              0.3628
 XXXZ=              0.0000 YYYX=              7.4478 YYYZ=              0.0000 ZZZX=              0.0000
 ZZZY=              0.0000 XXYY=            -17.9788 XXZZ=             -4.3186 YYZZ=            -22.4006
 XXYZ=              0.0000 YYXZ=              0.0000 ZZXY=             -0.2148
 N-N= 4.272174598710D+01 E-N=-4.468754606951D+02  KE= 1.521533609562D+02
 Symmetry A'   KE= 1.431608761022D+02
 Symmetry A"   KE= 8.992484854029D+00
 Leave Link  601 at Fri Aug 26 16:33:22 2022, MaxMem=   536870912 cpu:               0.2 elap:               0.1
 (Enter /usr/site/hpc/x86_64/glibc-2.17/broadwell/gaussian/g16_a.03/pgi-16.5/g16/l9999.exe)
 1\1\GINC-N041\SP\RCCSD(T)-FC\CC-pVTZ\H4O2\C7441284\26-Aug-2022\0\\#p C
 CSD(T)/cc-pVTZ\\H2O_H2O_200\\0,1\O,0,0.,-0.009833,0.\H,0,-0.799571,-0.
 580965,0.\H,0,0.799571,-0.580965,0.\O,0,-1.790616,-1.288866,0.\H,0,-2.
 590188,-1.859998,0.\H,0,-0.991045,-1.859998,0.\\Version=ES64L-G16RevA.
 03\State=1-A'\HF=-152.0502475\MP2=-152.587953\MP3=-152.593373\MP4D=-15
 2.6023203\MP4DQ=-152.59388\MP4SDQ=-152.5973887\CCSD=-152.5966128\CCSD(
 T)=-152.6138428\RMSD=5.132e-09\PG=CS [SG(H4O2)]\\@


 ... THIS SEEMS PLAINLY ABSURD; BUT WHOEVER WISHES TO BECOME A 
 PHILOSOPHER MUST LEARN NOT TO BE FRIGHTENED BY ABSURDITIES.

                          -- BERTRAND RUSSELL
 Job cpu time:       0 days  0 hours  1 minutes 36.2 seconds.
 Elapsed time:       0 days  0 hours  0 minutes 24.4 seconds.
 File lengths (MBytes):  RWF=    572 Int=      0 D2E=      0 Chk=      8 Scr=      8
 Normal termination of Gaussian 16 at Fri Aug 26 16:33:22 2022.
