 Entering Gaussian System, Link 0=g16
 Input=H2O_H2O_682.com
 Output=H2O_H2O_682.log
 Initial command:
 /usr/site/hpc/x86_64/glibc-2.17/broadwell/gaussian/g16_a.03/pgi-16.5/g16/l1.exe "/gpfs/gpfs1/scratch/c7441284/ForceFieldModel/FittingData2/Gau-38147.inp" -scrdir="/gpfs/gpfs1/scratch/c7441284/ForceFieldModel/FittingData2/"
 Entering Link 1 = /usr/site/hpc/x86_64/glibc-2.17/broadwell/gaussian/g16_a.03/pgi-16.5/g16/l1.exe PID=     38148.
  
 Copyright (c) 1988,1990,1992,1993,1995,1998,2003,2009,2016,
            Gaussian, Inc.  All Rights Reserved.
  
 This is part of the Gaussian(R) 16 program.  It is based on
 the Gaussian(R) 09 system (copyright 2009, Gaussian, Inc.),
 the Gaussian(R) 03 system (copyright 2003, Gaussian, Inc.),
 the Gaussian(R) 98 system (copyright 1998, Gaussian, Inc.),
 the Gaussian(R) 94 system (copyright 1995, Gaussian, Inc.),
 the Gaussian 92(TM) system (copyright 1992, Gaussian, Inc.),
 the Gaussian 90(TM) system (copyright 1990, Gaussian, Inc.),
 the Gaussian 88(TM) system (copyright 1988, Gaussian, Inc.),
 the Gaussian 86(TM) system (copyright 1986, Carnegie Mellon
 University), and the Gaussian 82(TM) system (copyright 1983,
 Carnegie Mellon University). Gaussian is a federally registered
 trademark of Gaussian, Inc.
  
 This software contains proprietary and confidential information,
 including trade secrets, belonging to Gaussian, Inc.
  
 This software is provided under written license and may be
 used, copied, transmitted, or stored only in accord with that
 written license.
  
 The following legend is applicable only to US Government
 contracts under FAR:
  
                    RESTRICTED RIGHTS LEGEND
  
 Use, reproduction and disclosure by the US Government is
 subject to restrictions as set forth in subparagraphs (a)
 and (c) of the Commercial Computer Software - Restricted
 Rights clause in FAR 52.227-19.
  
 Gaussian, Inc.
 340 Quinnipiac St., Bldg. 40, Wallingford CT 06492
  
  
 ---------------------------------------------------------------
 Warning -- This program may not be used in any manner that
 competes with the business of Gaussian, Inc. or will provide
 assistance to any competitor of Gaussian, Inc.  The licensee
 of this program is prohibited from giving any competitor of
 Gaussian, Inc. access to this program.  By using this program,
 the user acknowledges that Gaussian, Inc. is engaged in the
 business of creating and licensing software in the field of
 computational chemistry and represents and warrants to the
 licensee that it is not a competitor of Gaussian, Inc. and that
 it will not use this program in any manner prohibited above.
 ---------------------------------------------------------------
  

 Cite this work as:
 Gaussian 16, Revision A.03,
 M. J. Frisch, G. W. Trucks, H. B. Schlegel, G. E. Scuseria, 
 M. A. Robb, J. R. Cheeseman, G. Scalmani, V. Barone, 
 G. A. Petersson, H. Nakatsuji, X. Li, M. Caricato, A. V. Marenich, 
 J. Bloino, B. G. Janesko, R. Gomperts, B. Mennucci, H. P. Hratchian, 
 J. V. Ortiz, A. F. Izmaylov, J. L. Sonnenberg, D. Williams-Young, 
 F. Ding, F. Lipparini, F. Egidi, J. Goings, B. Peng, A. Petrone, 
 T. Henderson, D. Ranasinghe, V. G. Zakrzewski, J. Gao, N. Rega, 
 G. Zheng, W. Liang, M. Hada, M. Ehara, K. Toyota, R. Fukuda, 
 J. Hasegawa, M. Ishida, T. Nakajima, Y. Honda, O. Kitao, H. Nakai, 
 T. Vreven, K. Throssell, J. A. Montgomery, Jr., J. E. Peralta, 
 F. Ogliaro, M. J. Bearpark, J. J. Heyd, E. N. Brothers, K. N. Kudin, 
 V. N. Staroverov, T. A. Keith, R. Kobayashi, J. Normand, 
 K. Raghavachari, A. P. Rendell, J. C. Burant, S. S. Iyengar, 
 J. Tomasi, M. Cossi, J. M. Millam, M. Klene, C. Adamo, R. Cammi, 
 J. W. Ochterski, R. L. Martin, K. Morokuma, O. Farkas, 
 J. B. Foresman, and D. J. Fox, Gaussian, Inc., Wallingford CT, 2016.
 
 ******************************************
 Gaussian 16:  ES64L-G16RevA.03 25-Dec-2016
                26-Aug-2022 
 ******************************************
 %NProcShared=4
 Will use up to    4 processors via shared memory.
 %Mem=4GB
 %Chk=H2O_H2O_682.chk
 ------------------
 #p CCSD(T)/cc-pVTZ
 ------------------
 1/38=1,172=1/1;
 2/12=2,17=6,18=5,40=1/2;
 3/5=16,6=1,11=9,25=1,30=1/1,2,3;
 4//1;
 5/5=2,38=5/2;
 8/6=4,9=120000,10=1/1,4;
 9/5=7,14=2/13;
 6/7=2,8=2,9=2,10=2/1;
 99/5=1,9=1/99;
 Leave Link    1 at Fri Aug 26 19:48:59 2022, MaxMem=   536870912 cpu:               0.3 elap:               0.1
 (Enter /usr/site/hpc/x86_64/glibc-2.17/broadwell/gaussian/g16_a.03/pgi-16.5/g16/l101.exe)
 -----------
 H2O_H2O_682
 -----------
 Symbolic Z-matrix:
 Charge =  0 Multiplicity = 1
 O                     0.       -0.00983   0. 
 H                    -0.79957  -0.58097   0. 
 H                     0.79957  -0.58097   0. 
 O                    -2.10331  -1.50811   0. 
 H                    -3.07303  -1.6667    0. 
 H                    -1.63881  -2.37398   0. 
 
 ITRead=  0  0  0  0  0  0
 MicOpt= -1 -1 -1 -1 -1 -1
 NAtoms=      6 NQM=        6 NQMF=       0 NMMI=      0 NMMIF=      0
                NMic=       0 NMicF=      0.
                    Isotopes and Nuclear Properties:
 (Nuclear quadrupole moments (NQMom) in fm**2, nuclear magnetic moments (NMagM)
  in nuclear magnetons)

  Atom         1           2           3           4           5           6
 IAtWgt=          16           1           1          16           1           1
 AtmWgt=  15.9949146   1.0078250   1.0078250  15.9949146   1.0078250   1.0078250
 NucSpn=           0           1           1           0           1           1
 AtZEff=  -0.0000000  -0.0000000  -0.0000000  -0.0000000  -0.0000000  -0.0000000
 NQMom=    0.0000000   0.0000000   0.0000000   0.0000000   0.0000000   0.0000000
 NMagM=    0.0000000   2.7928460   2.7928460   0.0000000   2.7928460   2.7928460
 AtZNuc=   8.0000000   1.0000000   1.0000000   8.0000000   1.0000000   1.0000000
 Leave Link  101 at Fri Aug 26 19:48:59 2022, MaxMem=   536870912 cpu:               0.7 elap:               0.2
 (Enter /usr/site/hpc/x86_64/glibc-2.17/broadwell/gaussian/g16_a.03/pgi-16.5/g16/l202.exe)
                          Input orientation:                          
 ---------------------------------------------------------------------
 Center     Atomic      Atomic             Coordinates (Angstroms)
 Number     Number       Type             X           Y           Z
 ---------------------------------------------------------------------
      1          8           0        0.000000   -0.009833    0.000000
      2          1           0       -0.799571   -0.580965    0.000000
      3          1           0        0.799571   -0.580965    0.000000
      4          8           0       -2.103314   -1.508105    0.000000
      5          1           0       -3.073033   -1.666696    0.000000
      6          1           0       -1.638806   -2.373979    0.000000
 ---------------------------------------------------------------------
                    Distance matrix (angstroms):
                    1          2          3          4          5
     1  O    0.000000
     2  H    0.982601   0.000000
     3  H    0.982601   1.599142   0.000000
     4  O    2.582392   1.599792   3.047348   0.000000
     5  H    3.491236   2.519413   4.021924   0.982602   0.000000
     6  H    2.876608   1.979701   3.026645   0.982601   1.599142
                    6
     6  H    0.000000
 Stoichiometry    H4O2
 Framework group  CS[SG(H4O2)]
 Deg. of freedom     9
 Full point group                 CS      NOp   2
 Largest Abelian subgroup         CS      NOp   2
 Largest concise Abelian subgroup C1      NOp   1
                         Standard orientation:                         
 ---------------------------------------------------------------------
 Center     Atomic      Atomic             Coordinates (Angstroms)
 Number     Number       Type             X           Y           Z
 ---------------------------------------------------------------------
      1          8           0        0.073582    1.374626    0.000000
      2          1           0        0.072306    0.392025    0.000000
      3          1           0       -0.855496    1.694499    0.000000
      4          8           0        0.073582   -1.207766   -0.000000
      5          1           0        0.507032   -2.089598   -0.000000
      6          1           0       -0.901159   -1.331802   -0.000000
 ---------------------------------------------------------------------
 Rotational constants (GHZ):         261.2435488           8.0519015           7.8111506
 Leave Link  202 at Fri Aug 26 19:48:59 2022, MaxMem=   536870912 cpu:               0.0 elap:               0.0
 (Enter /usr/site/hpc/x86_64/glibc-2.17/broadwell/gaussian/g16_a.03/pgi-16.5/g16/l301.exe)
 Standard basis: CC-pVTZ (5D, 7F)
 Ernie: Thresh=  0.10000D-02 Tol=  0.10000D-05 Strict=F.
 Ernie:  6 primitive shells out of 84 were deleted.
 There are    92 symmetry adapted cartesian basis functions of A'  symmetry.
 There are    38 symmetry adapted cartesian basis functions of A"  symmetry.
 There are    80 symmetry adapted basis functions of A'  symmetry.
 There are    36 symmetry adapted basis functions of A"  symmetry.
   116 basis functions,   172 primitive gaussians,   130 cartesian basis functions
    10 alpha electrons       10 beta electrons
       nuclear repulsion energy        38.5135044715 Hartrees.
 IExCor=    0 DFT=F Ex=HF Corr=None ExCW=0 ScaHFX=  1.000000
 ScaDFX=  1.000000  1.000000  1.000000  1.000000 ScalE2=  1.000000  1.000000
 IRadAn=      5 IRanWt=     -1 IRanGd=            0 ICorTp=0 IEmpDi=  4
 NAtoms=    6 NActive=    6 NUniq=    6 SFac= 1.00D+00 NAtFMM=   60 NAOKFM=F Big=F
 Integral buffers will be    131072 words long.
 Raffenetti 1 integral format.
 Two-electron integral symmetry is turned on.
 Leave Link  301 at Fri Aug 26 19:49:00 2022, MaxMem=   536870912 cpu:               0.1 elap:               0.0
 (Enter /usr/site/hpc/x86_64/glibc-2.17/broadwell/gaussian/g16_a.03/pgi-16.5/g16/l302.exe)
 NPDir=0 NMtPBC=     1 NCelOv=     1 NCel=       1 NClECP=     1 NCelD=      1
         NCelK=      1 NCelE2=     1 NClLst=     1 CellRange=     0.0.
 One-electron integrals computed using PRISM.
 One-electron integral symmetry used in STVInt
 NBasis=   116 RedAO= T EigKep=  2.11D-03  NBF=    80    36
 NBsUse=   116 1.00D-06 EigRej= -1.00D+00 NBFU=    80    36
 Leave Link  302 at Fri Aug 26 19:49:00 2022, MaxMem=   536870912 cpu:               0.5 elap:               0.1
 (Enter /usr/site/hpc/x86_64/glibc-2.17/broadwell/gaussian/g16_a.03/pgi-16.5/g16/l303.exe)
 DipDrv:  MaxL=1.
 Leave Link  303 at Fri Aug 26 19:49:00 2022, MaxMem=   536870912 cpu:               0.1 elap:               0.0
 (Enter /usr/site/hpc/x86_64/glibc-2.17/broadwell/gaussian/g16_a.03/pgi-16.5/g16/l401.exe)
 ExpMin= 1.03D-01 ExpMax= 1.53D+04 ExpMxC= 5.22D+02 IAcc=3 IRadAn=         5 AccDes= 0.00D+00
 Harris functional with IExCor=  205 and IRadAn=       5 diagonalized for initial guess.
 HarFok:  IExCor=  205 AccDes= 0.00D+00 IRadAn=         5 IDoV= 1 UseB2=F ITyADJ=14
 ICtDFT=  3500011 ScaDFX=  1.000000  1.000000  1.000000  1.000000
 FoFCou: FMM=F IPFlag=           0 FMFlag=      100000 FMFlg1=           0
         NFxFlg=           0 DoJE=T BraDBF=F KetDBF=T FulRan=T
         wScrn=  0.000000 ICntrl=       500 IOpCl=  0 I1Cent=   200000004 NGrid=           0
         NMat0=    1 NMatS0=      1 NMatT0=    0 NMatD0=    1 NMtDS0=    0 NMtDT0=    0
 Petite list used in FoFCou.
 Harris En= -152.306535125487    
 JPrj=0 DoOrth=F DoCkMO=F.
 Initial guess orbital symmetries:
       Occupied  (A') (A') (A') (A') (A') (A') (A') (A') (A") (A")
       Virtual   (A') (A') (A') (A') (A') (A') (A') (A') (A") (A')
                 (A') (A") (A') (A') (A") (A") (A') (A") (A') (A')
                 (A") (A') (A') (A') (A') (A') (A') (A') (A") (A")
                 (A") (A') (A') (A") (A') (A') (A') (A') (A') (A')
                 (A') (A') (A") (A") (A") (A') (A") (A') (A") (A')
                 (A") (A') (A') (A') (A') (A") (A') (A") (A') (A")
                 (A') (A") (A') (A') (A") (A') (A") (A') (A") (A')
                 (A') (A") (A') (A') (A') (A') (A') (A') (A') (A')
                 (A") (A") (A') (A') (A") (A") (A") (A") (A") (A')
                 (A') (A") (A') (A') (A") (A') (A") (A') (A') (A')
                 (A') (A') (A') (A') (A') (A')
 The electronic state of the initial guess is 1-A'.
 Leave Link  401 at Fri Aug 26 19:49:00 2022, MaxMem=   536870912 cpu:               0.8 elap:               0.2
 (Enter /usr/site/hpc/x86_64/glibc-2.17/broadwell/gaussian/g16_a.03/pgi-16.5/g16/l502.exe)
 Keep R1 ints in memory in symmetry-blocked form, NReq=34823457.
 FoFCou: FMM=F IPFlag=           0 FMFlag=           0 FMFlg1=           0
         NFxFlg=           0 DoJE=F BraDBF=F KetDBF=F FulRan=T
         wScrn=  0.000000 ICntrl=       600 IOpCl=  0 I1Cent=           0 NGrid=           0
         NMat0=    1 NMatS0=   6786 NMatT0=    0 NMatD0=    1 NMtDS0=    0 NMtDT0=    0
 Petite list used in FoFCou.
 Closed shell SCF:
 Using DIIS extrapolation, IDIIS=  1040.
 NGot=   536870912 LenX=   525040673 LenY=   525023332
 Requested convergence on RMS density matrix=1.00D-08 within 128 cycles.
 Requested convergence on MAX density matrix=1.00D-06.
 Requested convergence on             energy=1.00D-06.
 No special actions if energy rises.

 Cycle   1  Pass 1  IDiag  1:
 E= -151.934891152278    
 DIIS: error= 5.38D-02 at cycle   1 NSaved=   1.
 NSaved= 1 IEnMin= 1 EnMin= -151.934891152278     IErMin= 1 ErrMin= 5.38D-02
 ErrMax= 5.38D-02  0.00D+00 EMaxC= 1.00D-01 BMatC= 3.87D-01 BMatP= 3.87D-01
 IDIUse=3 WtCom= 4.62D-01 WtEn= 5.38D-01
 Coeff-Com:  0.100D+01
 Coeff-En:   0.100D+01
 Coeff:      0.100D+01
 Gap=     0.465 Goal=   None    Shift=    0.000
 GapD=    0.465 DampG=2.000 DampE=0.500 DampFc=1.0000 IDamp=-1.
 RMSDP=2.85D-03 MaxDP=8.41D-02              OVMax= 1.24D-01

 Cycle   2  Pass 1  IDiag  1:
 E= -152.045312693773     Delta-E=       -0.110421541495 Rises=F Damp=F
 DIIS: error= 3.23D-02 at cycle   2 NSaved=   2.
 NSaved= 2 IEnMin= 2 EnMin= -152.045312693773     IErMin= 2 ErrMin= 3.23D-02
 ErrMax= 3.23D-02  0.00D+00 EMaxC= 1.00D-01 BMatC= 9.90D-02 BMatP= 3.87D-01
 IDIUse=3 WtCom= 6.77D-01 WtEn= 3.23D-01
 Coeff-Com:  0.305D+00 0.695D+00
 Coeff-En:   0.124D+00 0.876D+00
 Coeff:      0.247D+00 0.753D+00
 Gap=     0.596 Goal=   None    Shift=    0.000
 RMSDP=1.50D-03 MaxDP=4.51D-02 DE=-1.10D-01 OVMax= 5.87D-02

 Cycle   3  Pass 1  IDiag  1:
 E= -152.101839160765     Delta-E=       -0.056526466993 Rises=F Damp=F
 DIIS: error= 7.35D-03 at cycle   3 NSaved=   3.
 NSaved= 3 IEnMin= 3 EnMin= -152.101839160765     IErMin= 3 ErrMin= 7.35D-03
 ErrMax= 7.35D-03  0.00D+00 EMaxC= 1.00D-01 BMatC= 5.47D-03 BMatP= 9.90D-02
 IDIUse=3 WtCom= 9.26D-01 WtEn= 7.35D-02
 Coeff-Com: -0.306D-01 0.157D+00 0.873D+00
 Coeff-En:   0.000D+00 0.000D+00 0.100D+01
 Coeff:     -0.283D-01 0.146D+00 0.883D+00
 Gap=     0.567 Goal=   None    Shift=    0.000
 RMSDP=2.55D-04 MaxDP=6.95D-03 DE=-5.65D-02 OVMax= 1.26D-02

 Cycle   4  Pass 1  IDiag  1:
 E= -152.105235967196     Delta-E=       -0.003396806431 Rises=F Damp=F
 DIIS: error= 6.19D-04 at cycle   4 NSaved=   4.
 NSaved= 4 IEnMin= 4 EnMin= -152.105235967196     IErMin= 4 ErrMin= 6.19D-04
 ErrMax= 6.19D-04  0.00D+00 EMaxC= 1.00D-01 BMatC= 3.06D-05 BMatP= 5.47D-03
 IDIUse=3 WtCom= 9.94D-01 WtEn= 6.19D-03
 Coeff-Com:  0.706D-02-0.613D-01-0.255D+00 0.131D+01
 Coeff-En:   0.000D+00 0.000D+00 0.000D+00 0.100D+01
 Coeff:      0.702D-02-0.610D-01-0.254D+00 0.131D+01
 Gap=     0.571 Goal=   None    Shift=    0.000
 RMSDP=6.26D-05 MaxDP=1.02D-03 DE=-3.40D-03 OVMax= 2.53D-03

 Cycle   5  Pass 1  IDiag  1:
 E= -152.105286881673     Delta-E=       -0.000050914477 Rises=F Damp=F
 DIIS: error= 1.87D-04 at cycle   5 NSaved=   5.
 NSaved= 5 IEnMin= 5 EnMin= -152.105286881673     IErMin= 5 ErrMin= 1.87D-04
 ErrMax= 1.87D-04  0.00D+00 EMaxC= 1.00D-01 BMatC= 1.69D-06 BMatP= 3.06D-05
 IDIUse=3 WtCom= 9.98D-01 WtEn= 1.87D-03
 Coeff-Com:  0.160D-02-0.908D-02-0.401D-01-0.290D-02 0.105D+01
 Coeff-En:   0.000D+00 0.000D+00 0.000D+00 0.000D+00 0.100D+01
 Coeff:      0.159D-02-0.907D-02-0.400D-01-0.289D-02 0.105D+01
 Gap=     0.571 Goal=   None    Shift=    0.000
 RMSDP=1.35D-05 MaxDP=2.44D-04 DE=-5.09D-05 OVMax= 7.04D-04

 Cycle   6  Pass 1  IDiag  1:
 E= -152.105289564707     Delta-E=       -0.000002683035 Rises=F Damp=F
 DIIS: error= 6.84D-05 at cycle   6 NSaved=   6.
 NSaved= 6 IEnMin= 6 EnMin= -152.105289564707     IErMin= 6 ErrMin= 6.84D-05
 ErrMax= 6.84D-05  0.00D+00 EMaxC= 1.00D-01 BMatC= 2.33D-07 BMatP= 1.69D-06
 IDIUse=1 WtCom= 1.00D+00 WtEn= 0.00D+00
 Coeff-Com: -0.132D-03 0.242D-02 0.105D-01-0.114D+00 0.288D+00 0.813D+00
 Coeff:     -0.132D-03 0.242D-02 0.105D-01-0.114D+00 0.288D+00 0.813D+00
 Gap=     0.572 Goal=   None    Shift=    0.000
 RMSDP=3.87D-06 MaxDP=1.11D-04 DE=-2.68D-06 OVMax= 1.67D-04

 Cycle   7  Pass 1  IDiag  1:
 E= -152.105289827998     Delta-E=       -0.000000263290 Rises=F Damp=F
 DIIS: error= 1.25D-05 at cycle   7 NSaved=   7.
 NSaved= 7 IEnMin= 7 EnMin= -152.105289827998     IErMin= 7 ErrMin= 1.25D-05
 ErrMax= 1.25D-05  0.00D+00 EMaxC= 1.00D-01 BMatC= 1.03D-08 BMatP= 2.33D-07
 IDIUse=1 WtCom= 1.00D+00 WtEn= 0.00D+00
 Coeff-Com: -0.113D-03 0.573D-03 0.233D-02 0.556D-02-0.109D+00-0.268D-01
 Coeff-Com:  0.113D+01
 Coeff:     -0.113D-03 0.573D-03 0.233D-02 0.556D-02-0.109D+00-0.268D-01
 Coeff:      0.113D+01
 Gap=     0.572 Goal=   None    Shift=    0.000
 RMSDP=1.49D-06 MaxDP=3.13D-05 DE=-2.63D-07 OVMax= 8.50D-05

 Cycle   8  Pass 1  IDiag  1:
 E= -152.105289850013     Delta-E=       -0.000000022015 Rises=F Damp=F
 DIIS: error= 1.94D-06 at cycle   8 NSaved=   8.
 NSaved= 8 IEnMin= 8 EnMin= -152.105289850013     IErMin= 8 ErrMin= 1.94D-06
 ErrMax= 1.94D-06  0.00D+00 EMaxC= 1.00D-01 BMatC= 5.37D-10 BMatP= 1.03D-08
 IDIUse=1 WtCom= 1.00D+00 WtEn= 0.00D+00
 Coeff-Com:  0.236D-04-0.254D-03-0.111D-02 0.779D-02-0.636D-02-0.452D-01
 Coeff-Com: -0.117D+00 0.116D+01
 Coeff:      0.236D-04-0.254D-03-0.111D-02 0.779D-02-0.636D-02-0.452D-01
 Coeff:     -0.117D+00 0.116D+01
 Gap=     0.572 Goal=   None    Shift=    0.000
 RMSDP=2.99D-07 MaxDP=5.97D-06 DE=-2.20D-08 OVMax= 1.82D-05

 Cycle   9  Pass 1  IDiag  1:
 E= -152.105289851165     Delta-E=       -0.000000001152 Rises=F Damp=F
 DIIS: error= 6.20D-07 at cycle   9 NSaved=   9.
 NSaved= 9 IEnMin= 9 EnMin= -152.105289851165     IErMin= 9 ErrMin= 6.20D-07
 ErrMax= 6.20D-07  0.00D+00 EMaxC= 1.00D-01 BMatC= 3.25D-11 BMatP= 5.37D-10
 IDIUse=1 WtCom= 1.00D+00 WtEn= 0.00D+00
 Coeff-Com:  0.295D-05 0.114D-04 0.876D-04-0.214D-02 0.868D-02 0.116D-01
 Coeff-Com: -0.393D-01-0.276D+00 0.130D+01
 Coeff:      0.295D-05 0.114D-04 0.876D-04-0.214D-02 0.868D-02 0.116D-01
 Coeff:     -0.393D-01-0.276D+00 0.130D+01
 Gap=     0.572 Goal=   None    Shift=    0.000
 RMSDP=7.24D-08 MaxDP=1.33D-06 DE=-1.15D-09 OVMax= 4.70D-06

 Cycle  10  Pass 1  IDiag  1:
 E= -152.105289851241     Delta-E=       -0.000000000076 Rises=F Damp=F
 DIIS: error= 1.19D-07 at cycle  10 NSaved=  10.
 NSaved=10 IEnMin=10 EnMin= -152.105289851241     IErMin=10 ErrMin= 1.19D-07
 ErrMax= 1.19D-07  0.00D+00 EMaxC= 1.00D-01 BMatC= 8.72D-13 BMatP= 3.25D-11
 IDIUse=1 WtCom= 1.00D+00 WtEn= 0.00D+00
 Coeff-Com: -0.113D-05 0.689D-05 0.248D-04 0.135D-04-0.777D-03-0.312D-03
 Coeff-Com:  0.644D-02 0.143D-01-0.211D+00 0.119D+01
 Coeff:     -0.113D-05 0.689D-05 0.248D-04 0.135D-04-0.777D-03-0.312D-03
 Coeff:      0.644D-02 0.143D-01-0.211D+00 0.119D+01
 Gap=     0.572 Goal=   None    Shift=    0.000
 RMSDP=1.02D-08 MaxDP=1.54D-07 DE=-7.63D-11 OVMax= 7.37D-07

 Cycle  11  Pass 1  IDiag  1:
 E= -152.105289851243     Delta-E=       -0.000000000002 Rises=F Damp=F
 DIIS: error= 2.20D-08 at cycle  11 NSaved=  11.
 NSaved=11 IEnMin=11 EnMin= -152.105289851243     IErMin=11 ErrMin= 2.20D-08
 ErrMax= 2.20D-08  0.00D+00 EMaxC= 1.00D-01 BMatC= 5.02D-14 BMatP= 8.72D-13
 IDIUse=1 WtCom= 1.00D+00 WtEn= 0.00D+00
 Coeff-Com:  0.662D-07-0.182D-05-0.914D-05 0.101D-03-0.227D-03-0.494D-03
 Coeff-Com:  0.351D-03 0.128D-01-0.281D-01-0.243D+00 0.126D+01
 Coeff:      0.662D-07-0.182D-05-0.914D-05 0.101D-03-0.227D-03-0.494D-03
 Coeff:      0.351D-03 0.128D-01-0.281D-01-0.243D+00 0.126D+01
 Gap=     0.572 Goal=   None    Shift=    0.000
 RMSDP=2.84D-09 MaxDP=6.18D-08 DE=-1.65D-12 OVMax= 1.72D-07

 SCF Done:  E(RHF) =  -152.105289851     A.U. after   11 cycles
            NFock= 11  Conv=0.28D-08     -V/T= 2.0015
 KE= 1.518818887749D+02 PE=-4.384786690452D+02 EE= 9.597798594753D+01
 Leave Link  502 at Fri Aug 26 19:49:01 2022, MaxMem=   536870912 cpu:               4.5 elap:               1.2
 (Enter /usr/site/hpc/x86_64/glibc-2.17/broadwell/gaussian/g16_a.03/pgi-16.5/g16/l801.exe)
 Windowed orbitals will be sorted by symmetry type.
 ExpMin= 1.03D-01 ExpMax= 1.53D+04 ExpMxC= 5.22D+02 IAcc=3 IRadAn=         5 AccDes= 0.00D+00
 HarFok:  IExCor=  205 AccDes= 0.00D+00 IRadAn=         5 IDoV=-2 UseB2=F ITyADJ=14
 ICtDFT= 12500011 ScaDFX=  1.000000  1.000000  1.000000  1.000000
 Largest valence mixing into a core orbital is  1.11D-04
 Largest core mixing into a valence orbital is  1.78D-05
 Range of M.O.s used for correlation:     3   116
 NBasis=   116 NAE=    10 NBE=    10 NFC=     2 NFV=     0
 NROrb=    114 NOA=     8 NOB=     8 NVA=   106 NVB=   106
 Leave Link  801 at Fri Aug 26 19:49:01 2022, MaxMem=   536870912 cpu:               0.3 elap:               0.1
 (Enter /usr/site/hpc/x86_64/glibc-2.17/broadwell/gaussian/g16_a.03/pgi-16.5/g16/l804.exe)
 Closed-shell transformation, MDV=   536870912 ITran=4 ISComp=2.
 Unit  1 TFree=        834515 TCopy=        406125.
 Semi-Direct transformation.
 ModeAB=           2 MOrb=             8 LenV=     536361205
 LASXX=      2873146 LTotXX=     2873146 LenRXX=     2873146
 LTotAB=     2958132 MaxLAS=     7765680 LenRXY=     7765680
 NonZer=     7924368 LenScr=    12058624 LnRSAI=           0
 LnScr1=           0 LExtra=           0 Total=     22697450
 MaxDsk=          -1 SrtSym=           F ITran=            4
 DoSDTr:  NPSUse=  4
 JobTyp=0 Pass  1:  I=   1 to   8.
 (rs|ai) integrals will be sorted in core.
 Complete sort for first half transformation.
 First half transformation complete.
 Complete sort for second half transformation.
 Second half transformation complete.
 Spin components of T(2) and E(2):
     alpha-alpha T2 =       0.1592981109D-01 E2=     -0.6520863580D-01
     alpha-beta  T2 =       0.9190793256D-01 E2=     -0.4004666284D+00
     beta-beta   T2 =       0.1592981109D-01 E2=     -0.6520863580D-01
 ANorm=    0.1060079032D+01
 E2 =    -0.5308839000D+00 EUMP2 =    -0.15263617375128D+03
 Leave Link  804 at Fri Aug 26 19:49:02 2022, MaxMem=   536870912 cpu:               4.8 elap:               1.2
 (Enter /usr/site/hpc/x86_64/glibc-2.17/broadwell/gaussian/g16_a.03/pgi-16.5/g16/l913.exe)
 CIDS:  MDV=   536870912.
 Frozen-core window:  NFC=   2 NFV=   0.
 IFCWin=0 IBDFC=1 NFBD=     0     0 NFCmp=     0     0 NFFFC=     0     0
 Using DD3R+UMP44R for 1st iteration.
 Using DD4RQ for 2nd and later iterations.
 Keep R2 and R3 ints in memory in symmetry-blocked form, NReq=35357534.
 FoFCou: FMM=F IPFlag=           0 FMFlag=           0 FMFlg1=           0
         NFxFlg=           0 DoJE=F BraDBF=F KetDBF=F FulRan=T
         wScrn=  0.000000 ICntrl=       600 IOpCl=  0 I1Cent=           0 NGrid=           0
         NMat0=    1 NMatS0=   6786 NMatT0=    0 NMatD0=    1 NMtDS0=    0 NMtDT0=    0
 Petite list used in FoFCou.
 CIDS: In Core Option IDoMem=           1.
 CCSD(T)
 =======
 Iterations=  50 Convergence= 0.100D-06
 Produce multiple copies of IABC intergrals
 Iteration Nr.   1
 **********************
 DD1Dir will call FoFMem   1 times, MxPair=        72
 NAB=    36 NAA=     0 NBB=     0.
 MP4(R+Q)=  0.79609567D-02
 Maximum subspace dimension=  5
 A-vector RMS=  1.9047636D-03 Max=  7.0732264D-03 conv= 1.00D-05.
 RLE energy=       -0.5294997542
 E3=       -0.66364700D-02        EUMP3=      -0.15264281022D+03
 E4(DQ)=   -0.10452379D-02        UMP4(DQ)=   -0.15264385546D+03
 E4(SDQ)=  -0.42973808D-02        UMP4(SDQ)=  -0.15264710760D+03
 VARIATIONAL ENERGIES WITH THE FIRST-ORDER WAVEFUNCTION:
 DE(Corr)= -0.52949614     E(Corr)=     -152.63478599    
 NORM(A)=   0.10600526D+01
 Iteration Nr.   2
 **********************
 DD1Dir will call FoFMem   1 times, MxPair=        72
 NAB=    36 NAA=     0 NBB=     0.
 A-vector RMS=  2.1078550D-04 Max=  1.7256287D-03 conv= 1.00D-05.
 RLE energy=       -0.5405579094
 DE(Corr)= -0.53954015     E(CORR)=     -152.64483000     Delta=-1.00D-02
 NORM(A)=   0.10637682D+01
 Iteration Nr.   3
 **********************
 DD1Dir will call FoFMem   1 times, MxPair=        72
 NAB=    36 NAA=     0 NBB=     0.
 A-vector RMS=  1.9303298D-04 Max=  1.6791569D-03 conv= 1.00D-05.
 RLE energy=       -0.5410409064
 DE(Corr)= -0.54044748     E(CORR)=     -152.64573733     Delta=-9.07D-04
 NORM(A)=   0.10643874D+01
 Iteration Nr.   4
 **********************
 DD1Dir will call FoFMem   1 times, MxPair=        72
 NAB=    36 NAA=     0 NBB=     0.
 A-vector RMS=  3.8794198D-05 Max=  3.4316144D-04 conv= 1.00D-05.
 RLE energy=       -0.5411134299
 DE(Corr)= -0.54108064     E(CORR)=     -152.64637049     Delta=-6.33D-04
 NORM(A)=   0.10645038D+01
 Iteration Nr.   5
 **********************
 DD1Dir will call FoFMem   1 times, MxPair=        72
 NAB=    36 NAA=     0 NBB=     0.
 A-vector RMS=  2.6251801D-05 Max=  3.2837492D-04 conv= 1.00D-05.
 RLE energy=       -0.5411306712
 DE(Corr)= -0.54112255     E(CORR)=     -152.64641240     Delta=-4.19D-05
 NORM(A)=   0.10645227D+01
 Iteration Nr.   6
 **********************
 DD1Dir will call FoFMem   1 times, MxPair=        72
 NAB=    36 NAA=     0 NBB=     0.
 A-vector RMS=  6.4960298D-06 Max=  6.7921112D-05 conv= 1.00D-05.
 RLE energy=       -0.5411260445
 DE(Corr)= -0.54112704     E(CORR)=     -152.64641689     Delta=-4.49D-06
 NORM(A)=   0.10645232D+01
 Iteration Nr.   7
 **********************
 DD1Dir will call FoFMem   1 times, MxPair=        72
 NAB=    36 NAA=     0 NBB=     0.
 A-vector RMS=  3.4290846D-06 Max=  3.8388887D-05 conv= 1.00D-05.
 RLE energy=       -0.5411248131
 DE(Corr)= -0.54112733     E(CORR)=     -152.64641718     Delta=-2.90D-07
 NORM(A)=   0.10645239D+01
 Iteration Nr.   8
 **********************
 DD1Dir will call FoFMem   1 times, MxPair=        72
 NAB=    36 NAA=     0 NBB=     0.
 A-vector RMS=  1.4884264D-06 Max=  1.5331640D-05 conv= 1.00D-05.
 RLE energy=       -0.5411266596
 DE(Corr)= -0.54112698     E(CORR)=     -152.64641683     Delta= 3.54D-07
 NORM(A)=   0.10645248D+01
 Iteration Nr.   9
 **********************
 DD1Dir will call FoFMem   1 times, MxPair=        72
 NAB=    36 NAA=     0 NBB=     0.
 A-vector RMS=  3.5559185D-07 Max=  3.5981476D-06 conv= 1.00D-05.
 RLE energy=       -0.5411268436
 DE(Corr)= -0.54112691     E(CORR)=     -152.64641676     Delta= 6.71D-08
 NORM(A)=   0.10645252D+01
 CI/CC converged in    9 iterations to DelEn= 6.71D-08 Conv= 1.00D-07 ErrA1= 3.56D-07 Conv= 1.00D-05
 Wavefunction amplitudes converged. E(Corr)=     -152.64641676    
 Largest amplitude= 3.48D-02
 IPart=  4 IA=    7   11.05% done.
 IPart=  2 IA=   13   21.46% done.
 IPart=  3 IA=   19   31.21% done.
 IPart=  2 IA=   25   40.32% done.
 IPart=  2 IA=   32   50.13% done.
 IPart=  2 IA=   40   60.27% done.
 IPart=  1 IA=   49   70.30% done.
 IPart=  1 IA=   60   80.58% done.
 IPart=  4 IA=   74   90.51% done.
 Time for triples=       49.31 seconds.
 T4(CCSD)= -0.16822908D-01
 T5(CCSD)=  0.43522486D-03
 CCSD(T)= -0.15266280445D+03
 Discarding MO integrals.
 Leave Link  913 at Fri Aug 26 19:49:20 2022, MaxMem=   536870912 cpu:              69.4 elap:              17.5
 (Enter /usr/site/hpc/x86_64/glibc-2.17/broadwell/gaussian/g16_a.03/pgi-16.5/g16/l601.exe)
 Copying SCF densities to generalized density rwf, IOpCl= 0 IROHF=0.

 **********************************************************************

            Population analysis using the SCF density.

 **********************************************************************

 Orbital symmetries:
       Occupied  (A') (A') (A') (A') (A') (A') (A') (A") (A') (A")
       Virtual   (A') (A') (A') (A') (A') (A') (A') (A') (A') (A")
                 (A') (A') (A") (A") (A') (A") (A') (A") (A') (A')
                 (A") (A') (A') (A') (A') (A') (A') (A') (A") (A")
                 (A") (A') (A') (A') (A") (A') (A') (A') (A') (A')
                 (A') (A') (A") (A") (A') (A") (A') (A') (A") (A')
                 (A") (A') (A") (A') (A") (A') (A") (A") (A') (A")
                 (A') (A') (A') (A") (A') (A') (A") (A') (A') (A")
                 (A') (A") (A') (A') (A') (A') (A') (A') (A') (A')
                 (A") (A") (A') (A') (A") (A") (A") (A") (A') (A")
                 (A') (A') (A") (A') (A") (A") (A') (A') (A') (A')
                 (A') (A') (A') (A') (A') (A')
 The electronic state is 1-A'.
 Alpha  occ. eigenvalues --  -20.59598 -20.50784  -1.37637  -1.28771  -0.75227
 Alpha  occ. eigenvalues --   -0.68959  -0.59415  -0.54420  -0.51443  -0.45787
 Alpha virt. eigenvalues --    0.11367   0.16961   0.20047   0.32750   0.48180
 Alpha virt. eigenvalues --    0.53711   0.59374   0.61978   0.70447   0.72178
 Alpha virt. eigenvalues --    0.73984   0.77740   0.80240   0.83485   0.84016
 Alpha virt. eigenvalues --    0.86301   0.91680   0.96753   1.04179   1.11431
 Alpha virt. eigenvalues --    1.13434   1.20755   1.28628   1.39873   1.50124
 Alpha virt. eigenvalues --    1.54468   1.58128   1.89379   1.90544   2.01418
 Alpha virt. eigenvalues --    2.06738   2.08908   2.17222   2.21709   2.25648
 Alpha virt. eigenvalues --    2.26669   2.30861   2.50587   2.59626   2.73947
 Alpha virt. eigenvalues --    2.98652   3.18857   3.34807   3.42443   3.50189
 Alpha virt. eigenvalues --    3.50757   3.51458   3.56347   3.56873   3.65018
 Alpha virt. eigenvalues --    3.72420   3.77498   3.85412   3.85968   3.90611
 Alpha virt. eigenvalues --    3.92277   3.96652   4.02596   4.07127   4.09101
 Alpha virt. eigenvalues --    4.12645   4.14267   4.18344   4.22317   4.25871
 Alpha virt. eigenvalues --    4.38777   4.44039   4.55547   4.58438   4.65322
 Alpha virt. eigenvalues --    4.70822   4.76100   4.82705   4.92491   5.03867
 Alpha virt. eigenvalues --    5.20766   5.37009   5.48367   5.61188   5.70082
 Alpha virt. eigenvalues --    5.93690   6.03221   6.45752   6.52841   6.77183
 Alpha virt. eigenvalues --    6.83979   6.91822   6.92671   7.01017   7.03302
 Alpha virt. eigenvalues --    7.06228   7.10102   7.11821   7.14557   7.16764
 Alpha virt. eigenvalues --    7.27095   7.29633   7.40508   7.55002   7.60052
 Alpha virt. eigenvalues --    7.71809   7.86108   8.18249   8.49148  12.79189
 Alpha virt. eigenvalues --   13.09814
          Condensed to atoms (all electrons):
               1          2          3          4          5          6
     1  O    7.891508   0.372515   0.342881  -0.035085   0.001492   0.004789
     2  H    0.372515   0.337110  -0.043250   0.040382  -0.003423  -0.004891
     3  H    0.342881  -0.043250   0.471869   0.001653  -0.000028   0.001412
     4  O   -0.035085   0.040382   0.001653   7.820306   0.302741   0.303932
     5  H    0.001492  -0.003423  -0.000028   0.302741   0.472506  -0.015372
     6  H    0.004789  -0.004891   0.001412   0.303932  -0.015372   0.467204
 Mulliken charges:
               1
     1  O   -0.578101
     2  H    0.301557
     3  H    0.225463
     4  O   -0.433929
     5  H    0.242085
     6  H    0.242926
 Sum of Mulliken charges =  -0.00000
 Mulliken charges with hydrogens summed into heavy atoms:
               1
     1  O   -0.051082
     4  O    0.051082
 Electronic spatial extent (au):  <R**2>=            160.1632
 Charge=              0.0000 electrons
 Dipole moment (field-independent basis, Debye):
    X=             -2.3798    Y=             -3.7801    Z=             -0.0000  Tot=              4.4668
 Quadrupole moment (field-independent basis, Debye-Ang):
   XX=             -9.8373   YY=             -9.1291   ZZ=            -14.6843
   XY=             -2.8533   XZ=             -0.0000   YZ=             -0.0000
 Traceless Quadrupole moment (field-independent basis, Debye-Ang):
   XX=              1.3796   YY=              2.0878   ZZ=             -3.4674
   XY=             -2.8533   XZ=             -0.0000   YZ=             -0.0000
 Octapole moment (field-independent basis, Debye-Ang**2):
  XXX=             -3.2667  YYY=            -18.6274  ZZZ=             -0.0000  XYY=             -3.8410
  XXY=             -2.0264  XXZ=             -0.0000  XZZ=             -0.2957  YZZ=             -0.7704
  YYZ=             -0.0000  XYZ=             -0.0000
 Hexadecapole moment (field-independent basis, Debye-Ang**3):
 XXXX=            -11.5602 YYYY=           -115.1964 ZZZZ=            -11.3412 XXXY=              0.4709
 XXXZ=             -0.0000 YYYX=            -14.9496 YYYZ=             -0.0000 ZZZX=             -0.0000
 ZZZY=             -0.0000 XXYY=            -18.2768 XXZZ=             -4.4279 YYZZ=            -29.4840
 XXYZ=             -0.0000 YYXZ=             -0.0000 ZZXY=              0.4337
 N-N= 3.851350447153D+01 E-N=-4.384786684417D+02  KE= 1.518818887749D+02
 Symmetry A'   KE= 1.428759635139D+02
 Symmetry A"   KE= 9.005925261026D+00
 Leave Link  601 at Fri Aug 26 19:49:20 2022, MaxMem=   536870912 cpu:               0.2 elap:               0.0
 (Enter /usr/site/hpc/x86_64/glibc-2.17/broadwell/gaussian/g16_a.03/pgi-16.5/g16/l9999.exe)
 1\1\GINC-N041\SP\RCCSD(T)-FC\CC-pVTZ\H4O2\C7441284\26-Aug-2022\0\\#p C
 CSD(T)/cc-pVTZ\\H2O_H2O_682\\0,1\O,0,0.,-0.009833,0.\H,0,-0.799571,-0.
 580965,0.\H,0,0.799571,-0.580965,0.\O,0,-2.103314,-1.508105,0.\H,0,-3.
 073033,-1.666696,0.\H,0,-1.638806,-2.373979,0.\\Version=ES64L-G16RevA.
 03\State=1-A'\HF=-152.1052899\MP2=-152.6361738\MP3=-152.6428102\MP4D=-
 152.6518164\MP4DQ=-152.6438555\MP4SDQ=-152.6471076\CCSD=-152.6464168\C
 CSD(T)=-152.6628044\RMSD=2.839e-09\PG=CS [SG(H4O2)]\\@


 IT IS A PROFOUNDLY ERRONEOUS TRUISM ... THAT WE SHOULD CULTIVATE
 THE HABIT OF THINKING OF WHAT WE ARE DOING.
 THE PRECISE OPPOSITE IS THE CASE.
 CIVILIZATION ADVANCES BY EXTENDING THE NUMBER OF IMPORTANT OPERATIONS
 WHICH WE CAN PERFORM WITHOUT THINKING ABOUT THEM.

                                    -- ALFRED NORTH WHITEHEAD
 Job cpu time:       0 days  0 hours  1 minutes 22.2 seconds.
 Elapsed time:       0 days  0 hours  0 minutes 20.8 seconds.
 File lengths (MBytes):  RWF=    572 Int=      0 D2E=      0 Chk=      8 Scr=      8
 Normal termination of Gaussian 16 at Fri Aug 26 19:49:20 2022.
