 Entering Gaussian System, Link 0=g16
 Input=H2O.com
 Output=H2O.log
 Initial command:
 /usr/site/hpc/x86_64/glibc-2.17/broadwell/gaussian/g16_a.03/pgi-16.5/g16/l1.exe "/gpfs/gpfs1/scratch/c7441284/ForceFieldModel/FittingData/Gau-953730.inp" -scrdir="/gpfs/gpfs1/scratch/c7441284/ForceFieldModel/FittingData/"
 Entering Link 1 = /usr/site/hpc/x86_64/glibc-2.17/broadwell/gaussian/g16_a.03/pgi-16.5/g16/l1.exe PID=    953731.
  
 Copyright (c) 1988,1990,1992,1993,1995,1998,2003,2009,2016,
            Gaussian, Inc.  All Rights Reserved.
  
 This is part of the Gaussian(R) 16 program.  It is based on
 the Gaussian(R) 09 system (copyright 2009, Gaussian, Inc.),
 the Gaussian(R) 03 system (copyright 2003, Gaussian, Inc.),
 the Gaussian(R) 98 system (copyright 1998, Gaussian, Inc.),
 the Gaussian(R) 94 system (copyright 1995, Gaussian, Inc.),
 the Gaussian 92(TM) system (copyright 1992, Gaussian, Inc.),
 the Gaussian 90(TM) system (copyright 1990, Gaussian, Inc.),
 the Gaussian 88(TM) system (copyright 1988, Gaussian, Inc.),
 the Gaussian 86(TM) system (copyright 1986, Carnegie Mellon
 University), and the Gaussian 82(TM) system (copyright 1983,
 Carnegie Mellon University). Gaussian is a federally registered
 trademark of Gaussian, Inc.
  
 This software contains proprietary and confidential information,
 including trade secrets, belonging to Gaussian, Inc.
  
 This software is provided under written license and may be
 used, copied, transmitted, or stored only in accord with that
 written license.
  
 The following legend is applicable only to US Government
 contracts under FAR:
  
                    RESTRICTED RIGHTS LEGEND
  
 Use, reproduction and disclosure by the US Government is
 subject to restrictions as set forth in subparagraphs (a)
 and (c) of the Commercial Computer Software - Restricted
 Rights clause in FAR 52.227-19.
  
 Gaussian, Inc.
 340 Quinnipiac St., Bldg. 40, Wallingford CT 06492
  
  
 ---------------------------------------------------------------
 Warning -- This program may not be used in any manner that
 competes with the business of Gaussian, Inc. or will provide
 assistance to any competitor of Gaussian, Inc.  The licensee
 of this program is prohibited from giving any competitor of
 Gaussian, Inc. access to this program.  By using this program,
 the user acknowledges that Gaussian, Inc. is engaged in the
 business of creating and licensing software in the field of
 computational chemistry and represents and warrants to the
 licensee that it is not a competitor of Gaussian, Inc. and that
 it will not use this program in any manner prohibited above.
 ---------------------------------------------------------------
  

 Cite this work as:
 Gaussian 16, Revision A.03,
 M. J. Frisch, G. W. Trucks, H. B. Schlegel, G. E. Scuseria, 
 M. A. Robb, J. R. Cheeseman, G. Scalmani, V. Barone, 
 G. A. Petersson, H. Nakatsuji, X. Li, M. Caricato, A. V. Marenich, 
 J. Bloino, B. G. Janesko, R. Gomperts, B. Mennucci, H. P. Hratchian, 
 J. V. Ortiz, A. F. Izmaylov, J. L. Sonnenberg, D. Williams-Young, 
 F. Ding, F. Lipparini, F. Egidi, J. Goings, B. Peng, A. Petrone, 
 T. Henderson, D. Ranasinghe, V. G. Zakrzewski, J. Gao, N. Rega, 
 G. Zheng, W. Liang, M. Hada, M. Ehara, K. Toyota, R. Fukuda, 
 J. Hasegawa, M. Ishida, T. Nakajima, Y. Honda, O. Kitao, H. Nakai, 
 T. Vreven, K. Throssell, J. A. Montgomery, Jr., J. E. Peralta, 
 F. Ogliaro, M. J. Bearpark, J. J. Heyd, E. N. Brothers, K. N. Kudin, 
 V. N. Staroverov, T. A. Keith, R. Kobayashi, J. Normand, 
 K. Raghavachari, A. P. Rendell, J. C. Burant, S. S. Iyengar, 
 J. Tomasi, M. Cossi, J. M. Millam, M. Klene, C. Adamo, R. Cammi, 
 J. W. Ochterski, R. L. Martin, K. Morokuma, O. Farkas, 
 J. B. Foresman, and D. J. Fox, Gaussian, Inc., Wallingford CT, 2016.
 
 ******************************************
 Gaussian 16:  ES64L-G16RevA.03 25-Dec-2016
                28-Aug-2022 
 ******************************************
 %NProcShared=4
 Will use up to    4 processors via shared memory.
 %Mem=4GB
 %Chk=H2O.chk
 ------------------
 #p CCSD(T)/cc-pVTZ
 ------------------
 1/38=1,172=1/1;
 2/12=2,17=6,18=5,40=1/2;
 3/5=16,6=1,11=9,25=1,30=1/1,2,3;
 4//1;
 5/5=2,38=5/2;
 8/6=4,9=120000,10=1/1,4;
 9/5=7,14=2/13;
 6/7=2,8=2,9=2,10=2/1;
 99/5=1,9=1/99;
 Leave Link    1 at Sun Aug 28 13:29:52 2022, MaxMem=   536870912 cpu:               0.3 elap:               0.1
 (Enter /usr/site/hpc/x86_64/glibc-2.17/broadwell/gaussian/g16_a.03/pgi-16.5/g16/l101.exe)
 ---
 H2O
 ---
 Symbolic Z-matrix:
 Charge =  0 Multiplicity = 1
 O                     0.       -0.00983   0. 
 H                    -0.79957  -0.58097   0. 
 H                     0.79957  -0.58097   0. 
 
 ITRead=  0  0  0
 MicOpt= -1 -1 -1
 NAtoms=      3 NQM=        3 NQMF=       0 NMMI=      0 NMMIF=      0
                NMic=       0 NMicF=      0.
                    Isotopes and Nuclear Properties:
 (Nuclear quadrupole moments (NQMom) in fm**2, nuclear magnetic moments (NMagM)
  in nuclear magnetons)

  Atom         1           2           3
 IAtWgt=          16           1           1
 AtmWgt=  15.9949146   1.0078250   1.0078250
 NucSpn=           0           1           1
 AtZEff=  -0.0000000  -0.0000000  -0.0000000
 NQMom=    0.0000000   0.0000000   0.0000000
 NMagM=    0.0000000   2.7928460   2.7928460
 AtZNuc=   8.0000000   1.0000000   1.0000000
 Leave Link  101 at Sun Aug 28 13:29:52 2022, MaxMem=   536870912 cpu:               0.7 elap:               0.2
 (Enter /usr/site/hpc/x86_64/glibc-2.17/broadwell/gaussian/g16_a.03/pgi-16.5/g16/l202.exe)
                          Input orientation:                          
 ---------------------------------------------------------------------
 Center     Atomic      Atomic             Coordinates (Angstroms)
 Number     Number       Type             X           Y           Z
 ---------------------------------------------------------------------
      1          8           0        0.000000   -0.009833    0.000000
      2          1           0       -0.799571   -0.580965    0.000000
      3          1           0        0.799571   -0.580965    0.000000
 ---------------------------------------------------------------------
                    Distance matrix (angstroms):
                    1          2          3
     1  O    0.000000
     2  H    0.982601   0.000000
     3  H    0.982601   1.599142   0.000000
 Stoichiometry    H2O
 Framework group  C2V[C2(O),SGV(H2)]
 Deg. of freedom     2
 Full point group                 C2V     NOp   4
 Largest Abelian subgroup         C2V     NOp   4
 Largest concise Abelian subgroup C2      NOp   2
                         Standard orientation:                         
 ---------------------------------------------------------------------
 Center     Atomic      Atomic             Coordinates (Angstroms)
 Number     Number       Type             X           Y           Z
 ---------------------------------------------------------------------
      1          8           0        0.000000   -0.000000    0.114226
      2          1           0        0.000000    0.799571   -0.456906
      3          1           0       -0.000000   -0.799571   -0.456906
 ---------------------------------------------------------------------
 Rotational constants (GHZ):         865.5147557         392.1823031         269.8897703
 Leave Link  202 at Sun Aug 28 13:29:52 2022, MaxMem=   536870912 cpu:               0.1 elap:               0.0
 (Enter /usr/site/hpc/x86_64/glibc-2.17/broadwell/gaussian/g16_a.03/pgi-16.5/g16/l301.exe)
 Standard basis: CC-pVTZ (5D, 7F)
 Ernie: Thresh=  0.10000D-02 Tol=  0.10000D-05 Strict=F.
 Ernie:  3 primitive shells out of 42 were deleted.
 There are    27 symmetry adapted cartesian basis functions of A1  symmetry.
 There are     7 symmetry adapted cartesian basis functions of A2  symmetry.
 There are    12 symmetry adapted cartesian basis functions of B1  symmetry.
 There are    19 symmetry adapted cartesian basis functions of B2  symmetry.
 There are    23 symmetry adapted basis functions of A1  symmetry.
 There are     7 symmetry adapted basis functions of A2  symmetry.
 There are    11 symmetry adapted basis functions of B1  symmetry.
 There are    17 symmetry adapted basis functions of B2  symmetry.
    58 basis functions,    86 primitive gaussians,    65 cartesian basis functions
     5 alpha electrons        5 beta electrons
       nuclear repulsion energy         8.9476679021 Hartrees.
 IExCor=    0 DFT=F Ex=HF Corr=None ExCW=0 ScaHFX=  1.000000
 ScaDFX=  1.000000  1.000000  1.000000  1.000000 ScalE2=  1.000000  1.000000
 IRadAn=      5 IRanWt=     -1 IRanGd=            0 ICorTp=0 IEmpDi=  4
 NAtoms=    3 NActive=    3 NUniq=    2 SFac= 2.25D+00 NAtFMM=   60 NAOKFM=F Big=F
 Integral buffers will be    131072 words long.
 Raffenetti 1 integral format.
 Two-electron integral symmetry is turned on.
 Leave Link  301 at Sun Aug 28 13:29:52 2022, MaxMem=   536870912 cpu:               0.2 elap:               0.1
 (Enter /usr/site/hpc/x86_64/glibc-2.17/broadwell/gaussian/g16_a.03/pgi-16.5/g16/l302.exe)
 NPDir=0 NMtPBC=     1 NCelOv=     1 NCel=       1 NClECP=     1 NCelD=      1
         NCelK=      1 NCelE2=     1 NClLst=     1 CellRange=     0.0.
 One-electron integrals computed using PRISM.
 One-electron integral symmetry used in STVInt
 NBasis=    58 RedAO= T EigKep=  2.69D-03  NBF=    23     7    11    17
 NBsUse=    58 1.00D-06 EigRej= -1.00D+00 NBFU=    23     7    11    17
 Leave Link  302 at Sun Aug 28 13:29:53 2022, MaxMem=   536870912 cpu:               0.5 elap:               0.2
 (Enter /usr/site/hpc/x86_64/glibc-2.17/broadwell/gaussian/g16_a.03/pgi-16.5/g16/l303.exe)
 DipDrv:  MaxL=1.
 Leave Link  303 at Sun Aug 28 13:29:53 2022, MaxMem=   536870912 cpu:               0.2 elap:               0.2
 (Enter /usr/site/hpc/x86_64/glibc-2.17/broadwell/gaussian/g16_a.03/pgi-16.5/g16/l401.exe)
 ExpMin= 1.03D-01 ExpMax= 1.53D+04 ExpMxC= 5.22D+02 IAcc=3 IRadAn=         5 AccDes= 0.00D+00
 Harris functional with IExCor=  205 and IRadAn=       5 diagonalized for initial guess.
 HarFok:  IExCor=  205 AccDes= 0.00D+00 IRadAn=         5 IDoV= 1 UseB2=F ITyADJ=14
 ICtDFT=  3500011 ScaDFX=  1.000000  1.000000  1.000000  1.000000
 FoFCou: FMM=F IPFlag=           0 FMFlag=      100000 FMFlg1=           0
         NFxFlg=           0 DoJE=T BraDBF=F KetDBF=T FulRan=T
         wScrn=  0.000000 ICntrl=       500 IOpCl=  0 I1Cent=   200000004 NGrid=           0
         NMat0=    1 NMatS0=      1 NMatT0=    0 NMatD0=    1 NMtDS0=    0 NMtDT0=    0
 Petite list used in FoFCou.
 Harris En= -76.1493432137873    
 JPrj=0 DoOrth=F DoCkMO=F.
 Initial guess orbital symmetries:
       Occupied  (A1) (A1) (B2) (A1) (B1)
       Virtual   (A1) (B2) (B2) (A1) (A1) (B1) (B2) (A1) (A2) (B1)
                 (A1) (B2) (A1) (B2) (B1) (A2) (B2) (A1) (A1) (A1)
                 (B2) (B1) (A1) (A2) (B1) (B2) (B2) (A1) (A2) (A1)
                 (B2) (B1) (A2) (A1) (B2) (B1) (B2) (A1) (A1) (B2)
                 (B1) (A1) (B1) (A2) (A1) (B1) (A1) (B2) (A2) (A1)
                 (B2) (B2) (A1)
 The electronic state of the initial guess is 1-A1.
 Leave Link  401 at Sun Aug 28 13:29:53 2022, MaxMem=   536870912 cpu:               1.2 elap:               0.4
 (Enter /usr/site/hpc/x86_64/glibc-2.17/broadwell/gaussian/g16_a.03/pgi-16.5/g16/l502.exe)
 Keep R1 ints in memory in symmetry-blocked form, NReq=3431067.
 FoFCou: FMM=F IPFlag=           0 FMFlag=           0 FMFlg1=           0
         NFxFlg=           0 DoJE=F BraDBF=F KetDBF=F FulRan=T
         wScrn=  0.000000 ICntrl=       600 IOpCl=  0 I1Cent=           0 NGrid=           0
         NMat0=    1 NMatS0=   1711 NMatT0=    0 NMatD0=    1 NMtDS0=    0 NMtDT0=    0
 Petite list used in FoFCou.
 Closed shell SCF:
 Using DIIS extrapolation, IDIIS=  1040.
 NGot=   536870912 LenX=   536479022 LenY=   536474356
 Requested convergence on RMS density matrix=1.00D-08 within 128 cycles.
 Requested convergence on MAX density matrix=1.00D-06.
 Requested convergence on             energy=1.00D-06.
 No special actions if energy rises.

 Cycle   1  Pass 1  IDiag  1:
 E= -75.9635618612602    
 DIIS: error= 6.59D-02 at cycle   1 NSaved=   1.
 NSaved= 1 IEnMin= 1 EnMin= -75.9635618612602     IErMin= 1 ErrMin= 6.59D-02
 ErrMax= 6.59D-02  0.00D+00 EMaxC= 1.00D-01 BMatC= 2.00D-01 BMatP= 2.00D-01
 IDIUse=3 WtCom= 3.41D-01 WtEn= 6.59D-01
 Coeff-Com:  0.100D+01
 Coeff-En:   0.100D+01
 Coeff:      0.100D+01
 Gap=     0.523 Goal=   None    Shift=    0.000
 GapD=    0.523 DampG=2.000 DampE=0.500 DampFc=1.0000 IDamp=-1.
 RMSDP=3.54D-03 MaxDP=6.64D-02              OVMax= 1.27D-01

 Cycle   2  Pass 1  IDiag  1:
 E= -76.0194664255414     Delta-E=       -0.055904564281 Rises=F Damp=F
 DIIS: error= 4.15D-02 at cycle   2 NSaved=   2.
 NSaved= 2 IEnMin= 2 EnMin= -76.0194664255414     IErMin= 2 ErrMin= 4.15D-02
 ErrMax= 4.15D-02  0.00D+00 EMaxC= 1.00D-01 BMatC= 5.64D-02 BMatP= 2.00D-01
 IDIUse=3 WtCom= 5.85D-01 WtEn= 4.15D-01
 Coeff-Com:  0.320D+00 0.680D+00
 Coeff-En:   0.166D+00 0.834D+00
 Coeff:      0.256D+00 0.744D+00
 Gap=     0.665 Goal=   None    Shift=    0.000
 RMSDP=1.87D-03 MaxDP=3.96D-02 DE=-5.59D-02 OVMax= 5.72D-02

 Cycle   3  Pass 1  IDiag  1:
 E= -76.0518604382486     Delta-E=       -0.032394012707 Rises=F Damp=F
 DIIS: error= 8.98D-03 at cycle   3 NSaved=   3.
 NSaved= 3 IEnMin= 3 EnMin= -76.0518604382486     IErMin= 3 ErrMin= 8.98D-03
 ErrMax= 8.98D-03  0.00D+00 EMaxC= 1.00D-01 BMatC= 2.99D-03 BMatP= 5.64D-02
 IDIUse=3 WtCom= 9.10D-01 WtEn= 8.98D-02
 Coeff-Com: -0.304D-01 0.155D+00 0.875D+00
 Coeff-En:   0.000D+00 0.000D+00 0.100D+01
 Coeff:     -0.277D-01 0.142D+00 0.886D+00
 Gap=     0.638 Goal=   None    Shift=    0.000
 RMSDP=3.44D-04 MaxDP=5.69D-03 DE=-3.24D-02 OVMax= 1.34D-02

 Cycle   4  Pass 1  IDiag  1:
 E= -76.0537240570018     Delta-E=       -0.001863618753 Rises=F Damp=F
 DIIS: error= 8.58D-04 at cycle   4 NSaved=   4.
 NSaved= 4 IEnMin= 4 EnMin= -76.0537240570018     IErMin= 4 ErrMin= 8.58D-04
 ErrMax= 8.58D-04  0.00D+00 EMaxC= 1.00D-01 BMatC= 1.88D-05 BMatP= 2.99D-03
 IDIUse=3 WtCom= 9.91D-01 WtEn= 8.58D-03
 Coeff-Com:  0.680D-02-0.613D-01-0.239D+00 0.129D+01
 Coeff-En:   0.000D+00 0.000D+00 0.000D+00 0.100D+01
 Coeff:      0.674D-02-0.607D-01-0.237D+00 0.129D+01
 Gap=     0.640 Goal=   None    Shift=    0.000
 RMSDP=7.33D-05 MaxDP=1.03D-03 DE=-1.86D-03 OVMax= 2.23D-03

 Cycle   5  Pass 1  IDiag  1:
 E= -76.0537492745018     Delta-E=       -0.000025217500 Rises=F Damp=F
 DIIS: error= 1.94D-04 at cycle   5 NSaved=   5.
 NSaved= 5 IEnMin= 5 EnMin= -76.0537492745018     IErMin= 5 ErrMin= 1.94D-04
 ErrMax= 1.94D-04  0.00D+00 EMaxC= 1.00D-01 BMatC= 6.80D-07 BMatP= 1.88D-05
 IDIUse=3 WtCom= 9.98D-01 WtEn= 1.94D-03
 Coeff-Com:  0.542D-03 0.456D-03-0.290D-02-0.221D+00 0.122D+01
 Coeff-En:   0.000D+00 0.000D+00 0.000D+00 0.000D+00 0.100D+01
 Coeff:      0.541D-03 0.455D-03-0.290D-02-0.220D+00 0.122D+01
 Gap=     0.641 Goal=   None    Shift=    0.000
 RMSDP=2.00D-05 MaxDP=2.89D-04 DE=-2.52D-05 OVMax= 6.87D-04

 Cycle   6  Pass 1  IDiag  1:
 E= -76.0537506921190     Delta-E=       -0.000001417617 Rises=F Damp=F
 DIIS: error= 2.82D-05 at cycle   6 NSaved=   6.
 NSaved= 6 IEnMin= 6 EnMin= -76.0537506921190     IErMin= 6 ErrMin= 2.82D-05
 ErrMax= 2.82D-05  0.00D+00 EMaxC= 1.00D-01 BMatC= 1.68D-08 BMatP= 6.80D-07
 IDIUse=1 WtCom= 1.00D+00 WtEn= 0.00D+00
 Coeff-Com: -0.272D-03 0.156D-02 0.670D-02 0.232D-02-0.264D+00 0.125D+01
 Coeff:     -0.272D-03 0.156D-02 0.670D-02 0.232D-02-0.264D+00 0.125D+01
 Gap=     0.641 Goal=   None    Shift=    0.000
 RMSDP=4.25D-06 MaxDP=6.47D-05 DE=-1.42D-06 OVMax= 1.52D-04

 Cycle   7  Pass 1  IDiag  1:
 E= -76.0537507398766     Delta-E=       -0.000000047758 Rises=F Damp=F
 DIIS: error= 5.34D-06 at cycle   7 NSaved=   7.
 NSaved= 7 IEnMin= 7 EnMin= -76.0537507398766     IErMin= 7 ErrMin= 5.34D-06
 ErrMax= 5.34D-06  0.00D+00 EMaxC= 1.00D-01 BMatC= 8.65D-10 BMatP= 1.68D-08
 IDIUse=1 WtCom= 1.00D+00 WtEn= 0.00D+00
 Coeff-Com:  0.318D-04-0.396D-03-0.158D-02 0.135D-01-0.113D-01-0.230D+00
 Coeff-Com:  0.123D+01
 Coeff:      0.318D-04-0.396D-03-0.158D-02 0.135D-01-0.113D-01-0.230D+00
 Coeff:      0.123D+01
 Gap=     0.641 Goal=   None    Shift=    0.000
 RMSDP=6.17D-07 MaxDP=9.50D-06 DE=-4.78D-08 OVMax= 2.89D-05

 Cycle   8  Pass 1  IDiag  1:
 E= -76.0537507417330     Delta-E=       -0.000000001856 Rises=F Damp=F
 DIIS: error= 1.60D-06 at cycle   8 NSaved=   8.
 NSaved= 8 IEnMin= 8 EnMin= -76.0537507417330     IErMin= 8 ErrMin= 1.60D-06
 ErrMax= 1.60D-06  0.00D+00 EMaxC= 1.00D-01 BMatC= 4.62D-11 BMatP= 8.65D-10
 IDIUse=1 WtCom= 1.00D+00 WtEn= 0.00D+00
 Coeff-Com:  0.358D-05 0.570D-04 0.242D-03-0.543D-02 0.199D-01 0.138D-01
 Coeff-Com: -0.428D+00 0.140D+01
 Coeff:      0.358D-05 0.570D-04 0.242D-03-0.543D-02 0.199D-01 0.138D-01
 Coeff:     -0.428D+00 0.140D+01
 Gap=     0.641 Goal=   None    Shift=    0.000
 RMSDP=1.61D-07 MaxDP=2.31D-06 DE=-1.86D-09 OVMax= 6.31D-06

 Cycle   9  Pass 1  IDiag  1:
 E= -76.0537507418416     Delta-E=       -0.000000000109 Rises=F Damp=F
 DIIS: error= 1.91D-07 at cycle   9 NSaved=   9.
 NSaved= 9 IEnMin= 9 EnMin= -76.0537507418416     IErMin= 9 ErrMin= 1.91D-07
 ErrMax= 1.91D-07  0.00D+00 EMaxC= 1.00D-01 BMatC= 7.18D-13 BMatP= 4.62D-11
 IDIUse=1 WtCom= 1.00D+00 WtEn= 0.00D+00
 Coeff-Com: -0.138D-05-0.686D-05-0.352D-04 0.108D-02-0.399D-02-0.294D-02
 Coeff-Com:  0.101D+00-0.402D+00 0.131D+01
 Coeff:     -0.138D-05-0.686D-05-0.352D-04 0.108D-02-0.399D-02-0.294D-02
 Coeff:      0.101D+00-0.402D+00 0.131D+01
 Gap=     0.641 Goal=   None    Shift=    0.000
 RMSDP=1.92D-08 MaxDP=3.00D-07 DE=-1.09D-10 OVMax= 7.06D-07

 Cycle  10  Pass 1  IDiag  1:
 E= -76.0537507418434     Delta-E=       -0.000000000002 Rises=F Damp=F
 DIIS: error= 3.40D-08 at cycle  10 NSaved=  10.
 NSaved=10 IEnMin=10 EnMin= -76.0537507418434     IErMin=10 ErrMin= 3.40D-08
 ErrMax= 3.40D-08  0.00D+00 EMaxC= 1.00D-01 BMatC= 2.47D-14 BMatP= 7.18D-13
 IDIUse=1 WtCom= 1.00D+00 WtEn= 0.00D+00
 Coeff-Com:  0.419D-06 0.112D-06 0.262D-05-0.205D-03 0.803D-03 0.157D-03
 Coeff-Com: -0.191D-01 0.873D-01-0.435D+00 0.137D+01
 Coeff:      0.419D-06 0.112D-06 0.262D-05-0.205D-03 0.803D-03 0.157D-03
 Coeff:     -0.191D-01 0.873D-01-0.435D+00 0.137D+01
 Gap=     0.641 Goal=   None    Shift=    0.000
 RMSDP=7.63D-09 MaxDP=1.56D-07 DE=-1.88D-12 OVMax= 2.15D-07

 SCF Done:  E(RHF) =  -76.0537507418     A.U. after   10 cycles
            NFock= 10  Conv=0.76D-08     -V/T= 2.0020
 KE= 7.590222160667D+01 PE=-1.985937604381D+02 EE= 3.769012018755D+01
 Leave Link  502 at Sun Aug 28 13:29:54 2022, MaxMem=   536870912 cpu:               1.2 elap:               0.4
 (Enter /usr/site/hpc/x86_64/glibc-2.17/broadwell/gaussian/g16_a.03/pgi-16.5/g16/l801.exe)
 Windowed orbitals will be sorted by symmetry type.
 ExpMin= 1.03D-01 ExpMax= 1.53D+04 ExpMxC= 5.22D+02 IAcc=3 IRadAn=         5 AccDes= 0.00D+00
 HarFok:  IExCor=  205 AccDes= 0.00D+00 IRadAn=         5 IDoV=-2 UseB2=F ITyADJ=14
 ICtDFT= 12500011 ScaDFX=  1.000000  1.000000  1.000000  1.000000
 Largest valence mixing into a core orbital is  1.12D-04
 Largest core mixing into a valence orbital is  1.76D-05
 Range of M.O.s used for correlation:     2    58
 NBasis=    58 NAE=     5 NBE=     5 NFC=     1 NFV=     0
 NROrb=     57 NOA=     4 NOB=     4 NVA=    53 NVB=    53
 Leave Link  801 at Sun Aug 28 13:29:54 2022, MaxMem=   536870912 cpu:               0.5 elap:               0.2
 (Enter /usr/site/hpc/x86_64/glibc-2.17/broadwell/gaussian/g16_a.03/pgi-16.5/g16/l804.exe)
 Closed-shell transformation, MDV=   536870912 ITran=4 ISComp=2.
 Unit  1 TFree=        984435 TCopy=        256795.
 Semi-Direct transformation.
 ModeAB=           4 MOrb=             4 LenV=     536588893
 LASXX=        88542 LTotXX=       88542 LenRXX=      182641
 LTotAB=       94099 MaxLAS=      346788 LenRXY=           0
 NonZer=      271183 LenScr=      524288 LnRSAI=      346788
 LnScr1=      524288 LExtra=           0 Total=      1578005
 MaxDsk=          -1 SrtSym=           T ITran=            4
 DoSDTr:  NPSUse=  4
 JobTyp=0 Pass  1:  I=   1 to   4.
 (rs|ai) integrals will be sorted in core.
 Complete sort for first half transformation.
 First half transformation complete.
 Complete sort for second half transformation.
 Second half transformation complete.
 Spin components of T(2) and E(2):
     alpha-alpha T2 =       0.7777859559D-02 E2=     -0.3189606350D-01
     alpha-beta  T2 =       0.4594683062D-01 E2=     -0.1991345899D+00
     beta-beta   T2 =       0.7777859559D-02 E2=     -0.3189606350D-01
 ANorm=    0.1030292458D+01
 E2 =    -0.2629267170D+00 EUMP2 =    -0.76316677458796D+02
 Leave Link  804 at Sun Aug 28 13:29:55 2022, MaxMem=   536870912 cpu:               0.7 elap:               0.3
 (Enter /usr/site/hpc/x86_64/glibc-2.17/broadwell/gaussian/g16_a.03/pgi-16.5/g16/l913.exe)
 CIDS:  MDV=   536870912.
 Frozen-core window:  NFC=   1 NFV=   0.
 IFCWin=0 IBDFC=1 NFBD=     0     0 NFCmp=     0     0 NFFFC=     0     0
 Using DD3R+UMP44R for 1st iteration.
 Using DD4RQ for 2nd and later iterations.
 Keep R2 and R3 ints in memory in symmetry-blocked form, NReq=3434025.
 FoFCou: FMM=F IPFlag=           0 FMFlag=           0 FMFlg1=           0
         NFxFlg=           0 DoJE=F BraDBF=F KetDBF=F FulRan=T
         wScrn=  0.000000 ICntrl=       600 IOpCl=  0 I1Cent=           0 NGrid=           0
         NMat0=    1 NMatS0=   1711 NMatT0=    0 NMatD0=    1 NMtDS0=    0 NMtDT0=    0
 Petite list used in FoFCou.
 CIDS: In Core Option IDoMem=           1.
 CCSD(T)
 =======
 Iterations=  50 Convergence= 0.100D-06
 Produce multiple copies of IABC intergrals
 Iteration Nr.   1
 **********************
 DD1Dir will call FoFMem   1 times, MxPair=        20
 NAB=    10 NAA=     0 NBB=     0.
 MP4(R+Q)=  0.37755060D-02
 Maximum subspace dimension=  5
 A-vector RMS=  2.6795359D-03 Max=  6.1947330D-03 conv= 1.00D-05.
 RLE energy=       -0.2629040235
 E3=       -0.37883710D-02        EUMP3=      -0.76320465830D+02
 E4(DQ)=   -0.77621250D-03        UMP4(DQ)=   -0.76321242042D+02
 E4(SDQ)=  -0.23029674D-02        UMP4(SDQ)=  -0.76322768797D+02
 VARIATIONAL ENERGIES WITH THE FIRST-ORDER WAVEFUNCTION:
 DE(Corr)= -0.26290403     E(Corr)=     -76.316654768    
 NORM(A)=   0.10304833D+01
 Iteration Nr.   2
 **********************
 DD1Dir will call FoFMem   1 times, MxPair=        20
 NAB=    10 NAA=     0 NBB=     0.
 A-vector RMS=  3.4040685D-04 Max=  2.3210659D-03 conv= 1.00D-05.
 RLE energy=       -0.2684332660
 DE(Corr)= -0.26785291     E(CORR)=     -76.321603650     Delta=-4.95D-03
 NORM(A)=   0.10324123D+01
 Iteration Nr.   3
 **********************
 DD1Dir will call FoFMem   1 times, MxPair=        20
 NAB=    10 NAA=     0 NBB=     0.
 A-vector RMS=  2.1620377D-04 Max=  9.2454331D-04 conv= 1.00D-05.
 RLE energy=       -0.2686810735
 DE(Corr)= -0.26838829     E(CORR)=     -76.322139037     Delta=-5.35D-04
 NORM(A)=   0.10327410D+01
 Iteration Nr.   4
 **********************
 DD1Dir will call FoFMem   1 times, MxPair=        20
 NAB=    10 NAA=     0 NBB=     0.
 A-vector RMS=  3.9781021D-05 Max=  1.5199076D-04 conv= 1.00D-05.
 RLE energy=       -0.2687226887
 DE(Corr)= -0.26870502     E(CORR)=     -76.322455766     Delta=-3.17D-04
 NORM(A)=   0.10327981D+01
 Iteration Nr.   5
 **********************
 DD1Dir will call FoFMem   1 times, MxPair=        20
 NAB=    10 NAA=     0 NBB=     0.
 A-vector RMS=  2.7272985D-05 Max=  1.7250464D-04 conv= 1.00D-05.
 RLE energy=       -0.2687268368
 DE(Corr)= -0.26872346     E(CORR)=     -76.322474203     Delta=-1.84D-05
 NORM(A)=   0.10328030D+01
 Iteration Nr.   6
 **********************
 DD1Dir will call FoFMem   1 times, MxPair=        20
 NAB=    10 NAA=     0 NBB=     0.
 A-vector RMS=  8.0601724D-06 Max=  4.4716490D-05 conv= 1.00D-05.
 RLE energy=       -0.2687222521
 DE(Corr)= -0.26872505     E(CORR)=     -76.322475788     Delta=-1.59D-06
 NORM(A)=   0.10328030D+01
 Iteration Nr.   7
 **********************
 DD1Dir will call FoFMem   1 times, MxPair=        20
 NAB=    10 NAA=     0 NBB=     0.
 A-vector RMS=  3.8340865D-06 Max=  2.4940554D-05 conv= 1.00D-05.
 RLE energy=       -0.2687256382
 DE(Corr)= -0.26872512     E(CORR)=     -76.322475860     Delta=-7.18D-08
 NORM(A)=   0.10328042D+01
 Iteration Nr.   8
 **********************
 DD1Dir will call FoFMem   1 times, MxPair=        20
 NAB=    10 NAA=     0 NBB=     0.
 A-vector RMS=  7.4555609D-07 Max=  4.3651890D-06 conv= 1.00D-05.
 RLE energy=       -0.2687248204
 DE(Corr)= -0.26872490     E(CORR)=     -76.322475645     Delta= 2.15D-07
 NORM(A)=   0.10328043D+01
 Iteration Nr.   9
 **********************
 DD1Dir will call FoFMem   1 times, MxPair=        20
 NAB=    10 NAA=     0 NBB=     0.
 A-vector RMS=  1.6256819D-07 Max=  8.8337307D-07 conv= 1.00D-05.
 RLE energy=       -0.2687250716
 DE(Corr)= -0.26872505     E(CORR)=     -76.322475791     Delta=-1.46D-07
 NORM(A)=   0.10328044D+01
 Iteration Nr.  10
 **********************
 DD1Dir will call FoFMem   1 times, MxPair=        20
 NAB=    10 NAA=     0 NBB=     0.
 A-vector RMS=  4.8257487D-08 Max=  2.6090673D-07 conv= 1.00D-05.
 RLE energy=       -0.2687250432
 DE(Corr)= -0.26872504     E(CORR)=     -76.322475779     Delta= 1.19D-08
 NORM(A)=   0.10328045D+01
 CI/CC converged in   10 iterations to DelEn= 1.19D-08 Conv= 1.00D-07 ErrA1= 4.83D-08 Conv= 1.00D-05
 Wavefunction amplitudes converged. E(Corr)=     -76.322475779    
 Largest amplitude= 4.79D-02
 IPart=  3 IA=    4   11.10% done.
 IPart=  1 IA=    7   21.55% done.
 IPart=  2 IA=   10   31.35% done.
 IPart=  3 IA=   13   40.49% done.
 IPart=  3 IA=   17   51.67% done.
 IPart=  2 IA=   21   61.68% done.
 IPart=  1 IA=   25   70.54% done.
 IPart=  2 IA=   31   81.64% done.
 IPart=  1 IA=   37   90.13% done.
 Time for triples=        4.85 seconds.
 T4(CCSD)= -0.80127008D-02
 T5(CCSD)=  0.20131118D-03
 CCSD(T)= -0.76330287169D+02
 Discarding MO integrals.
 Leave Link  913 at Sun Aug 28 13:29:56 2022, MaxMem=   536870912 cpu:               6.6 elap:               1.7
 (Enter /usr/site/hpc/x86_64/glibc-2.17/broadwell/gaussian/g16_a.03/pgi-16.5/g16/l601.exe)
 Copying SCF densities to generalized density rwf, IOpCl= 0 IROHF=0.

 **********************************************************************

            Population analysis using the SCF density.

 **********************************************************************

 Orbital symmetries:
       Occupied  (A1) (A1) (B2) (A1) (B1)
       Virtual   (A1) (B2) (B2) (A1) (A1) (B1) (B2) (A1) (A2) (B1)
                 (A1) (B2) (B2) (A1) (B1) (A2) (B2) (A1) (A1) (A1)
                 (B2) (B1) (A1) (A2) (B2) (B1) (B2) (A1) (A2) (B1)
                 (B2) (A1) (A2) (A1) (B2) (B1) (B2) (A1) (A1) (B2)
                 (B1) (A1) (B1) (A2) (A1) (B1) (B2) (A1) (A2) (A1)
                 (B2) (B2) (A1)
 The electronic state is 1-A1.
 Alpha  occ. eigenvalues --  -20.55680  -1.32979  -0.70385  -0.56430  -0.50092
 Alpha virt. eigenvalues --    0.14007   0.20084   0.54177   0.57102   0.67756
 Alpha virt. eigenvalues --    0.78787   0.80219   0.82142   0.84671   0.97107
 Alpha virt. eigenvalues --    1.14617   1.16982   1.51537   1.51825   2.00524
 Alpha virt. eigenvalues --    2.06588   2.09254   2.14707   2.24840   2.61344
 Alpha virt. eigenvalues --    2.92715   3.39211   3.49767   3.52963   3.59341
 Alpha virt. eigenvalues --    3.78506   3.85270   3.87459   3.93415   4.02872
 Alpha virt. eigenvalues --    4.08028   4.15098   4.29954   4.39750   4.45406
 Alpha virt. eigenvalues --    4.66358   4.80721   5.04053   5.23917   5.53877
 Alpha virt. eigenvalues --    5.97761   6.40224   6.86013   6.89494   6.94425
 Alpha virt. eigenvalues --    6.98959   7.07721   7.12334   7.18127   7.47024
 Alpha virt. eigenvalues --    7.70152   8.14898  12.49114
          Condensed to atoms (all electrons):
               1          2          3
     1  O    7.817372   0.346019   0.346019
     2  H    0.346019   0.435893  -0.036618
     3  H    0.346019  -0.036618   0.435893
 Mulliken charges:
               1
     1  O   -0.509411
     2  H    0.254706
     3  H    0.254706
 Sum of Mulliken charges =   0.00000
 Mulliken charges with hydrogens summed into heavy atoms:
               1
     1  O    0.000000
 Electronic spatial extent (au):  <R**2>=             19.4013
 Charge=              0.0000 electrons
 Dipole moment (field-independent basis, Debye):
    X=             -0.0000    Y=              0.0000    Z=             -1.9720  Tot=              1.9720
 Quadrupole moment (field-independent basis, Debye-Ang):
   XX=             -7.3560   YY=             -3.8958   ZZ=             -6.1952
   XY=              0.0000   XZ=              0.0000   YZ=              0.0000
 Traceless Quadrupole moment (field-independent basis, Debye-Ang):
   XX=             -1.5403   YY=              1.9198   ZZ=             -0.3795
   XY=              0.0000   XZ=              0.0000   YZ=              0.0000
 Octapole moment (field-independent basis, Debye-Ang**2):
  XXX=              0.0000  YYY=             -0.0000  ZZZ=             -1.1040  XYY=             -0.0000
  XXY=              0.0000  XXZ=             -0.2603  XZZ=              0.0000  YZZ=              0.0000
  YYZ=             -1.4748  XYZ=             -0.0000
 Hexadecapole moment (field-independent basis, Debye-Ang**3):
 XXXX=             -5.6679 YYYY=             -5.6326 ZZZZ=             -6.5285 XXXY=             -0.0000
 XXXZ=             -0.0000 YYYX=              0.0000 YYYZ=              0.0000 ZZZX=             -0.0000
 ZZZY=              0.0000 XXYY=             -2.2830 XXZZ=             -2.0834 YYZZ=             -1.6971
 XXYZ=             -0.0000 YYXZ=              0.0000 ZZXY=              0.0000
 N-N= 8.947667902075D+00 E-N=-1.985937605348D+02  KE= 7.590222160667D+01
 Symmetry A1   KE= 6.790655361054D+01
 Symmetry A2   KE= 1.084367798227D-31
 Symmetry B1   KE= 4.518579520968D+00
 Symmetry B2   KE= 3.477088475166D+00
 Leave Link  601 at Sun Aug 28 13:29:57 2022, MaxMem=   536870912 cpu:               0.3 elap:               0.1
 (Enter /usr/site/hpc/x86_64/glibc-2.17/broadwell/gaussian/g16_a.03/pgi-16.5/g16/l9999.exe)
 1\1\GINC-LOGIN\SP\RCCSD(T)-FC\CC-pVTZ\H2O1\C7441284\28-Aug-2022\0\\#p 
 CCSD(T)/cc-pVTZ\\H2O\\0,1\O,0,0.,-0.009833,0.\H,0,-0.799571,-0.580965,
 0.\H,0,0.799571,-0.580965,0.\\Version=ES64L-G16RevA.03\State=1-A1\HF=-
 76.0537507\MP2=-76.3166775\MP3=-76.3204658\MP4D=-76.3250175\MP4DQ=-76.
 321242\MP4SDQ=-76.3227688\CCSD=-76.3224758\CCSD(T)=-76.3302872\RMSD=7.
 625e-09\PG=C02V [C2(O1),SGV(H2)]\\@


 THE SECRET OF SUCCESS IN LIFE IS TO EAT WHAT YOU LIKE, AND LET THE FOOD
 FIGHT IT OUT INSIDE YOU. -- FROM A FORTUNE COOKIE
 Job cpu time:       0 days  0 hours  0 minutes 12.9 seconds.
 Elapsed time:       0 days  0 hours  0 minutes  3.9 seconds.
 File lengths (MBytes):  RWF=     72 Int=      0 D2E=      0 Chk=      8 Scr=      8
 Normal termination of Gaussian 16 at Sun Aug 28 13:29:57 2022.
