 Entering Gaussian System, Link 0=g16
 Input=H2O_H2O_4948.com
 Output=H2O_H2O_4948.log
 Initial command:
 /usr/site/hpc/x86_64/glibc-2.17/broadwell/gaussian/g16_a.03/pgi-16.5/g16/l1.exe "/gpfs/gpfs1/scratch/c7441284/ForceFieldModel/FittingData/Gau-3806413.inp" -scrdir="/gpfs/gpfs1/scratch/c7441284/ForceFieldModel/FittingData/"
 Entering Link 1 = /usr/site/hpc/x86_64/glibc-2.17/broadwell/gaussian/g16_a.03/pgi-16.5/g16/l1.exe PID=   3806414.
  
 Copyright (c) 1988,1990,1992,1993,1995,1998,2003,2009,2016,
            Gaussian, Inc.  All Rights Reserved.
  
 This is part of the Gaussian(R) 16 program.  It is based on
 the Gaussian(R) 09 system (copyright 2009, Gaussian, Inc.),
 the Gaussian(R) 03 system (copyright 2003, Gaussian, Inc.),
 the Gaussian(R) 98 system (copyright 1998, Gaussian, Inc.),
 the Gaussian(R) 94 system (copyright 1995, Gaussian, Inc.),
 the Gaussian 92(TM) system (copyright 1992, Gaussian, Inc.),
 the Gaussian 90(TM) system (copyright 1990, Gaussian, Inc.),
 the Gaussian 88(TM) system (copyright 1988, Gaussian, Inc.),
 the Gaussian 86(TM) system (copyright 1986, Carnegie Mellon
 University), and the Gaussian 82(TM) system (copyright 1983,
 Carnegie Mellon University). Gaussian is a federally registered
 trademark of Gaussian, Inc.
  
 This software contains proprietary and confidential information,
 including trade secrets, belonging to Gaussian, Inc.
  
 This software is provided under written license and may be
 used, copied, transmitted, or stored only in accord with that
 written license.
  
 The following legend is applicable only to US Government
 contracts under FAR:
  
                    RESTRICTED RIGHTS LEGEND
  
 Use, reproduction and disclosure by the US Government is
 subject to restrictions as set forth in subparagraphs (a)
 and (c) of the Commercial Computer Software - Restricted
 Rights clause in FAR 52.227-19.
  
 Gaussian, Inc.
 340 Quinnipiac St., Bldg. 40, Wallingford CT 06492
  
  
 ---------------------------------------------------------------
 Warning -- This program may not be used in any manner that
 competes with the business of Gaussian, Inc. or will provide
 assistance to any competitor of Gaussian, Inc.  The licensee
 of this program is prohibited from giving any competitor of
 Gaussian, Inc. access to this program.  By using this program,
 the user acknowledges that Gaussian, Inc. is engaged in the
 business of creating and licensing software in the field of
 computational chemistry and represents and warrants to the
 licensee that it is not a competitor of Gaussian, Inc. and that
 it will not use this program in any manner prohibited above.
 ---------------------------------------------------------------
  

 Cite this work as:
 Gaussian 16, Revision A.03,
 M. J. Frisch, G. W. Trucks, H. B. Schlegel, G. E. Scuseria, 
 M. A. Robb, J. R. Cheeseman, G. Scalmani, V. Barone, 
 G. A. Petersson, H. Nakatsuji, X. Li, M. Caricato, A. V. Marenich, 
 J. Bloino, B. G. Janesko, R. Gomperts, B. Mennucci, H. P. Hratchian, 
 J. V. Ortiz, A. F. Izmaylov, J. L. Sonnenberg, D. Williams-Young, 
 F. Ding, F. Lipparini, F. Egidi, J. Goings, B. Peng, A. Petrone, 
 T. Henderson, D. Ranasinghe, V. G. Zakrzewski, J. Gao, N. Rega, 
 G. Zheng, W. Liang, M. Hada, M. Ehara, K. Toyota, R. Fukuda, 
 J. Hasegawa, M. Ishida, T. Nakajima, Y. Honda, O. Kitao, H. Nakai, 
 T. Vreven, K. Throssell, J. A. Montgomery, Jr., J. E. Peralta, 
 F. Ogliaro, M. J. Bearpark, J. J. Heyd, E. N. Brothers, K. N. Kudin, 
 V. N. Staroverov, T. A. Keith, R. Kobayashi, J. Normand, 
 K. Raghavachari, A. P. Rendell, J. C. Burant, S. S. Iyengar, 
 J. Tomasi, M. Cossi, J. M. Millam, M. Klene, C. Adamo, R. Cammi, 
 J. W. Ochterski, R. L. Martin, K. Morokuma, O. Farkas, 
 J. B. Foresman, and D. J. Fox, Gaussian, Inc., Wallingford CT, 2016.
 
 ******************************************
 Gaussian 16:  ES64L-G16RevA.03 25-Dec-2016
                27-Aug-2022 
 ******************************************
 %NProcShared=4
 Will use up to    4 processors via shared memory.
 %Mem=4GB
 %Chk=H2O_H2O_4948.chk
 ------------------
 #p CCSD(T)/cc-pVTZ
 ------------------
 1/38=1,172=1/1;
 2/12=2,17=6,18=5,40=1/2;
 3/5=16,6=1,11=9,25=1,30=1/1,2,3;
 4//1;
 5/5=2,38=5/2;
 8/6=4,9=120000,10=1/1,4;
 9/5=7,14=2/13;
 6/7=2,8=2,9=2,10=2/1;
 99/5=1,9=1/99;
 Leave Link    1 at Sat Aug 27 10:16:41 2022, MaxMem=   536870912 cpu:               1.3 elap:               0.4
 (Enter /usr/site/hpc/x86_64/glibc-2.17/broadwell/gaussian/g16_a.03/pgi-16.5/g16/l101.exe)
 ------------
 H2O_H2O_4948
 ------------
 Symbolic Z-matrix:
 Charge =  0 Multiplicity = 1
 O                     0.       -0.00983   0. 
 H                    -0.79957  -0.58097   0. 
 H                     0.79957  -0.58097   0. 
 O                    -0.00981   6.82676   0. 
 H                    -0.52743   7.66198   0. 
 H                    -0.63202   6.06626   0. 
 
 ITRead=  0  0  0  0  0  0
 MicOpt= -1 -1 -1 -1 -1 -1
 NAtoms=      6 NQM=        6 NQMF=       0 NMMI=      0 NMMIF=      0
                NMic=       0 NMicF=      0.
                    Isotopes and Nuclear Properties:
 (Nuclear quadrupole moments (NQMom) in fm**2, nuclear magnetic moments (NMagM)
  in nuclear magnetons)

  Atom         1           2           3           4           5           6
 IAtWgt=          16           1           1          16           1           1
 AtmWgt=  15.9949146   1.0078250   1.0078250  15.9949146   1.0078250   1.0078250
 NucSpn=           0           1           1           0           1           1
 AtZEff=  -0.0000000  -0.0000000  -0.0000000  -0.0000000  -0.0000000  -0.0000000
 NQMom=    0.0000000   0.0000000   0.0000000   0.0000000   0.0000000   0.0000000
 NMagM=    0.0000000   2.7928460   2.7928460   0.0000000   2.7928460   2.7928460
 AtZNuc=   8.0000000   1.0000000   1.0000000   8.0000000   1.0000000   1.0000000
 Leave Link  101 at Sat Aug 27 10:16:41 2022, MaxMem=   536870912 cpu:               0.3 elap:               0.1
 (Enter /usr/site/hpc/x86_64/glibc-2.17/broadwell/gaussian/g16_a.03/pgi-16.5/g16/l202.exe)
                          Input orientation:                          
 ---------------------------------------------------------------------
 Center     Atomic      Atomic             Coordinates (Angstroms)
 Number     Number       Type             X           Y           Z
 ---------------------------------------------------------------------
      1          8           0        0.000000   -0.009833    0.000000
      2          1           0       -0.799571   -0.580965    0.000000
      3          1           0        0.799571   -0.580965    0.000000
      4          8           0       -0.009812    6.826763    0.000000
      5          1           0       -0.527427    7.661976    0.000000
      6          1           0       -0.632016    6.066257    0.000000
 ---------------------------------------------------------------------
                    Distance matrix (angstroms):
                    1          2          3          4          5
     1  O    0.000000
     2  H    0.982601   0.000000
     3  H    0.982601   1.599142   0.000000
     4  O    6.836603   7.449708   7.451814   0.000000
     5  H    7.689918   8.247432   8.349072   0.982602   0.000000
     6  H    6.108872   6.649333   6.799632   0.982602   1.599143
                    6
     6  H    0.000000
 Stoichiometry    H4O2
 Framework group  CS[SG(H4O2)]
 Deg. of freedom     9
 Full point group                 CS      NOp   2
 Largest Abelian subgroup         CS      NOp   2
 Largest concise Abelian subgroup C1      NOp   1
                         Standard orientation:                         
 ---------------------------------------------------------------------
 Center     Atomic      Atomic             Coordinates (Angstroms)
 Number     Number       Type             X           Y           Z
 ---------------------------------------------------------------------
      1          8           0        0.057068   -3.365006    0.000000
      2          1           0       -0.743322   -3.934989    0.000000
      3          1           0        0.855818   -3.937284    0.000000
      4          8           0        0.057068    3.471598    0.000000
      5          1           0       -0.459348    4.307553    0.000000
      6          1           0       -0.566227    2.711985    0.000000
 ---------------------------------------------------------------------
 Rotational constants (GHZ):         269.3159208           1.1719139           1.1668365
 Leave Link  202 at Sat Aug 27 10:16:41 2022, MaxMem=   536870912 cpu:               0.0 elap:               0.0
 (Enter /usr/site/hpc/x86_64/glibc-2.17/broadwell/gaussian/g16_a.03/pgi-16.5/g16/l301.exe)
 Standard basis: CC-pVTZ (5D, 7F)
 Ernie: Thresh=  0.10000D-02 Tol=  0.10000D-05 Strict=F.
 Ernie:  6 primitive shells out of 84 were deleted.
 There are    92 symmetry adapted cartesian basis functions of A'  symmetry.
 There are    38 symmetry adapted cartesian basis functions of A"  symmetry.
 There are    80 symmetry adapted basis functions of A'  symmetry.
 There are    36 symmetry adapted basis functions of A"  symmetry.
   116 basis functions,   172 primitive gaussians,   130 cartesian basis functions
    10 alpha electrons       10 beta electrons
       nuclear repulsion energy        25.5139911279 Hartrees.
 IExCor=    0 DFT=F Ex=HF Corr=None ExCW=0 ScaHFX=  1.000000
 ScaDFX=  1.000000  1.000000  1.000000  1.000000 ScalE2=  1.000000  1.000000
 IRadAn=      5 IRanWt=     -1 IRanGd=            0 ICorTp=0 IEmpDi=  4
 NAtoms=    6 NActive=    6 NUniq=    6 SFac= 1.00D+00 NAtFMM=   60 NAOKFM=F Big=F
 Integral buffers will be    131072 words long.
 Raffenetti 1 integral format.
 Two-electron integral symmetry is turned on.
 Leave Link  301 at Sat Aug 27 10:16:42 2022, MaxMem=   536870912 cpu:               0.2 elap:               0.1
 (Enter /usr/site/hpc/x86_64/glibc-2.17/broadwell/gaussian/g16_a.03/pgi-16.5/g16/l302.exe)
 NPDir=0 NMtPBC=     1 NCelOv=     1 NCel=       1 NClECP=     1 NCelD=      1
         NCelK=      1 NCelE2=     1 NClLst=     1 CellRange=     0.0.
 One-electron integrals computed using PRISM.
 One-electron integral symmetry used in STVInt
 NBasis=   116 RedAO= T EigKep=  2.69D-03  NBF=    80    36
 NBsUse=   116 1.00D-06 EigRej= -1.00D+00 NBFU=    80    36
 Leave Link  302 at Sat Aug 27 10:16:42 2022, MaxMem=   536870912 cpu:               0.4 elap:               0.1
 (Enter /usr/site/hpc/x86_64/glibc-2.17/broadwell/gaussian/g16_a.03/pgi-16.5/g16/l303.exe)
 DipDrv:  MaxL=1.
 Leave Link  303 at Sat Aug 27 10:16:42 2022, MaxMem=   536870912 cpu:               0.1 elap:               0.0
 (Enter /usr/site/hpc/x86_64/glibc-2.17/broadwell/gaussian/g16_a.03/pgi-16.5/g16/l401.exe)
 ExpMin= 1.03D-01 ExpMax= 1.53D+04 ExpMxC= 5.22D+02 IAcc=3 IRadAn=         5 AccDes= 0.00D+00
 Harris functional with IExCor=  205 and IRadAn=       5 diagonalized for initial guess.
 HarFok:  IExCor=  205 AccDes= 0.00D+00 IRadAn=         5 IDoV= 1 UseB2=F ITyADJ=14
 ICtDFT=  3500011 ScaDFX=  1.000000  1.000000  1.000000  1.000000
 FoFCou: FMM=F IPFlag=           0 FMFlag=      100000 FMFlg1=           0
         NFxFlg=           0 DoJE=T BraDBF=F KetDBF=T FulRan=T
         wScrn=  0.000000 ICntrl=       500 IOpCl=  0 I1Cent=   200000004 NGrid=           0
         NMat0=    1 NMatS0=      1 NMatT0=    0 NMatD0=    1 NMtDS0=    0 NMtDT0=    0
 Petite list used in FoFCou.
 Harris En= -152.298684699849    
 JPrj=0 DoOrth=F DoCkMO=F.
 Initial guess orbital symmetries:
       Occupied  (A') (A') (A') (A') (A') (A') (A') (A') (A") (A")
       Virtual   (A') (A') (A') (A') (A') (A') (A') (A') (A') (A')
                 (A") (A") (A') (A') (A') (A') (A") (A") (A") (A")
                 (A') (A') (A') (A') (A') (A') (A') (A') (A") (A")
                 (A") (A") (A') (A') (A') (A') (A') (A') (A') (A')
                 (A') (A') (A") (A") (A') (A') (A") (A") (A") (A")
                 (A') (A') (A') (A') (A') (A') (A") (A") (A') (A')
                 (A') (A') (A") (A") (A") (A") (A') (A') (A') (A')
                 (A") (A") (A') (A') (A') (A') (A') (A') (A') (A')
                 (A") (A") (A') (A') (A") (A") (A") (A") (A') (A')
                 (A") (A") (A') (A') (A') (A') (A") (A") (A') (A')
                 (A') (A') (A') (A') (A') (A')
 The electronic state of the initial guess is 1-A'.
 Leave Link  401 at Sat Aug 27 10:16:42 2022, MaxMem=   536870912 cpu:               0.7 elap:               0.2
 (Enter /usr/site/hpc/x86_64/glibc-2.17/broadwell/gaussian/g16_a.03/pgi-16.5/g16/l502.exe)
 Keep R1 ints in memory in symmetry-blocked form, NReq=34823457.
 FoFCou: FMM=F IPFlag=           0 FMFlag=           0 FMFlg1=           0
         NFxFlg=           0 DoJE=F BraDBF=F KetDBF=F FulRan=T
         wScrn=  0.000000 ICntrl=       600 IOpCl=  0 I1Cent=           0 NGrid=           0
         NMat0=    1 NMatS0=   6786 NMatT0=    0 NMatD0=    1 NMtDS0=    0 NMtDT0=    0
 Petite list used in FoFCou.
 Closed shell SCF:
 Using DIIS extrapolation, IDIIS=  1040.
 NGot=   536870912 LenX=   525040673 LenY=   525023332
 Requested convergence on RMS density matrix=1.00D-08 within 128 cycles.
 Requested convergence on MAX density matrix=1.00D-06.
 Requested convergence on             energy=1.00D-06.
 No special actions if energy rises.

 Cycle   1  Pass 1  IDiag  1:
 E= -151.927283365294    
 DIIS: error= 6.59D-02 at cycle   1 NSaved=   1.
 NSaved= 1 IEnMin= 1 EnMin= -151.927283365294     IErMin= 1 ErrMin= 6.59D-02
 ErrMax= 6.59D-02  0.00D+00 EMaxC= 1.00D-01 BMatC= 4.00D-01 BMatP= 4.00D-01
 IDIUse=3 WtCom= 3.41D-01 WtEn= 6.59D-01
 Coeff-Com:  0.100D+01
 Coeff-En:   0.100D+01
 Coeff:      0.100D+01
 Gap=     0.519 Goal=   None    Shift=    0.000
 GapD=    0.519 DampG=2.000 DampE=0.500 DampFc=1.0000 IDamp=-1.
 RMSDP=2.51D-03 MaxDP=6.65D-02              OVMax= 1.27D-01

 Cycle   2  Pass 1  IDiag  1:
 E= -152.039063716109     Delta-E=       -0.111780350815 Rises=F Damp=F
 DIIS: error= 4.15D-02 at cycle   2 NSaved=   2.
 NSaved= 2 IEnMin= 2 EnMin= -152.039063716109     IErMin= 2 ErrMin= 4.15D-02
 ErrMax= 4.15D-02  0.00D+00 EMaxC= 1.00D-01 BMatC= 1.13D-01 BMatP= 4.00D-01
 IDIUse=3 WtCom= 5.85D-01 WtEn= 4.15D-01
 Coeff-Com:  0.320D+00 0.680D+00
 Coeff-En:   0.166D+00 0.834D+00
 Coeff:      0.256D+00 0.744D+00
 Gap=     0.660 Goal=   None    Shift=    0.000
 RMSDP=1.32D-03 MaxDP=3.96D-02 DE=-1.12D-01 OVMax= 5.72D-02

 Cycle   3  Pass 1  IDiag  1:
 E= -152.103835587473     Delta-E=       -0.064771871364 Rises=F Damp=F
 DIIS: error= 8.97D-03 at cycle   3 NSaved=   3.
 NSaved= 3 IEnMin= 3 EnMin= -152.103835587473     IErMin= 3 ErrMin= 8.97D-03
 ErrMax= 8.97D-03  0.00D+00 EMaxC= 1.00D-01 BMatC= 5.97D-03 BMatP= 1.13D-01
 IDIUse=3 WtCom= 9.10D-01 WtEn= 8.97D-02
 Coeff-Com: -0.304D-01 0.155D+00 0.875D+00
 Coeff-En:   0.000D+00 0.000D+00 0.100D+01
 Coeff:     -0.277D-01 0.142D+00 0.886D+00
 Gap=     0.632 Goal=   None    Shift=    0.000
 RMSDP=2.43D-04 MaxDP=5.70D-03 DE=-6.48D-02 OVMax= 1.34D-02

 Cycle   4  Pass 1  IDiag  1:
 E= -152.107559447441     Delta-E=       -0.003723859968 Rises=F Damp=F
 DIIS: error= 8.57D-04 at cycle   4 NSaved=   4.
 NSaved= 4 IEnMin= 4 EnMin= -152.107559447441     IErMin= 4 ErrMin= 8.57D-04
 ErrMax= 8.57D-04  0.00D+00 EMaxC= 1.00D-01 BMatC= 3.75D-05 BMatP= 5.97D-03
 IDIUse=3 WtCom= 9.91D-01 WtEn= 8.57D-03
 Coeff-Com:  0.679D-02-0.612D-01-0.239D+00 0.129D+01
 Coeff-En:   0.000D+00 0.000D+00 0.000D+00 0.100D+01
 Coeff:      0.674D-02-0.607D-01-0.237D+00 0.129D+01
 Gap=     0.635 Goal=   None    Shift=    0.000
 RMSDP=5.17D-05 MaxDP=1.03D-03 DE=-3.72D-03 OVMax= 2.23D-03

 Cycle   5  Pass 1  IDiag  1:
 E= -152.107609733143     Delta-E=       -0.000050285702 Rises=F Damp=F
 DIIS: error= 1.95D-04 at cycle   5 NSaved=   5.
 NSaved= 5 IEnMin= 5 EnMin= -152.107609733143     IErMin= 5 ErrMin= 1.95D-04
 ErrMax= 1.95D-04  0.00D+00 EMaxC= 1.00D-01 BMatC= 1.36D-06 BMatP= 3.75D-05
 IDIUse=3 WtCom= 9.98D-01 WtEn= 1.95D-03
 Coeff-Com:  0.541D-03 0.461D-03-0.289D-02-0.221D+00 0.122D+01
 Coeff-En:   0.000D+00 0.000D+00 0.000D+00 0.000D+00 0.100D+01
 Coeff:      0.540D-03 0.460D-03-0.288D-02-0.221D+00 0.122D+01
 Gap=     0.636 Goal=   None    Shift=    0.000
 RMSDP=1.42D-05 MaxDP=2.89D-04 DE=-5.03D-05 OVMax= 6.87D-04

 Cycle   6  Pass 1  IDiag  1:
 E= -152.107612563857     Delta-E=       -0.000002830713 Rises=F Damp=F
 DIIS: error= 2.87D-05 at cycle   6 NSaved=   6.
 NSaved= 6 IEnMin= 6 EnMin= -152.107612563857     IErMin= 6 ErrMin= 2.87D-05
 ErrMax= 2.87D-05  0.00D+00 EMaxC= 1.00D-01 BMatC= 3.35D-08 BMatP= 1.36D-06
 IDIUse=1 WtCom= 1.00D+00 WtEn= 0.00D+00
 Coeff-Com: -0.271D-03 0.156D-02 0.670D-02 0.211D-02-0.263D+00 0.125D+01
 Coeff:     -0.271D-03 0.156D-02 0.670D-02 0.211D-02-0.263D+00 0.125D+01
 Gap=     0.636 Goal=   None    Shift=    0.000
 RMSDP=3.00D-06 MaxDP=6.52D-05 DE=-2.83D-06 OVMax= 1.52D-04

 Cycle   7  Pass 1  IDiag  1:
 E= -152.107612659144     Delta-E=       -0.000000095287 Rises=F Damp=F
 DIIS: error= 5.24D-06 at cycle   7 NSaved=   7.
 NSaved= 7 IEnMin= 7 EnMin= -152.107612659144     IErMin= 7 ErrMin= 5.24D-06
 ErrMax= 5.24D-06  0.00D+00 EMaxC= 1.00D-01 BMatC= 1.74D-09 BMatP= 3.35D-08
 IDIUse=1 WtCom= 1.00D+00 WtEn= 0.00D+00
 Coeff-Com:  0.300D-04-0.385D-03-0.154D-02 0.135D-01-0.132D-01-0.222D+00
 Coeff-Com:  0.122D+01
 Coeff:      0.300D-04-0.385D-03-0.154D-02 0.135D-01-0.132D-01-0.222D+00
 Coeff:      0.122D+01
 Gap=     0.636 Goal=   None    Shift=    0.000
 RMSDP=4.35D-07 MaxDP=9.72D-06 DE=-9.53D-08 OVMax= 2.97D-05

 Cycle   8  Pass 1  IDiag  1:
 E= -152.107612662840     Delta-E=       -0.000000003696 Rises=F Damp=F
 DIIS: error= 1.59D-06 at cycle   8 NSaved=   8.
 NSaved= 8 IEnMin= 8 EnMin= -152.107612662840     IErMin= 8 ErrMin= 1.59D-06
 ErrMax= 1.59D-06  0.00D+00 EMaxC= 1.00D-01 BMatC= 1.05D-10 BMatP= 1.74D-09
 IDIUse=1 WtCom= 1.00D+00 WtEn= 0.00D+00
 Coeff-Com:  0.776D-05 0.578D-05 0.326D-04-0.367D-02 0.185D-01-0.159D-01
 Coeff-Com: -0.274D+00 0.128D+01
 Coeff:      0.776D-05 0.578D-05 0.326D-04-0.367D-02 0.185D-01-0.159D-01
 Coeff:     -0.274D+00 0.128D+01
 Gap=     0.636 Goal=   None    Shift=    0.000
 RMSDP=1.08D-07 MaxDP=2.47D-06 DE=-3.70D-09 OVMax= 6.75D-06

 Cycle   9  Pass 1  IDiag  1:
 E= -152.107612663058     Delta-E=       -0.000000000217 Rises=F Damp=F
 DIIS: error= 4.61D-07 at cycle   9 NSaved=   9.
 NSaved= 9 IEnMin= 9 EnMin= -152.107612663058     IErMin= 9 ErrMin= 4.61D-07
 ErrMax= 4.61D-07  0.00D+00 EMaxC= 1.00D-01 BMatC= 1.39D-11 BMatP= 1.05D-10
 IDIUse=1 WtCom= 1.00D+00 WtEn= 0.00D+00
 Coeff-Com:  0.659D-06 0.285D-04 0.117D-03-0.223D-02 0.770D-02 0.776D-02
 Coeff-Com: -0.168D+00 0.410D+00 0.745D+00
 Coeff:      0.659D-06 0.285D-04 0.117D-03-0.223D-02 0.770D-02 0.776D-02
 Coeff:     -0.168D+00 0.410D+00 0.745D+00
 Gap=     0.636 Goal=   None    Shift=    0.000
 RMSDP=1.95D-08 MaxDP=4.34D-07 DE=-2.17D-10 OVMax= 1.31D-06

 Cycle  10  Pass 1  IDiag  1:
 E= -152.107612663071     Delta-E=       -0.000000000013 Rises=F Damp=F
 DIIS: error= 1.13D-07 at cycle  10 NSaved=  10.
 NSaved=10 IEnMin=10 EnMin= -152.107612663071     IErMin=10 ErrMin= 1.13D-07
 ErrMax= 1.13D-07  0.00D+00 EMaxC= 1.00D-01 BMatC= 4.97D-13 BMatP= 1.39D-11
 IDIUse=1 WtCom= 1.00D+00 WtEn= 0.00D+00
 Coeff-Com: -0.594D-06-0.451D-05-0.214D-04 0.565D-03-0.207D-02-0.174D-02
 Coeff-Com:  0.514D-01-0.174D+00-0.124D+00 0.125D+01
 Coeff:     -0.594D-06-0.451D-05-0.214D-04 0.565D-03-0.207D-02-0.174D-02
 Coeff:      0.514D-01-0.174D+00-0.124D+00 0.125D+01
 Gap=     0.636 Goal=   None    Shift=    0.000
 RMSDP=7.05D-09 MaxDP=2.09D-07 DE=-1.30D-11 OVMax= 4.27D-07

 SCF Done:  E(RHF) =  -152.107612663     A.U. after   10 cycles
            NFock= 10  Conv=0.70D-08     -V/T= 2.0020
 KE= 1.518043599398D+02 PE=-4.124659293986D+02 EE= 8.303996566790D+01
 Leave Link  502 at Sat Aug 27 10:16:43 2022, MaxMem=   536870912 cpu:               3.5 elap:               1.0
 (Enter /usr/site/hpc/x86_64/glibc-2.17/broadwell/gaussian/g16_a.03/pgi-16.5/g16/l801.exe)
 Windowed orbitals will be sorted by symmetry type.
 ExpMin= 1.03D-01 ExpMax= 1.53D+04 ExpMxC= 5.22D+02 IAcc=3 IRadAn=         5 AccDes= 0.00D+00
 HarFok:  IExCor=  205 AccDes= 0.00D+00 IRadAn=         5 IDoV=-2 UseB2=F ITyADJ=14
 ICtDFT= 12500011 ScaDFX=  1.000000  1.000000  1.000000  1.000000
 Largest valence mixing into a core orbital is  1.12D-04
 Largest core mixing into a valence orbital is  1.76D-05
 Range of M.O.s used for correlation:     3   116
 NBasis=   116 NAE=    10 NBE=    10 NFC=     2 NFV=     0
 NROrb=    114 NOA=     8 NOB=     8 NVA=   106 NVB=   106
 Leave Link  801 at Sat Aug 27 10:16:43 2022, MaxMem=   536870912 cpu:               0.3 elap:               0.1
 (Enter /usr/site/hpc/x86_64/glibc-2.17/broadwell/gaussian/g16_a.03/pgi-16.5/g16/l804.exe)
 Closed-shell transformation, MDV=   536870912 ITran=4 ISComp=2.
 Unit  1 TFree=        834515 TCopy=        406125.
 Semi-Direct transformation.
 ModeAB=           4 MOrb=             8 LenV=     536382691
 LASXX=      2873146 LTotXX=     2873146 LenRXX=     5831278
 LTotAB=     2958132 MaxLAS=     4733280 LenRXY=           0
 NonZer=     8704424 LenScr=    13107200 LnRSAI=     4733280
 LnScr1=     7340032 LExtra=           0 Total=     31011790
 MaxDsk=          -1 SrtSym=           T ITran=            4
 DoSDTr:  NPSUse=  4
 JobTyp=0 Pass  1:  I=   1 to   8.
 (rs|ai) integrals will be sorted in core.
 Complete sort for first half transformation.
 First half transformation complete.
 Complete sort for second half transformation.
 Second half transformation complete.
 Spin components of T(2) and E(2):
     alpha-alpha T2 =       0.1555594831D-01 E2=     -0.6379403095D-01
     alpha-beta  T2 =       0.9189047071D-01 E2=     -0.3982674117D+00
     beta-beta   T2 =       0.1555594831D-01 E2=     -0.6379403095D-01
 ANorm=    0.1059718060D+01
 E2 =    -0.5258554736D+00 EUMP2 =    -0.15263346813665D+03
 Leave Link  804 at Sat Aug 27 10:16:44 2022, MaxMem=   536870912 cpu:               2.8 elap:               0.7
 (Enter /usr/site/hpc/x86_64/glibc-2.17/broadwell/gaussian/g16_a.03/pgi-16.5/g16/l913.exe)
 CIDS:  MDV=   536870912.
 Frozen-core window:  NFC=   2 NFV=   0.
 IFCWin=0 IBDFC=1 NFBD=     0     0 NFCmp=     0     0 NFFFC=     0     0
 Using DD3R+UMP44R for 1st iteration.
 Using DD4RQ for 2nd and later iterations.
 Keep R2 and R3 ints in memory in symmetry-blocked form, NReq=35357534.
 FoFCou: FMM=F IPFlag=           0 FMFlag=           0 FMFlg1=           0
         NFxFlg=           0 DoJE=F BraDBF=F KetDBF=F FulRan=T
         wScrn=  0.000000 ICntrl=       600 IOpCl=  0 I1Cent=           0 NGrid=           0
         NMat0=    1 NMatS0=   6786 NMatT0=    0 NMatD0=    1 NMtDS0=    0 NMtDT0=    0
 Petite list used in FoFCou.
 CIDS: In Core Option IDoMem=           1.
 CCSD(T)
 =======
 Iterations=  50 Convergence= 0.100D-06
 Produce multiple copies of IABC intergrals
 Iteration Nr.   1
 **********************
 DD1Dir will call FoFMem   1 times, MxPair=        72
 NAB=    36 NAA=     0 NBB=     0.
 MP4(R+Q)=  0.75506915D-02
 Maximum subspace dimension=  5
 A-vector RMS=  1.7405293D-03 Max=  6.1927247D-03 conv= 1.00D-05.
 RLE energy=       -0.5258084624
 E3=       -0.75747969D-02        EUMP3=      -0.15264104293D+03
 E4(DQ)=   -0.15518556D-02        UMP4(DQ)=   -0.15264259479D+03
 E4(SDQ)=  -0.46048889D-02        UMP4(SDQ)=  -0.15264564782D+03
 VARIATIONAL ENERGIES WITH THE FIRST-ORDER WAVEFUNCTION:
 DE(Corr)= -0.52580847     E(Corr)=     -152.63342113    
 NORM(A)=   0.10600883D+01
 Iteration Nr.   2
 **********************
 DD1Dir will call FoFMem   1 times, MxPair=        72
 NAB=    36 NAA=     0 NBB=     0.
 A-vector RMS=  2.1230906D-04 Max=  2.3211748D-03 conv= 1.00D-05.
 RLE energy=       -0.5368656614
 DE(Corr)= -0.53570514     E(CORR)=     -152.64331780     Delta=-9.90D-03
 NORM(A)=   0.10638346D+01
 Iteration Nr.   3
 **********************
 DD1Dir will call FoFMem   1 times, MxPair=        72
 NAB=    36 NAA=     0 NBB=     0.
 A-vector RMS=  1.4086749D-04 Max=  9.2229612D-04 conv= 1.00D-05.
 RLE energy=       -0.5373611596
 DE(Corr)= -0.53677575     E(CORR)=     -152.64438841     Delta=-1.07D-03
 NORM(A)=   0.10644725D+01
 Iteration Nr.   4
 **********************
 DD1Dir will call FoFMem   1 times, MxPair=        72
 NAB=    36 NAA=     0 NBB=     0.
 A-vector RMS=  2.5748942D-05 Max=  1.5126657D-04 conv= 1.00D-05.
 RLE energy=       -0.5374443697
 DE(Corr)= -0.53740905     E(CORR)=     -152.64502172     Delta=-6.33D-04
 NORM(A)=   0.10645831D+01
 Iteration Nr.   5
 **********************
 DD1Dir will call FoFMem   1 times, MxPair=        72
 NAB=    36 NAA=     0 NBB=     0.
 A-vector RMS=  1.8703336D-05 Max=  1.7194775D-04 conv= 1.00D-05.
 RLE energy=       -0.5374526603
 DE(Corr)= -0.53744592     E(CORR)=     -152.64505858     Delta=-3.69D-05
 NORM(A)=   0.10645925D+01
 Iteration Nr.   6
 **********************
 DD1Dir will call FoFMem   1 times, MxPair=        72
 NAB=    36 NAA=     0 NBB=     0.
 A-vector RMS=  5.5126502D-06 Max=  4.4530702D-05 conv= 1.00D-05.
 RLE energy=       -0.5374435045
 DE(Corr)= -0.53744908     E(CORR)=     -152.64506175     Delta=-3.17D-06
 NORM(A)=   0.10645927D+01
 Iteration Nr.   7
 **********************
 DD1Dir will call FoFMem   1 times, MxPair=        72
 NAB=    36 NAA=     0 NBB=     0.
 A-vector RMS=  2.6509117D-06 Max=  2.4858006D-05 conv= 1.00D-05.
 RLE energy=       -0.5374502651
 DE(Corr)= -0.53744923     E(CORR)=     -152.64506189     Delta=-1.44D-07
 NORM(A)=   0.10645950D+01
 Iteration Nr.   8
 **********************
 DD1Dir will call FoFMem   1 times, MxPair=        72
 NAB=    36 NAA=     0 NBB=     0.
 A-vector RMS=  5.0840633D-07 Max=  4.3583180D-06 conv= 1.00D-05.
 RLE energy=       -0.5374486321
 DE(Corr)= -0.53744880     E(CORR)=     -152.64506146     Delta= 4.29D-07
 NORM(A)=   0.10645952D+01
 Iteration Nr.   9
 **********************
 DD1Dir will call FoFMem   1 times, MxPair=        72
 NAB=    36 NAA=     0 NBB=     0.
 A-vector RMS=  1.0940315D-07 Max=  8.8098778D-07 conv= 1.00D-05.
 RLE energy=       -0.5374491333
 DE(Corr)= -0.53744909     E(CORR)=     -152.64506175     Delta=-2.91D-07
 NORM(A)=   0.10645954D+01
 Iteration Nr.  10
 **********************
 DD1Dir will call FoFMem   1 times, MxPair=        72
 NAB=    36 NAA=     0 NBB=     0.
 A-vector RMS=  3.2944312D-08 Max=  2.6318421D-07 conv= 1.00D-05.
 RLE energy=       -0.5374490774
 DE(Corr)= -0.53744907     E(CORR)=     -152.64506173     Delta= 2.37D-08
 NORM(A)=   0.10645954D+01
 CI/CC converged in   10 iterations to DelEn= 2.37D-08 Conv= 1.00D-07 ErrA1= 3.29D-08 Conv= 1.00D-05
 Wavefunction amplitudes converged. E(Corr)=     -152.64506173    
 Largest amplitude= 4.79D-02
 IPart=  4 IA=    7   11.05% done.
 IPart=  3 IA=   13   21.46% done.
 IPart=  3 IA=   19   31.21% done.
 IPart=  4 IA=   25   40.32% done.
 IPart=  4 IA=   32   50.13% done.
 IPart=  4 IA=   40   60.27% done.
 IPart=  3 IA=   49   70.30% done.
 IPart=  2 IA=   60   80.58% done.
 IPart=  4 IA=   74   90.51% done.
 Time for triples=       46.09 seconds.
 T4(CCSD)= -0.16025094D-01
 T5(CCSD)=  0.40254632D-03
 CCSD(T)= -0.15266068428D+03
 Discarding MO integrals.
 Leave Link  913 at Sat Aug 27 10:17:01 2022, MaxMem=   536870912 cpu:              68.7 elap:              17.4
 (Enter /usr/site/hpc/x86_64/glibc-2.17/broadwell/gaussian/g16_a.03/pgi-16.5/g16/l601.exe)
 Copying SCF densities to generalized density rwf, IOpCl= 0 IROHF=0.

 **********************************************************************

            Population analysis using the SCF density.

 **********************************************************************

 Orbital symmetries:
       Occupied  (A') (A') (A') (A') (A') (A') (A') (A') (A") (A")
       Virtual   (A') (A') (A') (A') (A') (A') (A') (A') (A') (A')
                 (A") (A") (A') (A') (A') (A') (A") (A") (A") (A")
                 (A') (A') (A') (A') (A') (A') (A') (A') (A") (A")
                 (A") (A") (A') (A') (A') (A') (A') (A') (A') (A')
                 (A') (A') (A") (A") (A') (A') (A") (A") (A') (A')
                 (A") (A") (A') (A') (A') (A') (A") (A") (A") (A")
                 (A') (A') (A') (A') (A") (A") (A') (A') (A') (A')
                 (A") (A") (A') (A') (A') (A') (A') (A') (A') (A')
                 (A") (A") (A') (A') (A") (A") (A") (A") (A') (A')
                 (A") (A") (A') (A') (A') (A') (A") (A") (A') (A')
                 (A') (A') (A') (A') (A') (A')
 The electronic state is 1-A'.
 Alpha  occ. eigenvalues --  -20.55733 -20.55216  -1.33032  -1.32515  -0.70438
 Alpha  occ. eigenvalues --   -0.69916  -0.56489  -0.55968  -0.50146  -0.49630
 Alpha virt. eigenvalues --    0.13960   0.14478   0.20046   0.20593   0.54121
 Alpha virt. eigenvalues --    0.54654   0.57058   0.57574   0.67682   0.68221
 Alpha virt. eigenvalues --    0.78734   0.79243   0.80161   0.80705   0.82086
 Alpha virt. eigenvalues --    0.82605   0.84626   0.85140   0.97055   0.97567
 Alpha virt. eigenvalues --    1.14558   1.15081   1.16931   1.17459   1.51488
 Alpha virt. eigenvalues --    1.51780   1.51999   1.52317   2.00469   2.00986
 Alpha virt. eigenvalues --    2.06534   2.07054   2.09194   2.09723   2.14651
 Alpha virt. eigenvalues --    2.15177   2.24781   2.25301   2.61293   2.61812
 Alpha virt. eigenvalues --    2.92663   2.93187   3.39161   3.39680   3.49718
 Alpha virt. eigenvalues --    3.50238   3.52914   3.53430   3.59292   3.59812
 Alpha virt. eigenvalues --    3.78454   3.78970   3.85218   3.85740   3.87409
 Alpha virt. eigenvalues --    3.87929   3.93366   3.93887   4.02822   4.03339
 Alpha virt. eigenvalues --    4.07978   4.08498   4.15047   4.15569   4.29903
 Alpha virt. eigenvalues --    4.30421   4.39694   4.40220   4.45357   4.45880
 Alpha virt. eigenvalues --    4.66307   4.66823   4.80670   4.81192   5.04002
 Alpha virt. eigenvalues --    5.04520   5.23863   5.24381   5.53823   5.54343
 Alpha virt. eigenvalues --    5.97706   5.98224   6.40171   6.40688   6.85959
 Alpha virt. eigenvalues --    6.86478   6.89441   6.89959   6.94372   6.94892
 Alpha virt. eigenvalues --    6.98904   6.99422   7.07666   7.08190   7.12277
 Alpha virt. eigenvalues --    7.12796   7.18072   7.18592   7.46969   7.47491
 Alpha virt. eigenvalues --    7.70095   7.70617   8.14846   8.15365  12.49063
 Alpha virt. eigenvalues --   12.49580
          Condensed to atoms (all electrons):
               1          2          3          4          5          6
     1  O    7.817806   0.345667   0.346620  -0.000000  -0.000000   0.000000
     2  H    0.345667   0.436840  -0.036618   0.000000   0.000000  -0.000000
     3  H    0.346620  -0.036618   0.434015   0.000000   0.000000  -0.000000
     4  O   -0.000000   0.000000   0.000000   7.817966   0.345368   0.346488
     5  H   -0.000000   0.000000   0.000000   0.345368   0.438355  -0.036603
     6  H    0.000000  -0.000000  -0.000000   0.346488  -0.036603   0.433176
 Mulliken charges:
               1
     1  O   -0.510093
     2  H    0.254111
     3  H    0.255983
     4  O   -0.509821
     5  H    0.252881
     6  H    0.256940
 Sum of Mulliken charges =  -0.00000
 Mulliken charges with hydrogens summed into heavy atoms:
               1
     1  O    0.000000
     4  O   -0.000000
 Electronic spatial extent (au):  <R**2>=            892.6069
 Charge=             -0.0000 electrons
 Dipole moment (field-independent basis, Debye):
    X=             -1.9635    Y=             -1.8580    Z=              0.0000  Tot=              2.7033
 Quadrupole moment (field-independent basis, Debye-Ang):
   XX=             -9.8555   YY=              4.4499   ZZ=            -14.7125
   XY=             -6.8295   XZ=              0.0000   YZ=              0.0000
 Traceless Quadrupole moment (field-independent basis, Debye-Ang):
   XX=             -3.1495   YY=             11.1560   ZZ=             -8.0065
   XY=             -6.8295   XZ=              0.0000   YZ=              0.0000
 Octapole moment (field-independent basis, Debye-Ang**2):
  XXX=             -0.7412  YYY=            -44.4028  ZZZ=              0.0000  XYY=            -23.4888
  XXY=             -8.8211  XXZ=              0.0000  XZZ=             -0.2579  YZZ=             -0.2498
  YYZ=              0.0000  XYZ=              0.0000
 Hexadecapole moment (field-independent basis, Debye-Ang**3):
 XXXX=            -12.0851 YYYY=           -374.2675 ZZZZ=            -11.3368 XXXY=              1.8884
 XXXZ=              0.0000 YYYX=            -91.2385 YYYZ=              0.0000 ZZZX=              0.0000
 ZZZY=              0.0000 XXYY=           -113.2740 XXZZ=             -4.3850 YYZZ=           -180.5558
 XXYZ=              0.0000 YYXZ=              0.0000 ZZXY=              1.9742
 N-N= 2.551399112787D+01 E-N=-4.124659281837D+02  KE= 1.518043599398D+02
 Symmetry A'   KE= 1.427675296829D+02
 Symmetry A"   KE= 9.036830256898D+00
 Leave Link  601 at Sat Aug 27 10:17:01 2022, MaxMem=   536870912 cpu:               0.1 elap:               0.0
 (Enter /usr/site/hpc/x86_64/glibc-2.17/broadwell/gaussian/g16_a.03/pgi-16.5/g16/l9999.exe)
 1\1\GINC-N003\SP\RCCSD(T)-FC\CC-pVTZ\H4O2\C7441284\27-Aug-2022\0\\#p C
 CSD(T)/cc-pVTZ\\H2O_H2O_4948\\0,1\O,0,0.,-0.009833,0.\H,0,-0.799571,-0
 .580965,0.\H,0,0.799571,-0.580965,0.\O,0,-0.009812,6.826763,0.\H,0,-0.
 527427,7.661976,0.\H,0,-0.632016,6.066257,0.\\Version=ES64L-G16RevA.03
 \State=1-A'\HF=-152.1076127\MP2=-152.6334681\MP3=-152.6410429\MP4D=-15
 2.6501455\MP4DQ=-152.6425948\MP4SDQ=-152.6456478\CCSD=-152.6450617\CCS
 D(T)=-152.6606843\RMSD=7.045e-09\PG=CS [SG(H4O2)]\\@


 CHARLIE BROWN.."I CAN'T GET THAT STUPID KITE IN THE
 AIR... I CAN'T... I C A N N O T..."
 LUCY.."OH COME NOW CHARLIE BROWN...THAT'S NO WAY TO TALK...
 THE TROUBLE WITH YOU IS YOU DON'T BELIEVE IN YOURSELF... YOU
 DON'T BELIEVE IN YOUR OWN ABILITIES...  YOU'VE GOT TO SAY TO
 YOURSELF...'I BELIEVE I CAN FLY THIS KITE.'... GO AHEAD SAY
 IT...."
 CHARLIE BROWN.."I BELIEVE THAT I CAN FLY THIS STUPID
 KITE.....I BELIEVE THAT I CAN FLY THIS KITE........
 I  A C T U A L L Y  B E L I E V E  T H A T  I  C A N ******"
 LUCY.."I'LL BET YOU TEN-TO-ONE YOU'RE WRONG......."    SCHULZ
 Job cpu time:       0 days  0 hours  1 minutes 18.4 seconds.
 Elapsed time:       0 days  0 hours  0 minutes 20.2 seconds.
 File lengths (MBytes):  RWF=    568 Int=      0 D2E=      0 Chk=      8 Scr=      8
 Normal termination of Gaussian 16 at Sat Aug 27 10:17:01 2022.
