 Entering Gaussian System, Link 0=g16
 Input=H2O_H2O_4144.com
 Output=H2O_H2O_4144.log
 Initial command:
 /usr/site/hpc/x86_64/glibc-2.17/broadwell/gaussian/g16_a.03/pgi-16.5/g16/l1.exe "/gpfs/gpfs1/scratch/c7441284/ForceFieldModel/FittingData/Gau-3640909.inp" -scrdir="/gpfs/gpfs1/scratch/c7441284/ForceFieldModel/FittingData/"
 Entering Link 1 = /usr/site/hpc/x86_64/glibc-2.17/broadwell/gaussian/g16_a.03/pgi-16.5/g16/l1.exe PID=   3640910.
  
 Copyright (c) 1988,1990,1992,1993,1995,1998,2003,2009,2016,
            Gaussian, Inc.  All Rights Reserved.
  
 This is part of the Gaussian(R) 16 program.  It is based on
 the Gaussian(R) 09 system (copyright 2009, Gaussian, Inc.),
 the Gaussian(R) 03 system (copyright 2003, Gaussian, Inc.),
 the Gaussian(R) 98 system (copyright 1998, Gaussian, Inc.),
 the Gaussian(R) 94 system (copyright 1995, Gaussian, Inc.),
 the Gaussian 92(TM) system (copyright 1992, Gaussian, Inc.),
 the Gaussian 90(TM) system (copyright 1990, Gaussian, Inc.),
 the Gaussian 88(TM) system (copyright 1988, Gaussian, Inc.),
 the Gaussian 86(TM) system (copyright 1986, Carnegie Mellon
 University), and the Gaussian 82(TM) system (copyright 1983,
 Carnegie Mellon University). Gaussian is a federally registered
 trademark of Gaussian, Inc.
  
 This software contains proprietary and confidential information,
 including trade secrets, belonging to Gaussian, Inc.
  
 This software is provided under written license and may be
 used, copied, transmitted, or stored only in accord with that
 written license.
  
 The following legend is applicable only to US Government
 contracts under FAR:
  
                    RESTRICTED RIGHTS LEGEND
  
 Use, reproduction and disclosure by the US Government is
 subject to restrictions as set forth in subparagraphs (a)
 and (c) of the Commercial Computer Software - Restricted
 Rights clause in FAR 52.227-19.
  
 Gaussian, Inc.
 340 Quinnipiac St., Bldg. 40, Wallingford CT 06492
  
  
 ---------------------------------------------------------------
 Warning -- This program may not be used in any manner that
 competes with the business of Gaussian, Inc. or will provide
 assistance to any competitor of Gaussian, Inc.  The licensee
 of this program is prohibited from giving any competitor of
 Gaussian, Inc. access to this program.  By using this program,
 the user acknowledges that Gaussian, Inc. is engaged in the
 business of creating and licensing software in the field of
 computational chemistry and represents and warrants to the
 licensee that it is not a competitor of Gaussian, Inc. and that
 it will not use this program in any manner prohibited above.
 ---------------------------------------------------------------
  

 Cite this work as:
 Gaussian 16, Revision A.03,
 M. J. Frisch, G. W. Trucks, H. B. Schlegel, G. E. Scuseria, 
 M. A. Robb, J. R. Cheeseman, G. Scalmani, V. Barone, 
 G. A. Petersson, H. Nakatsuji, X. Li, M. Caricato, A. V. Marenich, 
 J. Bloino, B. G. Janesko, R. Gomperts, B. Mennucci, H. P. Hratchian, 
 J. V. Ortiz, A. F. Izmaylov, J. L. Sonnenberg, D. Williams-Young, 
 F. Ding, F. Lipparini, F. Egidi, J. Goings, B. Peng, A. Petrone, 
 T. Henderson, D. Ranasinghe, V. G. Zakrzewski, J. Gao, N. Rega, 
 G. Zheng, W. Liang, M. Hada, M. Ehara, K. Toyota, R. Fukuda, 
 J. Hasegawa, M. Ishida, T. Nakajima, Y. Honda, O. Kitao, H. Nakai, 
 T. Vreven, K. Throssell, J. A. Montgomery, Jr., J. E. Peralta, 
 F. Ogliaro, M. J. Bearpark, J. J. Heyd, E. N. Brothers, K. N. Kudin, 
 V. N. Staroverov, T. A. Keith, R. Kobayashi, J. Normand, 
 K. Raghavachari, A. P. Rendell, J. C. Burant, S. S. Iyengar, 
 J. Tomasi, M. Cossi, J. M. Millam, M. Klene, C. Adamo, R. Cammi, 
 J. W. Ochterski, R. L. Martin, K. Morokuma, O. Farkas, 
 J. B. Foresman, and D. J. Fox, Gaussian, Inc., Wallingford CT, 2016.
 
 ******************************************
 Gaussian 16:  ES64L-G16RevA.03 25-Dec-2016
                27-Aug-2022 
 ******************************************
 %NProcShared=4
 Will use up to    4 processors via shared memory.
 %Mem=4GB
 %Chk=H2O_H2O_4144.chk
 ------------------
 #p CCSD(T)/cc-pVTZ
 ------------------
 1/38=1,172=1/1;
 2/12=2,17=6,18=5,40=1/2;
 3/5=16,6=1,11=9,25=1,30=1/1,2,3;
 4//1;
 5/5=2,38=5/2;
 8/6=4,9=120000,10=1/1,4;
 9/5=7,14=2/13;
 6/7=2,8=2,9=2,10=2/1;
 99/5=1,9=1/99;
 Leave Link    1 at Sat Aug 27 05:37:20 2022, MaxMem=   536870912 cpu:               0.2 elap:               0.1
 (Enter /usr/site/hpc/x86_64/glibc-2.17/broadwell/gaussian/g16_a.03/pgi-16.5/g16/l101.exe)
 ------------
 H2O_H2O_4144
 ------------
 Symbolic Z-matrix:
 Charge =  0 Multiplicity = 1
 O                     0.       -0.00983   0. 
 H                    -0.79957  -0.58097   0. 
 H                     0.79957  -0.58097   0. 
 O                    -0.00931   5.97834   0. 
 H                    -0.29312   6.91907   0. 
 H                    -0.80715   5.40479   0. 
 
 ITRead=  0  0  0  0  0  0
 MicOpt= -1 -1 -1 -1 -1 -1
 NAtoms=      6 NQM=        6 NQMF=       0 NMMI=      0 NMMIF=      0
                NMic=       0 NMicF=      0.
                    Isotopes and Nuclear Properties:
 (Nuclear quadrupole moments (NQMom) in fm**2, nuclear magnetic moments (NMagM)
  in nuclear magnetons)

  Atom         1           2           3           4           5           6
 IAtWgt=          16           1           1          16           1           1
 AtmWgt=  15.9949146   1.0078250   1.0078250  15.9949146   1.0078250   1.0078250
 NucSpn=           0           1           1           0           1           1
 AtZEff=  -0.0000000  -0.0000000  -0.0000000  -0.0000000  -0.0000000  -0.0000000
 NQMom=    0.0000000   0.0000000   0.0000000   0.0000000   0.0000000   0.0000000
 NMagM=    0.0000000   2.7928460   2.7928460   0.0000000   2.7928460   2.7928460
 AtZNuc=   8.0000000   1.0000000   1.0000000   8.0000000   1.0000000   1.0000000
 Leave Link  101 at Sat Aug 27 05:37:20 2022, MaxMem=   536870912 cpu:               0.3 elap:               0.1
 (Enter /usr/site/hpc/x86_64/glibc-2.17/broadwell/gaussian/g16_a.03/pgi-16.5/g16/l202.exe)
                          Input orientation:                          
 ---------------------------------------------------------------------
 Center     Atomic      Atomic             Coordinates (Angstroms)
 Number     Number       Type             X           Y           Z
 ---------------------------------------------------------------------
      1          8           0        0.000000   -0.009833    0.000000
      2          1           0       -0.799571   -0.580965    0.000000
      3          1           0        0.799571   -0.580965    0.000000
      4          8           0       -0.009311    5.978343    0.000000
      5          1           0       -0.293120    6.919065    0.000000
      6          1           0       -0.807147    5.404789    0.000000
 ---------------------------------------------------------------------
                    Distance matrix (angstroms):
                    1          2          3          4          5
     1  O    0.000000
     2  H    0.982601   0.000000
     3  H    0.982601   1.599142   0.000000
     4  O    5.988183   6.606741   6.608995   0.000000
     5  H    6.935095   7.517110   7.579210   0.982601   0.000000
     6  H    5.474451   5.985759   6.197644   0.982602   1.599142
                    6
     6  H    0.000000
 Stoichiometry    H4O2
 Framework group  CS[SG(H4O2)]
 Deg. of freedom     9
 Full point group                 CS      NOp   2
 Largest Abelian subgroup         CS      NOp   2
 Largest concise Abelian subgroup C1      NOp   1
                         Standard orientation:                         
 ---------------------------------------------------------------------
 Center     Atomic      Atomic             Coordinates (Angstroms)
 Number     Number       Type             X           Y           Z
 ---------------------------------------------------------------------
      1          8           0        0.054142   -2.955421    0.000000
      2          1           0       -0.746316   -3.525309    0.000000
      3          1           0        0.852824   -3.527796    0.000000
      4          8           0        0.054142    3.032762    0.000000
      5          1           0       -0.228203    3.973924    0.000000
      6          1           0       -0.744584    2.460450    0.000000
 ---------------------------------------------------------------------
 Rotational constants (GHZ):         259.1512596           1.5134449           1.5046577
 Leave Link  202 at Sat Aug 27 05:37:21 2022, MaxMem=   536870912 cpu:               0.1 elap:               0.0
 (Enter /usr/site/hpc/x86_64/glibc-2.17/broadwell/gaussian/g16_a.03/pgi-16.5/g16/l301.exe)
 Standard basis: CC-pVTZ (5D, 7F)
 Ernie: Thresh=  0.10000D-02 Tol=  0.10000D-05 Strict=F.
 Ernie:  6 primitive shells out of 84 were deleted.
 There are    92 symmetry adapted cartesian basis functions of A'  symmetry.
 There are    38 symmetry adapted cartesian basis functions of A"  symmetry.
 There are    80 symmetry adapted basis functions of A'  symmetry.
 There are    36 symmetry adapted basis functions of A"  symmetry.
   116 basis functions,   172 primitive gaussians,   130 cartesian basis functions
    10 alpha electrons       10 beta electrons
       nuclear repulsion energy        26.5300999232 Hartrees.
 IExCor=    0 DFT=F Ex=HF Corr=None ExCW=0 ScaHFX=  1.000000
 ScaDFX=  1.000000  1.000000  1.000000  1.000000 ScalE2=  1.000000  1.000000
 IRadAn=      5 IRanWt=     -1 IRanGd=            0 ICorTp=0 IEmpDi=  4
 NAtoms=    6 NActive=    6 NUniq=    6 SFac= 1.00D+00 NAtFMM=   60 NAOKFM=F Big=F
 Integral buffers will be    131072 words long.
 Raffenetti 1 integral format.
 Two-electron integral symmetry is turned on.
 Leave Link  301 at Sat Aug 27 05:37:21 2022, MaxMem=   536870912 cpu:               0.2 elap:               0.1
 (Enter /usr/site/hpc/x86_64/glibc-2.17/broadwell/gaussian/g16_a.03/pgi-16.5/g16/l302.exe)
 NPDir=0 NMtPBC=     1 NCelOv=     1 NCel=       1 NClECP=     1 NCelD=      1
         NCelK=      1 NCelE2=     1 NClLst=     1 CellRange=     0.0.
 One-electron integrals computed using PRISM.
 One-electron integral symmetry used in STVInt
 NBasis=   116 RedAO= T EigKep=  2.68D-03  NBF=    80    36
 NBsUse=   116 1.00D-06 EigRej= -1.00D+00 NBFU=    80    36
 Leave Link  302 at Sat Aug 27 05:37:21 2022, MaxMem=   536870912 cpu:               0.4 elap:               0.1
 (Enter /usr/site/hpc/x86_64/glibc-2.17/broadwell/gaussian/g16_a.03/pgi-16.5/g16/l303.exe)
 DipDrv:  MaxL=1.
 Leave Link  303 at Sat Aug 27 05:37:21 2022, MaxMem=   536870912 cpu:               0.1 elap:               0.0
 (Enter /usr/site/hpc/x86_64/glibc-2.17/broadwell/gaussian/g16_a.03/pgi-16.5/g16/l401.exe)
 ExpMin= 1.03D-01 ExpMax= 1.53D+04 ExpMxC= 5.22D+02 IAcc=3 IRadAn=         5 AccDes= 0.00D+00
 Harris functional with IExCor=  205 and IRadAn=       5 diagonalized for initial guess.
 HarFok:  IExCor=  205 AccDes= 0.00D+00 IRadAn=         5 IDoV= 1 UseB2=F ITyADJ=14
 ICtDFT=  3500011 ScaDFX=  1.000000  1.000000  1.000000  1.000000
 FoFCou: FMM=F IPFlag=           0 FMFlag=      100000 FMFlg1=           0
         NFxFlg=           0 DoJE=T BraDBF=F KetDBF=T FulRan=T
         wScrn=  0.000000 ICntrl=       500 IOpCl=  0 I1Cent=   200000004 NGrid=           0
         NMat0=    1 NMatS0=      1 NMatT0=    0 NMatD0=    1 NMtDS0=    0 NMtDT0=    0
 Petite list used in FoFCou.
 Harris En= -152.298682362553    
 JPrj=0 DoOrth=F DoCkMO=F.
 Initial guess orbital symmetries:
       Occupied  (A') (A') (A') (A') (A') (A') (A') (A') (A") (A")
       Virtual   (A') (A') (A') (A') (A') (A') (A') (A') (A') (A')
                 (A") (A") (A') (A') (A') (A') (A") (A") (A") (A")
                 (A') (A') (A') (A') (A') (A') (A') (A') (A") (A")
                 (A") (A") (A') (A') (A') (A') (A') (A') (A') (A')
                 (A') (A') (A") (A") (A') (A') (A") (A") (A") (A")
                 (A') (A') (A') (A') (A') (A') (A") (A") (A') (A')
                 (A') (A') (A") (A") (A") (A") (A') (A') (A') (A')
                 (A") (A") (A') (A') (A') (A') (A') (A') (A') (A')
                 (A") (A") (A') (A') (A") (A") (A") (A") (A') (A')
                 (A") (A") (A') (A') (A') (A') (A") (A") (A') (A')
                 (A') (A') (A') (A') (A') (A')
 The electronic state of the initial guess is 1-A'.
 Leave Link  401 at Sat Aug 27 05:37:21 2022, MaxMem=   536870912 cpu:               0.7 elap:               0.2
 (Enter /usr/site/hpc/x86_64/glibc-2.17/broadwell/gaussian/g16_a.03/pgi-16.5/g16/l502.exe)
 Keep R1 ints in memory in symmetry-blocked form, NReq=34823457.
 FoFCou: FMM=F IPFlag=           0 FMFlag=           0 FMFlg1=           0
         NFxFlg=           0 DoJE=F BraDBF=F KetDBF=F FulRan=T
         wScrn=  0.000000 ICntrl=       600 IOpCl=  0 I1Cent=           0 NGrid=           0
         NMat0=    1 NMatS0=   6786 NMatT0=    0 NMatD0=    1 NMtDS0=    0 NMtDT0=    0
 Petite list used in FoFCou.
 Closed shell SCF:
 Using DIIS extrapolation, IDIIS=  1040.
 NGot=   536870912 LenX=   525040673 LenY=   525023332
 Requested convergence on RMS density matrix=1.00D-08 within 128 cycles.
 Requested convergence on MAX density matrix=1.00D-06.
 Requested convergence on             energy=1.00D-06.
 No special actions if energy rises.

 Cycle   1  Pass 1  IDiag  1:
 E= -151.926867978803    
 DIIS: error= 6.17D-02 at cycle   1 NSaved=   1.
 NSaved= 1 IEnMin= 1 EnMin= -151.926867978803     IErMin= 1 ErrMin= 6.17D-02
 ErrMax= 6.17D-02  0.00D+00 EMaxC= 1.00D-01 BMatC= 4.00D-01 BMatP= 4.00D-01
 IDIUse=3 WtCom= 3.83D-01 WtEn= 6.17D-01
 Coeff-Com:  0.100D+01
 Coeff-En:   0.100D+01
 Coeff:      0.100D+01
 Gap=     0.520 Goal=   None    Shift=    0.000
 GapD=    0.520 DampG=2.000 DampE=0.500 DampFc=1.0000 IDamp=-1.
 RMSDP=2.51D-03 MaxDP=6.65D-02              OVMax= 1.27D-01

 Cycle   2  Pass 1  IDiag  1:
 E= -152.038716154701     Delta-E=       -0.111848175898 Rises=F Damp=F
 DIIS: error= 3.88D-02 at cycle   2 NSaved=   2.
 NSaved= 2 IEnMin= 2 EnMin= -152.038716154701     IErMin= 2 ErrMin= 3.88D-02
 ErrMax= 3.88D-02  0.00D+00 EMaxC= 1.00D-01 BMatC= 1.13D-01 BMatP= 4.00D-01
 IDIUse=3 WtCom= 6.12D-01 WtEn= 3.88D-01
 Coeff-Com:  0.320D+00 0.680D+00
 Coeff-En:   0.167D+00 0.833D+00
 Coeff:      0.260D+00 0.740D+00
 Gap=     0.659 Goal=   None    Shift=    0.000
 RMSDP=1.32D-03 MaxDP=3.94D-02 DE=-1.12D-01 OVMax= 5.70D-02

 Cycle   3  Pass 1  IDiag  1:
 E= -152.103837185628     Delta-E=       -0.065121030927 Rises=F Damp=F
 DIIS: error= 8.26D-03 at cycle   3 NSaved=   3.
 NSaved= 3 IEnMin= 3 EnMin= -152.103837185628     IErMin= 3 ErrMin= 8.26D-03
 ErrMax= 8.26D-03  0.00D+00 EMaxC= 1.00D-01 BMatC= 5.64D-03 BMatP= 1.13D-01
 IDIUse=3 WtCom= 9.17D-01 WtEn= 8.26D-02
 Coeff-Com: -0.304D-01 0.151D+00 0.880D+00
 Coeff-En:   0.000D+00 0.000D+00 0.100D+01
 Coeff:     -0.279D-01 0.138D+00 0.890D+00
 Gap=     0.632 Goal=   None    Shift=    0.000
 RMSDP=2.36D-04 MaxDP=5.46D-03 DE=-6.51D-02 OVMax= 1.31D-02

 Cycle   4  Pass 1  IDiag  1:
 E= -152.107368675509     Delta-E=       -0.003531489882 Rises=F Damp=F
 DIIS: error= 7.73D-04 at cycle   4 NSaved=   4.
 NSaved= 4 IEnMin= 4 EnMin= -152.107368675509     IErMin= 4 ErrMin= 7.73D-04
 ErrMax= 7.73D-04  0.00D+00 EMaxC= 1.00D-01 BMatC= 3.41D-05 BMatP= 5.64D-03
 IDIUse=3 WtCom= 9.92D-01 WtEn= 7.73D-03
 Coeff-Com:  0.692D-02-0.597D-01-0.247D+00 0.130D+01
 Coeff-En:   0.000D+00 0.000D+00 0.000D+00 0.100D+01
 Coeff:      0.687D-02-0.592D-01-0.246D+00 0.130D+01
 Gap=     0.635 Goal=   None    Shift=    0.000
 RMSDP=5.15D-05 MaxDP=1.00D-03 DE=-3.53D-03 OVMax= 2.25D-03

 Cycle   5  Pass 1  IDiag  1:
 E= -152.107417379546     Delta-E=       -0.000048704036 Rises=F Damp=F
 DIIS: error= 1.82D-04 at cycle   5 NSaved=   5.
 NSaved= 5 IEnMin= 5 EnMin= -152.107417379546     IErMin= 5 ErrMin= 1.82D-04
 ErrMax= 1.82D-04  0.00D+00 EMaxC= 1.00D-01 BMatC= 1.33D-06 BMatP= 3.41D-05
 IDIUse=3 WtCom= 9.98D-01 WtEn= 1.82D-03
 Coeff-Com:  0.533D-03 0.275D-03-0.238D-02-0.216D+00 0.122D+01
 Coeff-En:   0.000D+00 0.000D+00 0.000D+00 0.000D+00 0.100D+01
 Coeff:      0.532D-03 0.275D-03-0.237D-02-0.215D+00 0.122D+01
 Gap=     0.635 Goal=   None    Shift=    0.000
 RMSDP=1.40D-05 MaxDP=2.86D-04 DE=-4.87D-05 OVMax= 6.80D-04

 Cycle   6  Pass 1  IDiag  1:
 E= -152.107420151298     Delta-E=       -0.000002771752 Rises=F Damp=F
 DIIS: error= 2.88D-05 at cycle   6 NSaved=   6.
 NSaved= 6 IEnMin= 6 EnMin= -152.107420151298     IErMin= 6 ErrMin= 2.88D-05
 ErrMax= 2.88D-05  0.00D+00 EMaxC= 1.00D-01 BMatC= 3.38D-08 BMatP= 1.33D-06
 IDIUse=1 WtCom= 1.00D+00 WtEn= 0.00D+00
 Coeff-Com: -0.276D-03 0.158D-02 0.699D-02-0.243D-03-0.260D+00 0.125D+01
 Coeff:     -0.276D-03 0.158D-02 0.699D-02-0.243D-03-0.260D+00 0.125D+01
 Gap=     0.635 Goal=   None    Shift=    0.000
 RMSDP=3.01D-06 MaxDP=6.58D-05 DE=-2.77D-06 OVMax= 1.53D-04

 Cycle   7  Pass 1  IDiag  1:
 E= -152.107420247282     Delta-E=       -0.000000095984 Rises=F Damp=F
 DIIS: error= 5.37D-06 at cycle   7 NSaved=   7.
 NSaved= 7 IEnMin= 7 EnMin= -152.107420247282     IErMin= 7 ErrMin= 5.37D-06
 ErrMax= 5.37D-06  0.00D+00 EMaxC= 1.00D-01 BMatC= 1.78D-09 BMatP= 3.38D-08
 IDIUse=1 WtCom= 1.00D+00 WtEn= 0.00D+00
 Coeff-Com:  0.304D-04-0.372D-03-0.161D-02 0.137D-01-0.146D-01-0.216D+00
 Coeff-Com:  0.122D+01
 Coeff:      0.304D-04-0.372D-03-0.161D-02 0.137D-01-0.146D-01-0.216D+00
 Coeff:      0.122D+01
 Gap=     0.635 Goal=   None    Shift=    0.000
 RMSDP=4.35D-07 MaxDP=9.09D-06 DE=-9.60D-08 OVMax= 3.01D-05

 Cycle   8  Pass 1  IDiag  1:
 E= -152.107420251003     Delta-E=       -0.000000003721 Rises=F Damp=F
 DIIS: error= 1.59D-06 at cycle   8 NSaved=   8.
 NSaved= 8 IEnMin= 8 EnMin= -152.107420251003     IErMin= 8 ErrMin= 1.59D-06
 ErrMax= 1.59D-06  0.00D+00 EMaxC= 1.00D-01 BMatC= 1.20D-10 BMatP= 1.78D-09
 IDIUse=1 WtCom= 1.00D+00 WtEn= 0.00D+00
 Coeff-Com:  0.113D-04-0.406D-04-0.148D-03-0.202D-02 0.169D-01-0.410D-01
 Coeff-Com: -0.140D+00 0.117D+01
 Coeff:      0.113D-04-0.406D-04-0.148D-03-0.202D-02 0.169D-01-0.410D-01
 Coeff:     -0.140D+00 0.117D+01
 Gap=     0.635 Goal=   None    Shift=    0.000
 RMSDP=1.03D-07 MaxDP=2.46D-06 DE=-3.72D-09 OVMax= 6.74D-06

 Cycle   9  Pass 1  IDiag  1:
 E= -152.107420251224     Delta-E=       -0.000000000221 Rises=F Damp=F
 DIIS: error= 4.92D-07 at cycle   9 NSaved=   9.
 NSaved= 9 IEnMin= 9 EnMin= -152.107420251224     IErMin= 9 ErrMin= 4.92D-07
 ErrMax= 4.92D-07  0.00D+00 EMaxC= 1.00D-01 BMatC= 2.19D-11 BMatP= 1.20D-10
 IDIUse=1 WtCom= 1.00D+00 WtEn= 0.00D+00
 Coeff-Com:  0.422D-06 0.291D-04 0.139D-03-0.235D-02 0.801D-02 0.888D-02
 Coeff-Com: -0.178D+00 0.375D+00 0.788D+00
 Coeff:      0.422D-06 0.291D-04 0.139D-03-0.235D-02 0.801D-02 0.888D-02
 Coeff:     -0.178D+00 0.375D+00 0.788D+00
 Gap=     0.635 Goal=   None    Shift=    0.000
 RMSDP=2.72D-08 MaxDP=6.18D-07 DE=-2.21D-10 OVMax= 1.79D-06

 Cycle  10  Pass 1  IDiag  1:
 E= -152.107420251247     Delta-E=       -0.000000000022 Rises=F Damp=F
 DIIS: error= 9.96D-08 at cycle  10 NSaved=  10.
 NSaved=10 IEnMin=10 EnMin= -152.107420251247     IErMin=10 ErrMin= 9.96D-08
 ErrMax= 9.96D-08  0.00D+00 EMaxC= 1.00D-01 BMatC= 4.72D-13 BMatP= 2.19D-11
 IDIUse=1 WtCom= 1.00D+00 WtEn= 0.00D+00
 Coeff-Com: -0.522D-06-0.435D-05-0.251D-04 0.563D-03-0.203D-02-0.194D-02
 Coeff-Com:  0.514D-01-0.151D+00-0.195D+00 0.130D+01
 Coeff:     -0.522D-06-0.435D-05-0.251D-04 0.563D-03-0.203D-02-0.194D-02
 Coeff:      0.514D-01-0.151D+00-0.195D+00 0.130D+01
 Gap=     0.635 Goal=   None    Shift=    0.000
 RMSDP=7.26D-09 MaxDP=2.06D-07 DE=-2.21D-11 OVMax= 4.34D-07

 SCF Done:  E(RHF) =  -152.107420251     A.U. after   10 cycles
            NFock= 10  Conv=0.73D-08     -V/T= 2.0020
 KE= 1.518045816006D+02 PE=-4.145244179665D+02 EE= 8.408231619144D+01
 Leave Link  502 at Sat Aug 27 05:37:22 2022, MaxMem=   536870912 cpu:               3.4 elap:               0.9
 (Enter /usr/site/hpc/x86_64/glibc-2.17/broadwell/gaussian/g16_a.03/pgi-16.5/g16/l801.exe)
 Windowed orbitals will be sorted by symmetry type.
 ExpMin= 1.03D-01 ExpMax= 1.53D+04 ExpMxC= 5.22D+02 IAcc=3 IRadAn=         5 AccDes= 0.00D+00
 HarFok:  IExCor=  205 AccDes= 0.00D+00 IRadAn=         5 IDoV=-2 UseB2=F ITyADJ=14
 ICtDFT= 12500011 ScaDFX=  1.000000  1.000000  1.000000  1.000000
 Largest valence mixing into a core orbital is  1.12D-04
 Largest core mixing into a valence orbital is  1.77D-05
 Range of M.O.s used for correlation:     3   116
 NBasis=   116 NAE=    10 NBE=    10 NFC=     2 NFV=     0
 NROrb=    114 NOA=     8 NOB=     8 NVA=   106 NVB=   106
 Leave Link  801 at Sat Aug 27 05:37:22 2022, MaxMem=   536870912 cpu:               0.3 elap:               0.1
 (Enter /usr/site/hpc/x86_64/glibc-2.17/broadwell/gaussian/g16_a.03/pgi-16.5/g16/l804.exe)
 Closed-shell transformation, MDV=   536870912 ITran=4 ISComp=2.
 Unit  1 TFree=        834515 TCopy=        406125.
 Semi-Direct transformation.
 ModeAB=           4 MOrb=             8 LenV=     536380707
 LASXX=      2873146 LTotXX=     2873146 LenRXX=     5831278
 LTotAB=     2958132 MaxLAS=     4947600 LenRXY=           0
 NonZer=     8704424 LenScr=    13107200 LnRSAI=     4947600
 LnScr1=     7864320 LExtra=           0 Total=     31750398
 MaxDsk=          -1 SrtSym=           T ITran=            4
 DoSDTr:  NPSUse=  4
 JobTyp=0 Pass  1:  I=   1 to   8.
 (rs|ai) integrals will be sorted in core.
 Complete sort for first half transformation.
 First half transformation complete.
 Complete sort for second half transformation.
 Second half transformation complete.
 Spin components of T(2) and E(2):
     alpha-alpha T2 =       0.1555883875D-01 E2=     -0.6379749365D-01
     alpha-beta  T2 =       0.9190726959D-01 E2=     -0.3982901759D+00
     beta-beta   T2 =       0.1555883875D-01 E2=     -0.6379749365D-01
 ANorm=    0.1059728714D+01
 E2 =    -0.5258851632D+00 EUMP2 =    -0.15263330541445D+03
 Leave Link  804 at Sat Aug 27 05:37:23 2022, MaxMem=   536870912 cpu:               2.8 elap:               0.7
 (Enter /usr/site/hpc/x86_64/glibc-2.17/broadwell/gaussian/g16_a.03/pgi-16.5/g16/l913.exe)
 CIDS:  MDV=   536870912.
 Frozen-core window:  NFC=   2 NFV=   0.
 IFCWin=0 IBDFC=1 NFBD=     0     0 NFCmp=     0     0 NFFFC=     0     0
 Using DD3R+UMP44R for 1st iteration.
 Using DD4RQ for 2nd and later iterations.
 Keep R2 and R3 ints in memory in symmetry-blocked form, NReq=35357534.
 FoFCou: FMM=F IPFlag=           0 FMFlag=           0 FMFlg1=           0
         NFxFlg=           0 DoJE=F BraDBF=F KetDBF=F FulRan=T
         wScrn=  0.000000 ICntrl=       600 IOpCl=  0 I1Cent=           0 NGrid=           0
         NMat0=    1 NMatS0=   6786 NMatT0=    0 NMatD0=    1 NMtDS0=    0 NMtDT0=    0
 Petite list used in FoFCou.
 CIDS: In Core Option IDoMem=           1.
 CCSD(T)
 =======
 Iterations=  50 Convergence= 0.100D-06
 Produce multiple copies of IABC intergrals
 Iteration Nr.   1
 **********************
 DD1Dir will call FoFMem   1 times, MxPair=        72
 NAB=    36 NAA=     0 NBB=     0.
 MP4(R+Q)=  0.75532559D-02
 Maximum subspace dimension=  5
 A-vector RMS=  1.7417645D-03 Max=  6.1989339D-03 conv= 1.00D-05.
 RLE energy=       -0.5258328596
 E3=       -0.75721581D-02        EUMP3=      -0.15264087757D+03
 E4(DQ)=   -0.15520861D-02        UMP4(DQ)=   -0.15264242966D+03
 E4(SDQ)=  -0.46072805D-02        UMP4(SDQ)=  -0.15264548485D+03
 VARIATIONAL ENERGIES WITH THE FIRST-ORDER WAVEFUNCTION:
 DE(Corr)= -0.52583286     E(Corr)=     -152.63325312    
 NORM(A)=   0.10600982D+01
 Iteration Nr.   2
 **********************
 DD1Dir will call FoFMem   1 times, MxPair=        72
 NAB=    36 NAA=     0 NBB=     0.
 A-vector RMS=  2.1224274D-04 Max=  2.3218744D-03 conv= 1.00D-05.
 RLE energy=       -0.5368939597
 DE(Corr)= -0.53573351     E(CORR)=     -152.64315376     Delta=-9.90D-03
 NORM(A)=   0.10638466D+01
 Iteration Nr.   3
 **********************
 DD1Dir will call FoFMem   1 times, MxPair=        72
 NAB=    36 NAA=     0 NBB=     0.
 A-vector RMS=  1.4113678D-04 Max=  9.0237316D-04 conv= 1.00D-05.
 RLE energy=       -0.5373896995
 DE(Corr)= -0.53680391     E(CORR)=     -152.64422416     Delta=-1.07D-03
 NORM(A)=   0.10644849D+01
 Iteration Nr.   4
 **********************
 DD1Dir will call FoFMem   1 times, MxPair=        72
 NAB=    36 NAA=     0 NBB=     0.
 A-vector RMS=  2.5810082D-05 Max=  1.4461786D-04 conv= 1.00D-05.
 RLE energy=       -0.5374729053
 DE(Corr)= -0.53743758     E(CORR)=     -152.64485783     Delta=-6.34D-04
 NORM(A)=   0.10645957D+01
 Iteration Nr.   5
 **********************
 DD1Dir will call FoFMem   1 times, MxPair=        72
 NAB=    36 NAA=     0 NBB=     0.
 A-vector RMS=  1.8756274D-05 Max=  1.6803882D-04 conv= 1.00D-05.
 RLE energy=       -0.5374812554
 DE(Corr)= -0.53747449     E(CORR)=     -152.64489474     Delta=-3.69D-05
 NORM(A)=   0.10646052D+01
 Iteration Nr.   6
 **********************
 DD1Dir will call FoFMem   1 times, MxPair=        72
 NAB=    36 NAA=     0 NBB=     0.
 A-vector RMS=  5.5280169D-06 Max=  4.3711559D-05 conv= 1.00D-05.
 RLE energy=       -0.5374720740
 DE(Corr)= -0.53747766     E(CORR)=     -152.64489792     Delta=-3.18D-06
 NORM(A)=   0.10646053D+01
 Iteration Nr.   7
 **********************
 DD1Dir will call FoFMem   1 times, MxPair=        72
 NAB=    36 NAA=     0 NBB=     0.
 A-vector RMS=  2.6564352D-06 Max=  2.4251317D-05 conv= 1.00D-05.
 RLE energy=       -0.5374788413
 DE(Corr)= -0.53747781     E(CORR)=     -152.64489806     Delta=-1.43D-07
 NORM(A)=   0.10646077D+01
 Iteration Nr.   8
 **********************
 DD1Dir will call FoFMem   1 times, MxPair=        72
 NAB=    36 NAA=     0 NBB=     0.
 A-vector RMS=  5.1325731D-07 Max=  4.3740063D-06 conv= 1.00D-05.
 RLE energy=       -0.5374772093
 DE(Corr)= -0.53747738     E(CORR)=     -152.64489763     Delta= 4.32D-07
 NORM(A)=   0.10646079D+01
 Iteration Nr.   9
 **********************
 DD1Dir will call FoFMem   1 times, MxPair=        72
 NAB=    36 NAA=     0 NBB=     0.
 A-vector RMS=  1.1292355D-07 Max=  8.5060503D-07 conv= 1.00D-05.
 RLE energy=       -0.5374777066
 DE(Corr)= -0.53747767     E(CORR)=     -152.64489792     Delta=-2.90D-07
 NORM(A)=   0.10646081D+01
 Iteration Nr.  10
 **********************
 DD1Dir will call FoFMem   1 times, MxPair=        72
 NAB=    36 NAA=     0 NBB=     0.
 A-vector RMS=  3.6500131D-08 Max=  2.9488886D-07 conv= 1.00D-05.
 RLE energy=       -0.5374776586
 DE(Corr)= -0.53747764     E(CORR)=     -152.64489789     Delta= 2.29D-08
 NORM(A)=   0.10646081D+01
 CI/CC converged in   10 iterations to DelEn= 2.29D-08 Conv= 1.00D-07 ErrA1= 3.65D-08 Conv= 1.00D-05
 Wavefunction amplitudes converged. E(Corr)=     -152.64489789    
 Largest amplitude= 4.79D-02
 IPart=  2 IA=    7   11.05% done.
 IPart=  3 IA=   13   21.46% done.
 IPart=  2 IA=   19   31.21% done.
 IPart=  3 IA=   25   40.32% done.
 IPart=  3 IA=   32   50.13% done.
 IPart=  3 IA=   40   60.27% done.
 IPart=  1 IA=   49   70.30% done.
 IPart=  2 IA=   60   80.58% done.
 IPart=  1 IA=   74   90.51% done.
 Time for triples=       52.00 seconds.
 T4(CCSD)= -0.16029944D-01
 T5(CCSD)=  0.40307814D-03
 CCSD(T)= -0.15266052476D+03
 Discarding MO integrals.
 Leave Link  913 at Sat Aug 27 05:37:42 2022, MaxMem=   536870912 cpu:              73.8 elap:              19.0
 (Enter /usr/site/hpc/x86_64/glibc-2.17/broadwell/gaussian/g16_a.03/pgi-16.5/g16/l601.exe)
 Copying SCF densities to generalized density rwf, IOpCl= 0 IROHF=0.

 **********************************************************************

            Population analysis using the SCF density.

 **********************************************************************

 Orbital symmetries:
       Occupied  (A') (A') (A') (A') (A') (A') (A') (A') (A") (A")
       Virtual   (A') (A') (A') (A') (A') (A') (A') (A') (A') (A')
                 (A") (A") (A') (A') (A') (A') (A") (A") (A") (A")
                 (A') (A') (A') (A') (A') (A') (A') (A') (A") (A")
                 (A") (A") (A') (A') (A') (A') (A') (A') (A') (A')
                 (A') (A') (A") (A") (A') (A') (A") (A") (A') (A')
                 (A") (A") (A') (A') (A') (A') (A") (A") (A") (A")
                 (A') (A') (A') (A') (A") (A") (A') (A') (A') (A')
                 (A") (A") (A') (A') (A') (A') (A') (A') (A') (A')
                 (A") (A") (A') (A') (A") (A") (A") (A") (A') (A')
                 (A") (A") (A') (A') (A') (A') (A") (A") (A') (A')
                 (A') (A') (A') (A') (A') (A')
 The electronic state is 1-A'.
 Alpha  occ. eigenvalues --  -20.55596 -20.55094  -1.32895  -1.32391  -0.70302
 Alpha  occ. eigenvalues --   -0.69790  -0.56343  -0.55836  -0.50007  -0.49505
 Alpha virt. eigenvalues --    0.14044   0.14608   0.20150   0.20701   0.54256
 Alpha virt. eigenvalues --    0.54785   0.57179   0.57680   0.67770   0.68437
 Alpha virt. eigenvalues --    0.78873   0.79367   0.80302   0.80812   0.82281
 Alpha virt. eigenvalues --    0.82739   0.84750   0.85251   0.97191   0.97684
 Alpha virt. eigenvalues --    1.14663   1.15255   1.17063   1.17582   1.51610
 Alpha virt. eigenvalues --    1.51898   1.52114   1.52432   2.00610   2.01112
 Alpha virt. eigenvalues --    2.06672   2.07181   2.09338   2.09863   2.14791
 Alpha virt. eigenvalues --    2.15306   2.24911   2.25459   2.61426   2.61936
 Alpha virt. eigenvalues --    2.92796   2.93317   3.39292   3.39800   3.49849
 Alpha virt. eigenvalues --    3.50357   3.53043   3.53545   3.59421   3.59930
 Alpha virt. eigenvalues --    3.78589   3.79091   3.85351   3.85862   3.87540
 Alpha virt. eigenvalues --    3.88046   3.93496   3.94005   4.02953   4.03455
 Alpha virt. eigenvalues --    4.08109   4.08616   4.15175   4.15692   4.30035
 Alpha virt. eigenvalues --    4.30539   4.39835   4.40348   4.45486   4.45997
 Alpha virt. eigenvalues --    4.66442   4.66943   4.80802   4.81311   5.04133
 Alpha virt. eigenvalues --    5.04642   5.24001   5.24507   5.53961   5.54469
 Alpha virt. eigenvalues --    5.97845   5.98349   6.40307   6.40809   6.86097
 Alpha virt. eigenvalues --    6.86603   6.89577   6.90082   6.94508   6.95014
 Alpha virt. eigenvalues --    6.99044   6.99549   7.07804   7.08318   7.12423
 Alpha virt. eigenvalues --    7.12924   7.18212   7.18719   7.47108   7.47621
 Alpha virt. eigenvalues --    7.70237   7.70746   8.14981   8.15487  12.49192
 Alpha virt. eigenvalues --   12.49706
          Condensed to atoms (all electrons):
               1          2          3          4          5          6
     1  O    7.816973   0.345221   0.346780  -0.000000  -0.000000   0.000003
     2  H    0.345221   0.438301  -0.036628   0.000000   0.000000  -0.000000
     3  H    0.346780  -0.036628   0.433973   0.000000   0.000000  -0.000000
     4  O   -0.000000   0.000000   0.000000   7.817208   0.344783   0.346643
     5  H   -0.000000   0.000000   0.000000   0.344783   0.440155  -0.036654
     6  H    0.000003  -0.000000  -0.000000   0.346643  -0.036654   0.433093
 Mulliken charges:
               1
     1  O   -0.508977
     2  H    0.253106
     3  H    0.255875
     4  O   -0.508635
     5  H    0.251715
     6  H    0.256915
 Sum of Mulliken charges =  -0.00000
 Mulliken charges with hydrogens summed into heavy atoms:
               1
     1  O    0.000004
     4  O   -0.000004
 Electronic spatial extent (au):  <R**2>=            700.0380
 Charge=             -0.0000 electrons
 Dipole moment (field-independent basis, Debye):
    X=             -1.8594    Y=             -1.3544    Z=              0.0000  Tot=              2.3004
 Quadrupole moment (field-independent basis, Debye-Ang):
   XX=             -9.6484   YY=              5.5483   ZZ=            -14.7121
   XY=             -5.1953   XZ=              0.0000   YZ=              0.0000
 Traceless Quadrupole moment (field-independent basis, Debye-Ang):
   XX=             -3.3777   YY=             11.8190   ZZ=             -8.4414
   XY=             -5.1953   XZ=              0.0000   YZ=              0.0000
 Octapole moment (field-independent basis, Debye-Ang**2):
  XXX=             -1.0495  YYY=            -19.1503  ZZZ=              0.0000  XYY=            -13.8760
  XXY=             -7.7488  XXZ=              0.0000  XZZ=             -0.2435  YZZ=             -0.1836
  YYZ=              0.0000  XYZ=              0.0000
 Hexadecapole moment (field-independent basis, Debye-Ang**3):
 XXXX=            -11.7541 YYYY=           -267.6426 ZZZZ=            -11.3361 XXXY=              0.8233
 XXXZ=              0.0000 YYYX=            -43.3775 YYYZ=              0.0000 ZZZX=              0.0000
 ZZZY=              0.0000 XXYY=            -88.8062 XXZZ=             -4.4029 YYZZ=           -140.9032
 XXYZ=              0.0000 YYXZ=              0.0000 ZZXY=              1.5926
 N-N= 2.653009992322D+01 E-N=-4.145244166879D+02  KE= 1.518045816006D+02
 Symmetry A'   KE= 1.427674902139D+02
 Symmetry A"   KE= 9.037091386672D+00
 Leave Link  601 at Sat Aug 27 05:37:42 2022, MaxMem=   536870912 cpu:               0.1 elap:               0.1
 (Enter /usr/site/hpc/x86_64/glibc-2.17/broadwell/gaussian/g16_a.03/pgi-16.5/g16/l9999.exe)
 1\1\GINC-N003\SP\RCCSD(T)-FC\CC-pVTZ\H4O2\C7441284\27-Aug-2022\0\\#p C
 CSD(T)/cc-pVTZ\\H2O_H2O_4144\\0,1\O,0,0.,-0.009833,0.\H,0,-0.799571,-0
 .580965,0.\H,0,0.799571,-0.580965,0.\O,0,-0.009311,5.978343,0.\H,0,-0.
 29312,6.919065,0.\H,0,-0.807147,5.404789,0.\\Version=ES64L-G16RevA.03\
 State=1-A'\HF=-152.1074203\MP2=-152.6333054\MP3=-152.6408776\MP4D=-152
 .6499829\MP4DQ=-152.6424297\MP4SDQ=-152.6454849\CCSD=-152.6448979\CCSD
 (T)=-152.6605248\RMSD=7.257e-09\PG=CS [SG(H4O2)]\\@


 MISERY NO LONGER LOVES COMPANY.  NOWADAYS IT INSISTS ON IT.

                                              -- BAKER'S LAW
 Job cpu time:       0 days  0 hours  1 minutes 22.4 seconds.
 Elapsed time:       0 days  0 hours  0 minutes 21.5 seconds.
 File lengths (MBytes):  RWF=    312 Int=      0 D2E=      0 Chk=      8 Scr=      8
 Normal termination of Gaussian 16 at Sat Aug 27 05:37:42 2022.
