 Entering Gaussian System, Link 0=g16
 Input=H2O_H2O_1076.com
 Output=H2O_H2O_1076.log
 Initial command:
 /usr/site/hpc/x86_64/glibc-2.17/broadwell/gaussian/g16_a.03/pgi-16.5/g16/l1.exe "/gpfs/gpfs1/scratch/c7441284/ForceFieldModel/FittingData/Gau-3518195.inp" -scrdir="/gpfs/gpfs1/scratch/c7441284/ForceFieldModel/FittingData/"
 Entering Link 1 = /usr/site/hpc/x86_64/glibc-2.17/broadwell/gaussian/g16_a.03/pgi-16.5/g16/l1.exe PID=   3518196.
  
 Copyright (c) 1988,1990,1992,1993,1995,1998,2003,2009,2016,
            Gaussian, Inc.  All Rights Reserved.
  
 This is part of the Gaussian(R) 16 program.  It is based on
 the Gaussian(R) 09 system (copyright 2009, Gaussian, Inc.),
 the Gaussian(R) 03 system (copyright 2003, Gaussian, Inc.),
 the Gaussian(R) 98 system (copyright 1998, Gaussian, Inc.),
 the Gaussian(R) 94 system (copyright 1995, Gaussian, Inc.),
 the Gaussian 92(TM) system (copyright 1992, Gaussian, Inc.),
 the Gaussian 90(TM) system (copyright 1990, Gaussian, Inc.),
 the Gaussian 88(TM) system (copyright 1988, Gaussian, Inc.),
 the Gaussian 86(TM) system (copyright 1986, Carnegie Mellon
 University), and the Gaussian 82(TM) system (copyright 1983,
 Carnegie Mellon University). Gaussian is a federally registered
 trademark of Gaussian, Inc.
  
 This software contains proprietary and confidential information,
 including trade secrets, belonging to Gaussian, Inc.
  
 This software is provided under written license and may be
 used, copied, transmitted, or stored only in accord with that
 written license.
  
 The following legend is applicable only to US Government
 contracts under FAR:
  
                    RESTRICTED RIGHTS LEGEND
  
 Use, reproduction and disclosure by the US Government is
 subject to restrictions as set forth in subparagraphs (a)
 and (c) of the Commercial Computer Software - Restricted
 Rights clause in FAR 52.227-19.
  
 Gaussian, Inc.
 340 Quinnipiac St., Bldg. 40, Wallingford CT 06492
  
  
 ---------------------------------------------------------------
 Warning -- This program may not be used in any manner that
 competes with the business of Gaussian, Inc. or will provide
 assistance to any competitor of Gaussian, Inc.  The licensee
 of this program is prohibited from giving any competitor of
 Gaussian, Inc. access to this program.  By using this program,
 the user acknowledges that Gaussian, Inc. is engaged in the
 business of creating and licensing software in the field of
 computational chemistry and represents and warrants to the
 licensee that it is not a competitor of Gaussian, Inc. and that
 it will not use this program in any manner prohibited above.
 ---------------------------------------------------------------
  

 Cite this work as:
 Gaussian 16, Revision A.03,
 M. J. Frisch, G. W. Trucks, H. B. Schlegel, G. E. Scuseria, 
 M. A. Robb, J. R. Cheeseman, G. Scalmani, V. Barone, 
 G. A. Petersson, H. Nakatsuji, X. Li, M. Caricato, A. V. Marenich, 
 J. Bloino, B. G. Janesko, R. Gomperts, B. Mennucci, H. P. Hratchian, 
 J. V. Ortiz, A. F. Izmaylov, J. L. Sonnenberg, D. Williams-Young, 
 F. Ding, F. Lipparini, F. Egidi, J. Goings, B. Peng, A. Petrone, 
 T. Henderson, D. Ranasinghe, V. G. Zakrzewski, J. Gao, N. Rega, 
 G. Zheng, W. Liang, M. Hada, M. Ehara, K. Toyota, R. Fukuda, 
 J. Hasegawa, M. Ishida, T. Nakajima, Y. Honda, O. Kitao, H. Nakai, 
 T. Vreven, K. Throssell, J. A. Montgomery, Jr., J. E. Peralta, 
 F. Ogliaro, M. J. Bearpark, J. J. Heyd, E. N. Brothers, K. N. Kudin, 
 V. N. Staroverov, T. A. Keith, R. Kobayashi, J. Normand, 
 K. Raghavachari, A. P. Rendell, J. C. Burant, S. S. Iyengar, 
 J. Tomasi, M. Cossi, J. M. Millam, M. Klene, C. Adamo, R. Cammi, 
 J. W. Ochterski, R. L. Martin, K. Morokuma, O. Farkas, 
 J. B. Foresman, and D. J. Fox, Gaussian, Inc., Wallingford CT, 2016.
 
 ******************************************
 Gaussian 16:  ES64L-G16RevA.03 25-Dec-2016
                27-Aug-2022 
 ******************************************
 %NProcShared=4
 Will use up to    4 processors via shared memory.
 %Mem=4GB
 %Chk=H2O_H2O_1076.chk
 ------------------
 #p CCSD(T)/cc-pVTZ
 ------------------
 1/38=1,172=1/1;
 2/12=2,17=6,18=5,40=1/2;
 3/5=16,6=1,11=9,25=1,30=1/1,2,3;
 4//1;
 5/5=2,38=5/2;
 8/6=4,9=120000,10=1/1,4;
 9/5=7,14=2/13;
 6/7=2,8=2,9=2,10=2/1;
 99/5=1,9=1/99;
 Leave Link    1 at Sat Aug 27 01:52:35 2022, MaxMem=   536870912 cpu:               0.3 elap:               0.1
 (Enter /usr/site/hpc/x86_64/glibc-2.17/broadwell/gaussian/g16_a.03/pgi-16.5/g16/l101.exe)
 ------------
 H2O_H2O_1076
 ------------
 Symbolic Z-matrix:
 Charge =  0 Multiplicity = 1
 O                     0.       -0.00983   0. 
 H                    -0.79957  -0.58097   0. 
 H                     0.79957  -0.58097   0. 
 O                    -0.00064   2.74079   0. 
 H                     0.75986   3.363     0. 
 H                    -0.83586   3.25841   0. 
 
 ITRead=  0  0  0  0  0  0
 MicOpt= -1 -1 -1 -1 -1 -1
 NAtoms=      6 NQM=        6 NQMF=       0 NMMI=      0 NMMIF=      0
                NMic=       0 NMicF=      0.
                    Isotopes and Nuclear Properties:
 (Nuclear quadrupole moments (NQMom) in fm**2, nuclear magnetic moments (NMagM)
  in nuclear magnetons)

  Atom         1           2           3           4           5           6
 IAtWgt=          16           1           1          16           1           1
 AtmWgt=  15.9949146   1.0078250   1.0078250  15.9949146   1.0078250   1.0078250
 NucSpn=           0           1           1           0           1           1
 AtZEff=  -0.0000000  -0.0000000  -0.0000000  -0.0000000  -0.0000000  -0.0000000
 NQMom=    0.0000000   0.0000000   0.0000000   0.0000000   0.0000000   0.0000000
 NMagM=    0.0000000   2.7928460   2.7928460   0.0000000   2.7928460   2.7928460
 AtZNuc=   8.0000000   1.0000000   1.0000000   8.0000000   1.0000000   1.0000000
 Leave Link  101 at Sat Aug 27 01:52:35 2022, MaxMem=   536870912 cpu:               0.3 elap:               0.1
 (Enter /usr/site/hpc/x86_64/glibc-2.17/broadwell/gaussian/g16_a.03/pgi-16.5/g16/l202.exe)
                          Input orientation:                          
 ---------------------------------------------------------------------
 Center     Atomic      Atomic             Coordinates (Angstroms)
 Number     Number       Type             X           Y           Z
 ---------------------------------------------------------------------
      1          8           0        0.000000   -0.009833    0.000000
      2          1           0       -0.799571   -0.580965    0.000000
      3          1           0        0.799571   -0.580965    0.000000
      4          8           0       -0.000643    2.740792    0.000000
      5          1           0        0.759863    3.362995    0.000000
      6          1           0       -0.835856    3.258407    0.000000
 ---------------------------------------------------------------------
                    Distance matrix (angstroms):
                    1          2          3          4          5
     1  O    0.000000
     2  H    0.982601   0.000000
     3  H    0.982601   1.599142   0.000000
     4  O    2.750625   3.416483   3.416784   0.000000
     5  H    3.457363   4.241068   3.944160   0.982602   0.000000
     6  H    3.373433   3.839543   4.173176   0.982602   1.599143
                    6
     6  H    0.000000
 Stoichiometry    H4O2
 Framework group  CS[SG(H4O2)]
 Deg. of freedom     9
 Full point group                 CS      NOp   2
 Largest Abelian subgroup         CS      NOp   2
 Largest concise Abelian subgroup C1      NOp   1
                         Standard orientation:                         
 ---------------------------------------------------------------------
 Center     Atomic      Atomic             Coordinates (Angstroms)
 Number     Number       Type             X           Y           Z
 ---------------------------------------------------------------------
      1          8           0        0.003735   -1.375191    0.000000
      2          1           0       -0.795969   -1.946136    0.000000
      3          1           0        0.803173   -1.946510    0.000000
      4          8           0        0.003735    1.375434    0.000000
      5          1           0        0.764387    1.997459    0.000000
      6          1           0       -0.831357    1.893244    0.000000
 ---------------------------------------------------------------------
 Rotational constants (GHZ):         196.3112039           6.6692543           6.4501250
 Leave Link  202 at Sat Aug 27 01:52:35 2022, MaxMem=   536870912 cpu:               0.0 elap:               0.0
 (Enter /usr/site/hpc/x86_64/glibc-2.17/broadwell/gaussian/g16_a.03/pgi-16.5/g16/l301.exe)
 Standard basis: CC-pVTZ (5D, 7F)
 Ernie: Thresh=  0.10000D-02 Tol=  0.10000D-05 Strict=F.
 Ernie:  6 primitive shells out of 84 were deleted.
 There are    92 symmetry adapted cartesian basis functions of A'  symmetry.
 There are    38 symmetry adapted cartesian basis functions of A"  symmetry.
 There are    80 symmetry adapted basis functions of A'  symmetry.
 There are    36 symmetry adapted basis functions of A"  symmetry.
   116 basis functions,   172 primitive gaussians,   130 cartesian basis functions
    10 alpha electrons       10 beta electrons
       nuclear repulsion energy        35.6890163794 Hartrees.
 IExCor=    0 DFT=F Ex=HF Corr=None ExCW=0 ScaHFX=  1.000000
 ScaDFX=  1.000000  1.000000  1.000000  1.000000 ScalE2=  1.000000  1.000000
 IRadAn=      5 IRanWt=     -1 IRanGd=            0 ICorTp=0 IEmpDi=  4
 NAtoms=    6 NActive=    6 NUniq=    6 SFac= 1.00D+00 NAtFMM=   60 NAOKFM=F Big=F
 Integral buffers will be    131072 words long.
 Raffenetti 1 integral format.
 Two-electron integral symmetry is turned on.
 Leave Link  301 at Sat Aug 27 01:52:36 2022, MaxMem=   536870912 cpu:               0.2 elap:               0.1
 (Enter /usr/site/hpc/x86_64/glibc-2.17/broadwell/gaussian/g16_a.03/pgi-16.5/g16/l302.exe)
 NPDir=0 NMtPBC=     1 NCelOv=     1 NCel=       1 NClECP=     1 NCelD=      1
         NCelK=      1 NCelE2=     1 NClLst=     1 CellRange=     0.0.
 One-electron integrals computed using PRISM.
 One-electron integral symmetry used in STVInt
 NBasis=   116 RedAO= T EigKep=  2.24D-03  NBF=    80    36
 NBsUse=   116 1.00D-06 EigRej= -1.00D+00 NBFU=    80    36
 Leave Link  302 at Sat Aug 27 01:52:36 2022, MaxMem=   536870912 cpu:               0.4 elap:               0.1
 (Enter /usr/site/hpc/x86_64/glibc-2.17/broadwell/gaussian/g16_a.03/pgi-16.5/g16/l303.exe)
 DipDrv:  MaxL=1.
 Leave Link  303 at Sat Aug 27 01:52:36 2022, MaxMem=   536870912 cpu:               0.1 elap:               0.0
 (Enter /usr/site/hpc/x86_64/glibc-2.17/broadwell/gaussian/g16_a.03/pgi-16.5/g16/l401.exe)
 ExpMin= 1.03D-01 ExpMax= 1.53D+04 ExpMxC= 5.22D+02 IAcc=3 IRadAn=         5 AccDes= 0.00D+00
 Harris functional with IExCor=  205 and IRadAn=       5 diagonalized for initial guess.
 HarFok:  IExCor=  205 AccDes= 0.00D+00 IRadAn=         5 IDoV= 1 UseB2=F ITyADJ=14
 ICtDFT=  3500011 ScaDFX=  1.000000  1.000000  1.000000  1.000000
 FoFCou: FMM=F IPFlag=           0 FMFlag=      100000 FMFlg1=           0
         NFxFlg=           0 DoJE=T BraDBF=F KetDBF=T FulRan=T
         wScrn=  0.000000 ICntrl=       500 IOpCl=  0 I1Cent=   200000004 NGrid=           0
         NMat0=    1 NMatS0=      1 NMatT0=    0 NMatD0=    1 NMtDS0=    0 NMtDT0=    0
 Petite list used in FoFCou.
 Harris En= -152.300004952480    
 JPrj=0 DoOrth=F DoCkMO=F.
 Initial guess orbital symmetries:
       Occupied  (A') (A') (A') (A') (A') (A') (A') (A') (A") (A")
       Virtual   (A') (A') (A') (A') (A') (A') (A') (A') (A') (A")
                 (A') (A') (A") (A') (A") (A") (A') (A") (A') (A")
                 (A') (A') (A') (A') (A') (A') (A') (A') (A") (A")
                 (A") (A") (A') (A') (A') (A') (A') (A') (A') (A')
                 (A') (A') (A") (A") (A') (A') (A") (A") (A") (A")
                 (A') (A') (A') (A') (A') (A") (A") (A') (A') (A")
                 (A') (A') (A") (A') (A") (A") (A') (A') (A') (A')
                 (A") (A") (A') (A') (A') (A') (A') (A') (A') (A')
                 (A") (A") (A') (A') (A") (A") (A") (A") (A') (A')
                 (A") (A") (A') (A') (A') (A') (A") (A") (A') (A')
                 (A') (A') (A') (A') (A') (A')
 The electronic state of the initial guess is 1-A'.
 Leave Link  401 at Sat Aug 27 01:52:36 2022, MaxMem=   536870912 cpu:               0.8 elap:               0.2
 (Enter /usr/site/hpc/x86_64/glibc-2.17/broadwell/gaussian/g16_a.03/pgi-16.5/g16/l502.exe)
 Keep R1 ints in memory in symmetry-blocked form, NReq=34823457.
 FoFCou: FMM=F IPFlag=           0 FMFlag=           0 FMFlg1=           0
         NFxFlg=           0 DoJE=F BraDBF=F KetDBF=F FulRan=T
         wScrn=  0.000000 ICntrl=       600 IOpCl=  0 I1Cent=           0 NGrid=           0
         NMat0=    1 NMatS0=   6786 NMatT0=    0 NMatD0=    1 NMtDS0=    0 NMtDT0=    0
 Petite list used in FoFCou.
 Closed shell SCF:
 Using DIIS extrapolation, IDIIS=  1040.
 NGot=   536870912 LenX=   525040673 LenY=   525023332
 Requested convergence on RMS density matrix=1.00D-08 within 128 cycles.
 Requested convergence on MAX density matrix=1.00D-06.
 Requested convergence on             energy=1.00D-06.
 No special actions if energy rises.

 Cycle   1  Pass 1  IDiag  1:
 E= -151.910758760698    
 DIIS: error= 6.68D-02 at cycle   1 NSaved=   1.
 NSaved= 1 IEnMin= 1 EnMin= -151.910758760698     IErMin= 1 ErrMin= 6.68D-02
 ErrMax= 6.68D-02  0.00D+00 EMaxC= 1.00D-01 BMatC= 4.06D-01 BMatP= 4.06D-01
 IDIUse=3 WtCom= 3.32D-01 WtEn= 6.68D-01
 Coeff-Com:  0.100D+01
 Coeff-En:   0.100D+01
 Coeff:      0.100D+01
 Gap=     0.491 Goal=   None    Shift=    0.000
 GapD=    0.491 DampG=2.000 DampE=0.500 DampFc=1.0000 IDamp=-1.
 RMSDP=2.80D-03 MaxDP=6.97D-02              OVMax= 1.33D-01

 Cycle   2  Pass 1  IDiag  1:
 E= -152.024937283622     Delta-E=       -0.114178522925 Rises=F Damp=F
 DIIS: error= 4.23D-02 at cycle   2 NSaved=   2.
 NSaved= 2 IEnMin= 2 EnMin= -152.024937283622     IErMin= 2 ErrMin= 4.23D-02
 ErrMax= 4.23D-02  0.00D+00 EMaxC= 1.00D-01 BMatC= 1.19D-01 BMatP= 4.06D-01
 IDIUse=3 WtCom= 5.77D-01 WtEn= 4.23D-01
 Coeff-Com:  0.325D+00 0.675D+00
 Coeff-En:   0.176D+00 0.824D+00
 Coeff:      0.262D+00 0.738D+00
 Gap=     0.644 Goal=   None    Shift=    0.000
 RMSDP=1.50D-03 MaxDP=4.07D-02 DE=-1.14D-01 OVMax= 6.12D-02

 Cycle   3  Pass 1  IDiag  1:
 E= -152.094117539364     Delta-E=       -0.069180255742 Rises=F Damp=F
 DIIS: error= 9.23D-03 at cycle   3 NSaved=   3.
 NSaved= 3 IEnMin= 3 EnMin= -152.094117539364     IErMin= 3 ErrMin= 9.23D-03
 ErrMax= 9.23D-03  0.00D+00 EMaxC= 1.00D-01 BMatC= 6.28D-03 BMatP= 1.19D-01
 IDIUse=3 WtCom= 9.08D-01 WtEn= 9.23D-02
 Coeff-Com: -0.316D-01 0.154D+00 0.877D+00
 Coeff-En:   0.000D+00 0.000D+00 0.100D+01
 Coeff:     -0.287D-01 0.140D+00 0.889D+00
 Gap=     0.616 Goal=   None    Shift=    0.000
 RMSDP=2.76D-04 MaxDP=6.36D-03 DE=-6.92D-02 OVMax= 1.41D-02

 Cycle   4  Pass 1  IDiag  1:
 E= -152.098085983261     Delta-E=       -0.003968443897 Rises=F Damp=F
 DIIS: error= 8.98D-04 at cycle   4 NSaved=   4.
 NSaved= 4 IEnMin= 4 EnMin= -152.098085983261     IErMin= 4 ErrMin= 8.98D-04
 ErrMax= 8.98D-04  0.00D+00 EMaxC= 1.00D-01 BMatC= 4.30D-05 BMatP= 6.28D-03
 IDIUse=3 WtCom= 9.91D-01 WtEn= 8.98D-03
 Coeff-Com:  0.666D-02-0.604D-01-0.233D+00 0.129D+01
 Coeff-En:   0.000D+00 0.000D+00 0.000D+00 0.100D+01
 Coeff:      0.660D-02-0.599D-01-0.231D+00 0.128D+01
 Gap=     0.619 Goal=   None    Shift=    0.000
 RMSDP=5.46D-05 MaxDP=1.06D-03 DE=-3.97D-03 OVMax= 2.76D-03

 Cycle   5  Pass 1  IDiag  1:
 E= -152.098143597918     Delta-E=       -0.000057614656 Rises=F Damp=F
 DIIS: error= 2.04D-04 at cycle   5 NSaved=   5.
 NSaved= 5 IEnMin= 5 EnMin= -152.098143597918     IErMin= 5 ErrMin= 2.04D-04
 ErrMax= 2.04D-04  0.00D+00 EMaxC= 1.00D-01 BMatC= 1.54D-06 BMatP= 4.30D-05
 IDIUse=3 WtCom= 9.98D-01 WtEn= 2.04D-03
 Coeff-Com:  0.850D-03-0.184D-02-0.120D-01-0.164D+00 0.118D+01
 Coeff-En:   0.000D+00 0.000D+00 0.000D+00 0.000D+00 0.100D+01
 Coeff:      0.848D-03-0.184D-02-0.119D-01-0.164D+00 0.118D+01
 Gap=     0.619 Goal=   None    Shift=    0.000
 RMSDP=1.46D-05 MaxDP=2.78D-04 DE=-5.76D-05 OVMax= 6.97D-04

 Cycle   6  Pass 1  IDiag  1:
 E= -152.098146695099     Delta-E=       -0.000003097181 Rises=F Damp=F
 DIIS: error= 3.85D-05 at cycle   6 NSaved=   6.
 NSaved= 6 IEnMin= 6 EnMin= -152.098146695099     IErMin= 6 ErrMin= 3.85D-05
 ErrMax= 3.85D-05  0.00D+00 EMaxC= 1.00D-01 BMatC= 5.22D-08 BMatP= 1.54D-06
 IDIUse=1 WtCom= 1.00D+00 WtEn= 0.00D+00
 Coeff-Com: -0.347D-03 0.216D-02 0.928D-02-0.146D-01-0.257D+00 0.126D+01
 Coeff:     -0.347D-03 0.216D-02 0.928D-02-0.146D-01-0.257D+00 0.126D+01
 Gap=     0.620 Goal=   None    Shift=    0.000
 RMSDP=4.06D-06 MaxDP=9.66D-05 DE=-3.10D-06 OVMax= 1.94D-04

 Cycle   7  Pass 1  IDiag  1:
 E= -152.098146836678     Delta-E=       -0.000000141579 Rises=F Damp=F
 DIIS: error= 6.03D-06 at cycle   7 NSaved=   7.
 NSaved= 7 IEnMin= 7 EnMin= -152.098146836678     IErMin= 7 ErrMin= 6.03D-06
 ErrMax= 6.03D-06  0.00D+00 EMaxC= 1.00D-01 BMatC= 2.76D-09 BMatP= 5.22D-08
 IDIUse=1 WtCom= 1.00D+00 WtEn= 0.00D+00
 Coeff-Com:  0.327D-04-0.456D-03-0.183D-02 0.169D-01-0.198D-01-0.234D+00
 Coeff-Com:  0.124D+01
 Coeff:      0.327D-04-0.456D-03-0.183D-02 0.169D-01-0.198D-01-0.234D+00
 Coeff:      0.124D+01
 Gap=     0.620 Goal=   None    Shift=    0.000
 RMSDP=6.46D-07 MaxDP=1.27D-05 DE=-1.42D-07 OVMax= 4.10D-05

 Cycle   8  Pass 1  IDiag  1:
 E= -152.098146842540     Delta-E=       -0.000000005862 Rises=F Damp=F
 DIIS: error= 1.86D-06 at cycle   8 NSaved=   8.
 NSaved= 8 IEnMin= 8 EnMin= -152.098146842540     IErMin= 8 ErrMin= 1.86D-06
 ErrMax= 1.86D-06  0.00D+00 EMaxC= 1.00D-01 BMatC= 1.33D-10 BMatP= 2.76D-09
 IDIUse=1 WtCom= 1.00D+00 WtEn= 0.00D+00
 Coeff-Com:  0.621D-05 0.478D-04 0.212D-03-0.552D-02 0.199D-01 0.231D-01
 Coeff-Com: -0.424D+00 0.139D+01
 Coeff:      0.621D-05 0.478D-04 0.212D-03-0.552D-02 0.199D-01 0.231D-01
 Coeff:     -0.424D+00 0.139D+01
 Gap=     0.620 Goal=   None    Shift=    0.000
 RMSDP=1.28D-07 MaxDP=2.76D-06 DE=-5.86D-09 OVMax= 7.73D-06

 Cycle   9  Pass 1  IDiag  1:
 E= -152.098146842848     Delta-E=       -0.000000000309 Rises=F Damp=F
 DIIS: error= 2.59D-07 at cycle   9 NSaved=   9.
 NSaved= 9 IEnMin= 9 EnMin= -152.098146842848     IErMin= 9 ErrMin= 2.59D-07
 ErrMax= 2.59D-07  0.00D+00 EMaxC= 1.00D-01 BMatC= 3.35D-12 BMatP= 1.33D-10
 IDIUse=1 WtCom= 1.00D+00 WtEn= 0.00D+00
 Coeff-Com: -0.151D-05 0.114D-05-0.552D-05 0.561D-03-0.195D-02-0.364D-02
 Coeff-Com:  0.625D-01-0.292D+00 0.123D+01
 Coeff:     -0.151D-05 0.114D-05-0.552D-05 0.561D-03-0.195D-02-0.364D-02
 Coeff:      0.625D-01-0.292D+00 0.123D+01
 Gap=     0.620 Goal=   None    Shift=    0.000
 RMSDP=1.89D-08 MaxDP=4.08D-07 DE=-3.09D-10 OVMax= 1.13D-06

 Cycle  10  Pass 1  IDiag  1:
 E= -152.098146842856     Delta-E=       -0.000000000008 Rises=F Damp=F
 DIIS: error= 7.42D-08 at cycle  10 NSaved=  10.
 NSaved=10 IEnMin=10 EnMin= -152.098146842856     IErMin=10 ErrMin= 7.42D-08
 ErrMax= 7.42D-08  0.00D+00 EMaxC= 1.00D-01 BMatC= 4.91D-13 BMatP= 3.35D-12
 IDIUse=1 WtCom= 1.00D+00 WtEn= 0.00D+00
 Coeff-Com: -0.763D-06-0.320D-05-0.174D-04 0.516D-03-0.177D-02-0.298D-02
 Coeff-Com:  0.468D-01-0.177D+00 0.342D+00 0.793D+00
 Coeff:     -0.763D-06-0.320D-05-0.174D-04 0.516D-03-0.177D-02-0.298D-02
 Coeff:      0.468D-01-0.177D+00 0.342D+00 0.793D+00
 Gap=     0.620 Goal=   None    Shift=    0.000
 RMSDP=5.69D-09 MaxDP=1.92D-07 DE=-7.50D-12 OVMax= 2.79D-07

 SCF Done:  E(RHF) =  -152.098146843     A.U. after   10 cycles
            NFock= 10  Conv=0.57D-08     -V/T= 2.0017
 KE= 1.518353771482D+02 PE=-4.332301993787D+02 EE= 9.360765900835D+01
 Leave Link  502 at Sat Aug 27 01:52:37 2022, MaxMem=   536870912 cpu:               4.1 elap:               1.1
 (Enter /usr/site/hpc/x86_64/glibc-2.17/broadwell/gaussian/g16_a.03/pgi-16.5/g16/l801.exe)
 Windowed orbitals will be sorted by symmetry type.
 ExpMin= 1.03D-01 ExpMax= 1.53D+04 ExpMxC= 5.22D+02 IAcc=3 IRadAn=         5 AccDes= 0.00D+00
 HarFok:  IExCor=  205 AccDes= 0.00D+00 IRadAn=         5 IDoV=-2 UseB2=F ITyADJ=14
 ICtDFT= 12500011 ScaDFX=  1.000000  1.000000  1.000000  1.000000
 Largest valence mixing into a core orbital is  1.12D-04
 Largest core mixing into a valence orbital is  1.82D-05
 Range of M.O.s used for correlation:     3   116
 NBasis=   116 NAE=    10 NBE=    10 NFC=     2 NFV=     0
 NROrb=    114 NOA=     8 NOB=     8 NVA=   106 NVB=   106
 Leave Link  801 at Sat Aug 27 01:52:37 2022, MaxMem=   536870912 cpu:               0.3 elap:               0.1
 (Enter /usr/site/hpc/x86_64/glibc-2.17/broadwell/gaussian/g16_a.03/pgi-16.5/g16/l804.exe)
 Closed-shell transformation, MDV=   536870912 ITran=4 ISComp=2.
 Unit  1 TFree=        834515 TCopy=        406125.
 Semi-Direct transformation.
 ModeAB=           4 MOrb=             8 LenV=     536363848
 LASXX=      2873146 LTotXX=     2873146 LenRXX=     5831278
 LTotAB=     2958132 MaxLAS=     7727376 LenRXY=           0
 NonZer=     8704424 LenScr=    13107200 LnRSAI=     7727376
 LnScr1=    12058624 LExtra=           0 Total=     38724478
 MaxDsk=          -1 SrtSym=           T ITran=            4
 DoSDTr:  NPSUse=  4
 JobTyp=0 Pass  1:  I=   1 to   8.
 (rs|ai) integrals will be sorted in core.
 Complete sort for first half transformation.
 First half transformation complete.
 Complete sort for second half transformation.
 Second half transformation complete.
 Spin components of T(2) and E(2):
     alpha-alpha T2 =       0.1575692091D-01 E2=     -0.6421041456D-01
     alpha-beta  T2 =       0.9265355835D-01 E2=     -0.3996499172D+00
     beta-beta   T2 =       0.1575692091D-01 E2=     -0.6421041456D-01
 ANorm=    0.1060267608D+01
 E2 =    -0.5280707463D+00 EUMP2 =    -0.15262621758917D+03
 Leave Link  804 at Sat Aug 27 01:52:38 2022, MaxMem=   536870912 cpu:               4.2 elap:               1.1
 (Enter /usr/site/hpc/x86_64/glibc-2.17/broadwell/gaussian/g16_a.03/pgi-16.5/g16/l913.exe)
 CIDS:  MDV=   536870912.
 Frozen-core window:  NFC=   2 NFV=   0.
 IFCWin=0 IBDFC=1 NFBD=     0     0 NFCmp=     0     0 NFFFC=     0     0
 Using DD3R+UMP44R for 1st iteration.
 Using DD4RQ for 2nd and later iterations.
 Keep R2 and R3 ints in memory in symmetry-blocked form, NReq=35357534.
 FoFCou: FMM=F IPFlag=           0 FMFlag=           0 FMFlg1=           0
         NFxFlg=           0 DoJE=F BraDBF=F KetDBF=F FulRan=T
         wScrn=  0.000000 ICntrl=       600 IOpCl=  0 I1Cent=           0 NGrid=           0
         NMat0=    1 NMatS0=   6786 NMatT0=    0 NMatD0=    1 NMtDS0=    0 NMtDT0=    0
 Petite list used in FoFCou.
 CIDS: In Core Option IDoMem=           1.
 CCSD(T)
 =======
 Iterations=  50 Convergence= 0.100D-06
 Produce multiple copies of IABC intergrals
 Iteration Nr.   1
 **********************
 DD1Dir will call FoFMem   1 times, MxPair=        72
 NAB=    36 NAA=     0 NBB=     0.
 MP4(R+Q)=  0.77503631D-02
 Maximum subspace dimension=  5
 A-vector RMS=  1.8334180D-03 Max=  8.3159390D-03 conv= 1.00D-05.
 RLE energy=       -0.5275789267
 E3=       -0.73298483D-02        EUMP3=      -0.15263354744D+03
 E4(DQ)=   -0.14713414D-02        UMP4(DQ)=   -0.15263501878D+03
 E4(SDQ)=  -0.46585438D-02        UMP4(SDQ)=  -0.15263820598D+03
 VARIATIONAL ENERGIES WITH THE FIRST-ORDER WAVEFUNCTION:
 DE(Corr)= -0.52757848     E(Corr)=     -152.62572532    
 NORM(A)=   0.10605487D+01
 Iteration Nr.   2
 **********************
 DD1Dir will call FoFMem   1 times, MxPair=        72
 NAB=    36 NAA=     0 NBB=     0.
 A-vector RMS=  2.1201012D-04 Max=  1.2630760D-03 conv= 1.00D-05.
 RLE energy=       -0.5388254850
 DE(Corr)= -0.53769111     E(CORR)=     -152.63583795     Delta=-1.01D-02
 NORM(A)=   0.10643988D+01
 Iteration Nr.   3
 **********************
 DD1Dir will call FoFMem   1 times, MxPair=        72
 NAB=    36 NAA=     0 NBB=     0.
 A-vector RMS=  1.7017733D-04 Max=  1.7000485D-03 conv= 1.00D-05.
 RLE energy=       -0.5393350186
 DE(Corr)= -0.53872687     E(CORR)=     -152.63687371     Delta=-1.04D-03
 NORM(A)=   0.10650618D+01
 Iteration Nr.   4
 **********************
 DD1Dir will call FoFMem   1 times, MxPair=        72
 NAB=    36 NAA=     0 NBB=     0.
 A-vector RMS=  3.5002389D-05 Max=  2.3651959D-04 conv= 1.00D-05.
 RLE energy=       -0.5394159511
 DE(Corr)= -0.53938011     E(CORR)=     -152.63752695     Delta=-6.53D-04
 NORM(A)=   0.10651850D+01
 Iteration Nr.   5
 **********************
 DD1Dir will call FoFMem   1 times, MxPair=        72
 NAB=    36 NAA=     0 NBB=     0.
 A-vector RMS=  2.5195959D-05 Max=  3.1673675D-04 conv= 1.00D-05.
 RLE energy=       -0.5394300168
 DE(Corr)= -0.53942133     E(CORR)=     -152.63756817     Delta=-4.12D-05
 NORM(A)=   0.10652018D+01
 Iteration Nr.   6
 **********************
 DD1Dir will call FoFMem   1 times, MxPair=        72
 NAB=    36 NAA=     0 NBB=     0.
 A-vector RMS=  7.6057565D-06 Max=  8.2468174D-05 conv= 1.00D-05.
 RLE energy=       -0.5394199275
 DE(Corr)= -0.53942540     E(CORR)=     -152.63757224     Delta=-4.07D-06
 NORM(A)=   0.10652025D+01
 Iteration Nr.   7
 **********************
 DD1Dir will call FoFMem   1 times, MxPair=        72
 NAB=    36 NAA=     0 NBB=     0.
 A-vector RMS=  3.3406179D-06 Max=  4.0411195D-05 conv= 1.00D-05.
 RLE energy=       -0.5394246086
 DE(Corr)= -0.53942560     E(CORR)=     -152.63757245     Delta=-2.05D-07
 NORM(A)=   0.10652049D+01
 Iteration Nr.   8
 **********************
 DD1Dir will call FoFMem   1 times, MxPair=        72
 NAB=    36 NAA=     0 NBB=     0.
 A-vector RMS=  1.2068780D-06 Max=  1.3549669D-05 conv= 1.00D-05.
 RLE energy=       -0.5394247112
 DE(Corr)= -0.53942499     E(CORR)=     -152.63757183     Delta= 6.15D-07
 NORM(A)=   0.10652054D+01
 Iteration Nr.   9
 **********************
 DD1Dir will call FoFMem   1 times, MxPair=        72
 NAB=    36 NAA=     0 NBB=     0.
 A-vector RMS=  2.0780411D-07 Max=  2.1325630D-06 conv= 1.00D-05.
 RLE energy=       -0.5394250271
 DE(Corr)= -0.53942510     E(CORR)=     -152.63757195     Delta=-1.15D-07
 NORM(A)=   0.10652059D+01
 Iteration Nr.  10
 **********************
 DD1Dir will call FoFMem   1 times, MxPair=        72
 NAB=    36 NAA=     0 NBB=     0.
 A-vector RMS=  9.6384583D-08 Max=  1.1969762D-06 conv= 1.00D-05.
 RLE energy=       -0.5394252876
 DE(Corr)= -0.53942527     E(CORR)=     -152.63757211     Delta=-1.63D-07
 NORM(A)=   0.10652061D+01
 Iteration Nr.  11
 **********************
 DD1Dir will call FoFMem   1 times, MxPair=        72
 NAB=    36 NAA=     0 NBB=     0.
 A-vector RMS=  3.3499513D-08 Max=  4.0093299D-07 conv= 1.00D-05.
 RLE energy=       -0.5394253624
 DE(Corr)= -0.53942534     E(CORR)=     -152.63757218     Delta=-7.24D-08
 NORM(A)=   0.10652062D+01
 CI/CC converged in   11 iterations to DelEn=-7.24D-08 Conv= 1.00D-07 ErrA1= 3.35D-08 Conv= 1.00D-05
 Wavefunction amplitudes converged. E(Corr)=     -152.63757218    
 Largest amplitude= 2.44D-02
 IPart=  4 IA=    7   11.05% done.
 IPart=  4 IA=   13   21.46% done.
 IPart=  2 IA=   19   31.21% done.
 IPart=  3 IA=   25   40.32% done.
 IPart=  3 IA=   32   50.13% done.
 IPart=  3 IA=   40   60.27% done.
 IPart=  3 IA=   49   70.30% done.
 IPart=  1 IA=   60   80.58% done.
 IPart=  2 IA=   74   90.51% done.
 Time for triples=       77.20 seconds.
 T4(CCSD)= -0.16397979D-01
 T5(CCSD)=  0.43283128D-03
 CCSD(T)= -0.15265353733D+03
 Discarding MO integrals.
 Leave Link  913 at Sat Aug 27 01:53:07 2022, MaxMem=   536870912 cpu:             104.4 elap:              28.4
 (Enter /usr/site/hpc/x86_64/glibc-2.17/broadwell/gaussian/g16_a.03/pgi-16.5/g16/l601.exe)
 Copying SCF densities to generalized density rwf, IOpCl= 0 IROHF=0.

 **********************************************************************

            Population analysis using the SCF density.

 **********************************************************************

 Orbital symmetries:
       Occupied  (A') (A') (A') (A') (A') (A') (A') (A') (A") (A")
       Virtual   (A') (A') (A') (A') (A') (A') (A') (A') (A') (A')
                 (A") (A') (A') (A") (A") (A") (A') (A") (A") (A')
                 (A') (A') (A') (A') (A') (A') (A') (A') (A") (A")
                 (A') (A") (A") (A') (A') (A') (A') (A') (A') (A')
                 (A') (A') (A") (A") (A') (A') (A") (A") (A') (A')
                 (A") (A") (A') (A') (A') (A") (A") (A") (A') (A')
                 (A") (A') (A') (A') (A") (A") (A') (A') (A') (A')
                 (A") (A") (A') (A') (A') (A') (A') (A') (A') (A')
                 (A") (A") (A') (A') (A") (A") (A") (A") (A') (A')
                 (A") (A") (A') (A') (A') (A') (A") (A") (A') (A')
                 (A') (A') (A') (A') (A') (A')
 The electronic state is 1-A'.
 Alpha  occ. eigenvalues --  -20.53492 -20.53486  -1.31086  -1.30636  -0.68457
 Alpha  occ. eigenvalues --   -0.68140  -0.56110  -0.51730  -0.48333  -0.47505
 Alpha virt. eigenvalues --    0.14458   0.17098   0.20567   0.22085   0.50853
 Alpha virt. eigenvalues --    0.58548   0.58785   0.61572   0.70904   0.76421
 Alpha virt. eigenvalues --    0.77068   0.78186   0.79511   0.83443   0.86321
 Alpha virt. eigenvalues --    0.86345   0.89416   0.94809   1.06910   1.07082
 Alpha virt. eigenvalues --    1.15141   1.15870   1.29010   1.39556   1.52257
 Alpha virt. eigenvalues --    1.52832   1.54628   1.54850   2.01655   2.03905
 Alpha virt. eigenvalues --    2.06859   2.08605   2.08789   2.15862   2.17844
 Alpha virt. eigenvalues --    2.30583   2.32604   2.36652   2.63351   2.63537
 Alpha virt. eigenvalues --    2.94840   2.96339   3.41035   3.41230   3.51243
 Alpha virt. eigenvalues --    3.52532   3.54814   3.54821   3.61051   3.61867
 Alpha virt. eigenvalues --    3.80228   3.80959   3.87021   3.88274   3.89725
 Alpha virt. eigenvalues --    3.95266   3.95294   4.01082   4.03332   4.08167
 Alpha virt. eigenvalues --    4.10050   4.13858   4.16373   4.19301   4.31826
 Alpha virt. eigenvalues --    4.32029   4.42616   4.46558   4.46957   4.49094
 Alpha virt. eigenvalues --    4.67361   4.70058   4.81296   4.91758   5.06386
 Alpha virt. eigenvalues --    5.06629   5.22522   5.34701   5.55987   5.61312
 Alpha virt. eigenvalues --    5.99971   6.00047   6.41906   6.42787   6.88124
 Alpha virt. eigenvalues --    6.88285   6.91578   6.91609   6.96372   6.98879
 Alpha virt. eigenvalues --    7.00661   7.01858   7.09170   7.13858   7.17084
 Alpha virt. eigenvalues --    7.18170   7.20251   7.20514   7.49677   7.50070
 Alpha virt. eigenvalues --    7.72557   7.74004   8.15376   8.23917  12.51076
 Alpha virt. eigenvalues --   12.63069
          Condensed to atoms (all electrons):
               1          2          3          4          5          6
     1  O    7.819239   0.324942   0.326980  -0.008429   0.001262   0.001756
     2  H    0.324942   0.471725  -0.029858   0.001433  -0.000133  -0.000194
     3  H    0.326980  -0.029858   0.468001   0.001552  -0.000156  -0.000166
     4  O   -0.008429   0.001433   0.001552   7.819211   0.324063   0.327699
     5  H    0.001262  -0.000133  -0.000156   0.324063   0.472701  -0.029842
     6  H    0.001756  -0.000194  -0.000166   0.327699  -0.029842   0.467304
 Mulliken charges:
               1
     1  O   -0.465750
     2  H    0.232084
     3  H    0.233647
     4  O   -0.465528
     5  H    0.232105
     6  H    0.233443
 Sum of Mulliken charges =   0.00000
 Mulliken charges with hydrogens summed into heavy atoms:
               1
     1  O   -0.000019
     4  O    0.000019
 Electronic spatial extent (au):  <R**2>=            189.3394
 Charge=             -0.0000 electrons
 Dipole moment (field-independent basis, Debye):
    X=             -0.1201    Y=             -0.0046    Z=              0.0000  Tot=              0.1202
 Quadrupole moment (field-independent basis, Debye-Ang):
   XX=             -7.9424   YY=             -1.6073   ZZ=            -14.7151
   XY=             -0.0669   XZ=              0.0000   YZ=              0.0000
 Traceless Quadrupole moment (field-independent basis, Debye-Ang):
   XX=              0.1459   YY=              6.4810   ZZ=             -6.6269
   XY=             -0.0669   XZ=              0.0000   YZ=              0.0000
 Octapole moment (field-independent basis, Debye-Ang**2):
  XXX=             -0.2686  YYY=              0.0221  ZZZ=              0.0000  XYY=              0.2905
  XXY=             -0.0311  XXZ=              0.0000  XZZ=             -0.0137  YZZ=             -0.0007
  YYZ=              0.0000  XYZ=              0.0000
 Hexadecapole moment (field-independent basis, Debye-Ang**3):
 XXXX=            -11.6529 YYYY=           -119.1725 ZZZZ=            -11.3545 XXXY=             -0.3622
 XXXZ=              0.0000 YYYX=              1.2217 YYYZ=              0.0000 ZZZX=              0.0000
 ZZZY=              0.0000 XXYY=            -12.9671 XXZZ=             -4.6240 YYZZ=            -35.5827
 XXYZ=              0.0000 YYXZ=              0.0000 ZZXY=              0.0387
 N-N= 3.568901637937D+01 E-N=-4.332301989157D+02  KE= 1.518353771482D+02
 Symmetry A'   KE= 1.428044891273D+02
 Symmetry A"   KE= 9.030888020860D+00
 Leave Link  601 at Sat Aug 27 01:53:07 2022, MaxMem=   536870912 cpu:               0.5 elap:               0.2
 (Enter /usr/site/hpc/x86_64/glibc-2.17/broadwell/gaussian/g16_a.03/pgi-16.5/g16/l9999.exe)
 1\1\GINC-N003\SP\RCCSD(T)-FC\CC-pVTZ\H4O2\C7441284\27-Aug-2022\0\\#p C
 CSD(T)/cc-pVTZ\\H2O_H2O_1076\\0,1\O,0,0.,-0.009833,0.\H,0,-0.799571,-0
 .580965,0.\H,0,0.799571,-0.580965,0.\O,0,-0.000643,2.740792,0.\H,0,0.7
 59863,3.362995,0.\H,0,-0.835856,3.258407,0.\\Version=ES64L-G16RevA.03\
 State=1-A'\HF=-152.0981468\MP2=-152.6262176\MP3=-152.6335474\MP4D=-152
 .6427691\MP4DQ=-152.6350188\MP4SDQ=-152.638206\CCSD=-152.6375722\CCSD(
 T)=-152.6535373\RMSD=5.686e-09\PG=CS [SG(H4O2)]\\@


 ABSOLUTISM, OBSOLETISM -- IF IT WORKS, IT'S OUT OF DATE

                          -- STAFFORD BEER
 Job cpu time:       0 days  0 hours  1 minutes 55.7 seconds.
 Elapsed time:       0 days  0 hours  0 minutes 31.5 seconds.
 File lengths (MBytes):  RWF=    364 Int=      0 D2E=      0 Chk=      8 Scr=      8
 Normal termination of Gaussian 16 at Sat Aug 27 01:53:07 2022.
