 Entering Gaussian System, Link 0=g16
 Input=H2O_H2O_1311.com
 Output=H2O_H2O_1311.log
 Initial command:
 /usr/site/hpc/x86_64/glibc-2.17/broadwell/gaussian/g16_a.03/pgi-16.5/g16/l1.exe "/gpfs/gpfs1/scratch/c7441284/ForceFieldModel/FittingData/Gau-3579483.inp" -scrdir="/gpfs/gpfs1/scratch/c7441284/ForceFieldModel/FittingData/"
 Entering Link 1 = /usr/site/hpc/x86_64/glibc-2.17/broadwell/gaussian/g16_a.03/pgi-16.5/g16/l1.exe PID=   3579484.
  
 Copyright (c) 1988,1990,1992,1993,1995,1998,2003,2009,2016,
            Gaussian, Inc.  All Rights Reserved.
  
 This is part of the Gaussian(R) 16 program.  It is based on
 the Gaussian(R) 09 system (copyright 2009, Gaussian, Inc.),
 the Gaussian(R) 03 system (copyright 2003, Gaussian, Inc.),
 the Gaussian(R) 98 system (copyright 1998, Gaussian, Inc.),
 the Gaussian(R) 94 system (copyright 1995, Gaussian, Inc.),
 the Gaussian 92(TM) system (copyright 1992, Gaussian, Inc.),
 the Gaussian 90(TM) system (copyright 1990, Gaussian, Inc.),
 the Gaussian 88(TM) system (copyright 1988, Gaussian, Inc.),
 the Gaussian 86(TM) system (copyright 1986, Carnegie Mellon
 University), and the Gaussian 82(TM) system (copyright 1983,
 Carnegie Mellon University). Gaussian is a federally registered
 trademark of Gaussian, Inc.
  
 This software contains proprietary and confidential information,
 including trade secrets, belonging to Gaussian, Inc.
  
 This software is provided under written license and may be
 used, copied, transmitted, or stored only in accord with that
 written license.
  
 The following legend is applicable only to US Government
 contracts under FAR:
  
                    RESTRICTED RIGHTS LEGEND
  
 Use, reproduction and disclosure by the US Government is
 subject to restrictions as set forth in subparagraphs (a)
 and (c) of the Commercial Computer Software - Restricted
 Rights clause in FAR 52.227-19.
  
 Gaussian, Inc.
 340 Quinnipiac St., Bldg. 40, Wallingford CT 06492
  
  
 ---------------------------------------------------------------
 Warning -- This program may not be used in any manner that
 competes with the business of Gaussian, Inc. or will provide
 assistance to any competitor of Gaussian, Inc.  The licensee
 of this program is prohibited from giving any competitor of
 Gaussian, Inc. access to this program.  By using this program,
 the user acknowledges that Gaussian, Inc. is engaged in the
 business of creating and licensing software in the field of
 computational chemistry and represents and warrants to the
 licensee that it is not a competitor of Gaussian, Inc. and that
 it will not use this program in any manner prohibited above.
 ---------------------------------------------------------------
  

 Cite this work as:
 Gaussian 16, Revision A.03,
 M. J. Frisch, G. W. Trucks, H. B. Schlegel, G. E. Scuseria, 
 M. A. Robb, J. R. Cheeseman, G. Scalmani, V. Barone, 
 G. A. Petersson, H. Nakatsuji, X. Li, M. Caricato, A. V. Marenich, 
 J. Bloino, B. G. Janesko, R. Gomperts, B. Mennucci, H. P. Hratchian, 
 J. V. Ortiz, A. F. Izmaylov, J. L. Sonnenberg, D. Williams-Young, 
 F. Ding, F. Lipparini, F. Egidi, J. Goings, B. Peng, A. Petrone, 
 T. Henderson, D. Ranasinghe, V. G. Zakrzewski, J. Gao, N. Rega, 
 G. Zheng, W. Liang, M. Hada, M. Ehara, K. Toyota, R. Fukuda, 
 J. Hasegawa, M. Ishida, T. Nakajima, Y. Honda, O. Kitao, H. Nakai, 
 T. Vreven, K. Throssell, J. A. Montgomery, Jr., J. E. Peralta, 
 F. Ogliaro, M. J. Bearpark, J. J. Heyd, E. N. Brothers, K. N. Kudin, 
 V. N. Staroverov, T. A. Keith, R. Kobayashi, J. Normand, 
 K. Raghavachari, A. P. Rendell, J. C. Burant, S. S. Iyengar, 
 J. Tomasi, M. Cossi, J. M. Millam, M. Klene, C. Adamo, R. Cammi, 
 J. W. Ochterski, R. L. Martin, K. Morokuma, O. Farkas, 
 J. B. Foresman, and D. J. Fox, Gaussian, Inc., Wallingford CT, 2016.
 
 ******************************************
 Gaussian 16:  ES64L-G16RevA.03 25-Dec-2016
                27-Aug-2022 
 ******************************************
 %NProcShared=4
 Will use up to    4 processors via shared memory.
 %Mem=4GB
 %Chk=H2O_H2O_1311.chk
 ------------------
 #p CCSD(T)/cc-pVTZ
 ------------------
 1/38=1,172=1/1;
 2/12=2,17=6,18=5,40=1/2;
 3/5=16,6=1,11=9,25=1,30=1/1,2,3;
 4//1;
 5/5=2,38=5/2;
 8/6=4,9=120000,10=1/1,4;
 9/5=7,14=2/13;
 6/7=2,8=2,9=2,10=2/1;
 99/5=1,9=1/99;
 Leave Link    1 at Sat Aug 27 03:48:48 2022, MaxMem=   536870912 cpu:               0.3 elap:               0.1
 (Enter /usr/site/hpc/x86_64/glibc-2.17/broadwell/gaussian/g16_a.03/pgi-16.5/g16/l101.exe)
 ------------
 H2O_H2O_1311
 ------------
 Symbolic Z-matrix:
 Charge =  0 Multiplicity = 1
 O                     0.       -0.00983   0. 
 H                    -0.79957  -0.58097   0. 
 H                     0.79957  -0.58097   0. 
 O                    -0.00648   2.9777    0. 
 H                     0.21809   3.93429   0. 
 H                    -0.98421   2.87991   0. 
 
 ITRead=  0  0  0  0  0  0
 MicOpt= -1 -1 -1 -1 -1 -1
 NAtoms=      6 NQM=        6 NQMF=       0 NMMI=      0 NMMIF=      0
                NMic=       0 NMicF=      0.
                    Isotopes and Nuclear Properties:
 (Nuclear quadrupole moments (NQMom) in fm**2, nuclear magnetic moments (NMagM)
  in nuclear magnetons)

  Atom         1           2           3           4           5           6
 IAtWgt=          16           1           1          16           1           1
 AtmWgt=  15.9949146   1.0078250   1.0078250  15.9949146   1.0078250   1.0078250
 NucSpn=           0           1           1           0           1           1
 AtZEff=  -0.0000000  -0.0000000  -0.0000000  -0.0000000  -0.0000000  -0.0000000
 NQMom=    0.0000000   0.0000000   0.0000000   0.0000000   0.0000000   0.0000000
 NMagM=    0.0000000   2.7928460   2.7928460   0.0000000   2.7928460   2.7928460
 AtZNuc=   8.0000000   1.0000000   1.0000000   8.0000000   1.0000000   1.0000000
 Leave Link  101 at Sat Aug 27 03:48:48 2022, MaxMem=   536870912 cpu:               0.3 elap:               0.1
 (Enter /usr/site/hpc/x86_64/glibc-2.17/broadwell/gaussian/g16_a.03/pgi-16.5/g16/l202.exe)
                          Input orientation:                          
 ---------------------------------------------------------------------
 Center     Atomic      Atomic             Coordinates (Angstroms)
 Number     Number       Type             X           Y           Z
 ---------------------------------------------------------------------
      1          8           0        0.000000   -0.009833    0.000000
      2          1           0       -0.799571   -0.580965    0.000000
      3          1           0        0.799571   -0.580965    0.000000
      4          8           0       -0.006483    2.977699    0.000000
      5          1           0        0.218093    3.934293    0.000000
      6          1           0       -0.984207    2.879905    0.000000
 ---------------------------------------------------------------------
                    Distance matrix (angstroms):
                    1          2          3          4          5
     1  O    0.000000
     2  H    0.982601   0.000000
     3  H    0.982601   1.599142   0.000000
     4  O    2.987539   3.645967   3.648810   0.000000
     5  H    3.950151   4.628520   4.552546   0.982602   0.000000
     6  H    3.052745   3.465792   3.893518   0.982603   1.599143
                    6
     6  H    0.000000
 Stoichiometry    H4O2
 Framework group  CS[SG(H4O2)]
 Deg. of freedom     9
 Full point group                 CS      NOp   2
 Largest Abelian subgroup         CS      NOp   2
 Largest concise Abelian subgroup C1      NOp   1
                         Standard orientation:                         
 ---------------------------------------------------------------------
 Center     Atomic      Atomic             Coordinates (Angstroms)
 Number     Number       Type             X           Y           Z
 ---------------------------------------------------------------------
      1          8           0        0.037688   -1.479678    0.000000
      2          1           0       -0.763120   -2.049074    0.000000
      3          1           0        0.836018   -2.052544    0.000000
      4          8           0        0.037688    1.507861    0.000000
      5          1           0        0.264339    2.463965    0.000000
      6          1           0       -0.940246    1.412189    0.000000
 ---------------------------------------------------------------------
 Rotational constants (GHZ):         221.6246320           5.7429926           5.5979326
 Leave Link  202 at Sat Aug 27 03:48:48 2022, MaxMem=   536870912 cpu:               0.0 elap:               0.0
 (Enter /usr/site/hpc/x86_64/glibc-2.17/broadwell/gaussian/g16_a.03/pgi-16.5/g16/l301.exe)
 Standard basis: CC-pVTZ (5D, 7F)
 Ernie: Thresh=  0.10000D-02 Tol=  0.10000D-05 Strict=F.
 Ernie:  6 primitive shells out of 84 were deleted.
 There are    92 symmetry adapted cartesian basis functions of A'  symmetry.
 There are    38 symmetry adapted cartesian basis functions of A"  symmetry.
 There are    80 symmetry adapted basis functions of A'  symmetry.
 There are    36 symmetry adapted basis functions of A"  symmetry.
   116 basis functions,   172 primitive gaussians,   130 cartesian basis functions
    10 alpha electrons       10 beta electrons
       nuclear repulsion energy        34.5305046060 Hartrees.
 IExCor=    0 DFT=F Ex=HF Corr=None ExCW=0 ScaHFX=  1.000000
 ScaDFX=  1.000000  1.000000  1.000000  1.000000 ScalE2=  1.000000  1.000000
 IRadAn=      5 IRanWt=     -1 IRanGd=            0 ICorTp=0 IEmpDi=  4
 NAtoms=    6 NActive=    6 NUniq=    6 SFac= 1.00D+00 NAtFMM=   60 NAOKFM=F Big=F
 Integral buffers will be    131072 words long.
 Raffenetti 1 integral format.
 Two-electron integral symmetry is turned on.
 Leave Link  301 at Sat Aug 27 03:48:48 2022, MaxMem=   536870912 cpu:               0.2 elap:               0.1
 (Enter /usr/site/hpc/x86_64/glibc-2.17/broadwell/gaussian/g16_a.03/pgi-16.5/g16/l302.exe)
 NPDir=0 NMtPBC=     1 NCelOv=     1 NCel=       1 NClECP=     1 NCelD=      1
         NCelK=      1 NCelE2=     1 NClLst=     1 CellRange=     0.0.
 One-electron integrals computed using PRISM.
 One-electron integral symmetry used in STVInt
 NBasis=   116 RedAO= T EigKep=  2.13D-03  NBF=    80    36
 NBsUse=   116 1.00D-06 EigRej= -1.00D+00 NBFU=    80    36
 Leave Link  302 at Sat Aug 27 03:48:48 2022, MaxMem=   536870912 cpu:               0.4 elap:               0.1
 (Enter /usr/site/hpc/x86_64/glibc-2.17/broadwell/gaussian/g16_a.03/pgi-16.5/g16/l303.exe)
 DipDrv:  MaxL=1.
 Leave Link  303 at Sat Aug 27 03:48:48 2022, MaxMem=   536870912 cpu:               0.1 elap:               0.0
 (Enter /usr/site/hpc/x86_64/glibc-2.17/broadwell/gaussian/g16_a.03/pgi-16.5/g16/l401.exe)
 ExpMin= 1.03D-01 ExpMax= 1.53D+04 ExpMxC= 5.22D+02 IAcc=3 IRadAn=         5 AccDes= 0.00D+00
 Harris functional with IExCor=  205 and IRadAn=       5 diagonalized for initial guess.
 HarFok:  IExCor=  205 AccDes= 0.00D+00 IRadAn=         5 IDoV= 1 UseB2=F ITyADJ=14
 ICtDFT=  3500011 ScaDFX=  1.000000  1.000000  1.000000  1.000000
 FoFCou: FMM=F IPFlag=           0 FMFlag=      100000 FMFlg1=           0
         NFxFlg=           0 DoJE=T BraDBF=F KetDBF=T FulRan=T
         wScrn=  0.000000 ICntrl=       500 IOpCl=  0 I1Cent=   200000004 NGrid=           0
         NMat0=    1 NMatS0=      1 NMatT0=    0 NMatD0=    1 NMtDS0=    0 NMtDT0=    0
 Petite list used in FoFCou.
 Harris En= -152.300118060543    
 JPrj=0 DoOrth=F DoCkMO=F.
 Initial guess orbital symmetries:
       Occupied  (A') (A') (A') (A') (A') (A') (A') (A') (A") (A")
       Virtual   (A') (A') (A') (A') (A') (A') (A') (A') (A') (A")
                 (A") (A') (A') (A') (A") (A") (A') (A") (A") (A')
                 (A') (A') (A') (A') (A') (A') (A') (A') (A") (A")
                 (A") (A") (A') (A') (A') (A') (A') (A') (A') (A')
                 (A') (A') (A") (A") (A') (A') (A") (A") (A") (A")
                 (A') (A') (A') (A') (A') (A") (A") (A') (A') (A')
                 (A") (A') (A') (A") (A") (A") (A') (A') (A') (A')
                 (A") (A") (A') (A') (A') (A') (A') (A') (A') (A')
                 (A") (A") (A') (A') (A") (A") (A") (A") (A') (A')
                 (A") (A") (A') (A') (A') (A') (A") (A") (A') (A')
                 (A') (A') (A') (A') (A') (A')
 The electronic state of the initial guess is 1-A'.
 Leave Link  401 at Sat Aug 27 03:48:48 2022, MaxMem=   536870912 cpu:               0.8 elap:               0.2
 (Enter /usr/site/hpc/x86_64/glibc-2.17/broadwell/gaussian/g16_a.03/pgi-16.5/g16/l502.exe)
 Keep R1 ints in memory in symmetry-blocked form, NReq=34823457.
 FoFCou: FMM=F IPFlag=           0 FMFlag=           0 FMFlg1=           0
         NFxFlg=           0 DoJE=F BraDBF=F KetDBF=F FulRan=T
         wScrn=  0.000000 ICntrl=       600 IOpCl=  0 I1Cent=           0 NGrid=           0
         NMat0=    1 NMatS0=   6786 NMatT0=    0 NMatD0=    1 NMtDS0=    0 NMtDT0=    0
 Petite list used in FoFCou.
 Closed shell SCF:
 Using DIIS extrapolation, IDIIS=  1040.
 NGot=   536870912 LenX=   525040673 LenY=   525023332
 Requested convergence on RMS density matrix=1.00D-08 within 128 cycles.
 Requested convergence on MAX density matrix=1.00D-06.
 Requested convergence on             energy=1.00D-06.
 No special actions if energy rises.

 Cycle   1  Pass 1  IDiag  1:
 E= -151.919430669066    
 DIIS: error= 6.65D-02 at cycle   1 NSaved=   1.
 NSaved= 1 IEnMin= 1 EnMin= -151.919430669066     IErMin= 1 ErrMin= 6.65D-02
 ErrMax= 6.65D-02  0.00D+00 EMaxC= 1.00D-01 BMatC= 4.02D-01 BMatP= 4.02D-01
 IDIUse=3 WtCom= 3.35D-01 WtEn= 6.65D-01
 Coeff-Com:  0.100D+01
 Coeff-En:   0.100D+01
 Coeff:      0.100D+01
 Gap=     0.498 Goal=   None    Shift=    0.000
 GapD=    0.498 DampG=2.000 DampE=0.500 DampFc=1.0000 IDamp=-1.
 RMSDP=2.75D-03 MaxDP=6.54D-02              OVMax= 1.31D-01

 Cycle   2  Pass 1  IDiag  1:
 E= -152.031899039523     Delta-E=       -0.112468370457 Rises=F Damp=F
 DIIS: error= 4.20D-02 at cycle   2 NSaved=   2.
 NSaved= 2 IEnMin= 2 EnMin= -152.031899039523     IErMin= 2 ErrMin= 4.20D-02
 ErrMax= 4.20D-02  0.00D+00 EMaxC= 1.00D-01 BMatC= 1.16D-01 BMatP= 4.02D-01
 IDIUse=3 WtCom= 5.80D-01 WtEn= 4.20D-01
 Coeff-Com:  0.323D+00 0.677D+00
 Coeff-En:   0.173D+00 0.827D+00
 Coeff:      0.260D+00 0.740D+00
 Gap=     0.645 Goal=   None    Shift=    0.000
 RMSDP=1.48D-03 MaxDP=3.95D-02 DE=-1.12D-01 OVMax= 5.88D-02

 Cycle   3  Pass 1  IDiag  1:
 E= -152.099193570504     Delta-E=       -0.067294530981 Rises=F Damp=F
 DIIS: error= 9.16D-03 at cycle   3 NSaved=   3.
 NSaved= 3 IEnMin= 3 EnMin= -152.099193570504     IErMin= 3 ErrMin= 9.16D-03
 ErrMax= 9.16D-03  0.00D+00 EMaxC= 1.00D-01 BMatC= 6.17D-03 BMatP= 1.16D-01
 IDIUse=3 WtCom= 9.08D-01 WtEn= 9.16D-02
 Coeff-Com: -0.312D-01 0.155D+00 0.876D+00
 Coeff-En:   0.000D+00 0.000D+00 0.100D+01
 Coeff:     -0.284D-01 0.141D+00 0.888D+00
 Gap=     0.617 Goal=   None    Shift=    0.000
 RMSDP=2.69D-04 MaxDP=6.04D-03 DE=-6.73D-02 OVMax= 1.38D-02

 Cycle   4  Pass 1  IDiag  1:
 E= -152.103073617914     Delta-E=       -0.003880047410 Rises=F Damp=F
 DIIS: error= 8.82D-04 at cycle   4 NSaved=   4.
 NSaved= 4 IEnMin= 4 EnMin= -152.103073617914     IErMin= 4 ErrMin= 8.82D-04
 ErrMax= 8.82D-04  0.00D+00 EMaxC= 1.00D-01 BMatC= 4.12D-05 BMatP= 6.17D-03
 IDIUse=3 WtCom= 9.91D-01 WtEn= 8.82D-03
 Coeff-Com:  0.676D-02-0.611D-01-0.236D+00 0.129D+01
 Coeff-En:   0.000D+00 0.000D+00 0.000D+00 0.100D+01
 Coeff:      0.670D-02-0.605D-01-0.234D+00 0.129D+01
 Gap=     0.620 Goal=   None    Shift=    0.000
 RMSDP=5.45D-05 MaxDP=1.05D-03 DE=-3.88D-03 OVMax= 2.72D-03

 Cycle   5  Pass 1  IDiag  1:
 E= -152.103129164149     Delta-E=       -0.000055546236 Rises=F Damp=F
 DIIS: error= 2.00D-04 at cycle   5 NSaved=   5.
 NSaved= 5 IEnMin= 5 EnMin= -152.103129164149     IErMin= 5 ErrMin= 2.00D-04
 ErrMax= 2.00D-04  0.00D+00 EMaxC= 1.00D-01 BMatC= 1.48D-06 BMatP= 4.12D-05
 IDIUse=3 WtCom= 9.98D-01 WtEn= 2.00D-03
 Coeff-Com:  0.747D-03-0.110D-02-0.902D-02-0.183D+00 0.119D+01
 Coeff-En:   0.000D+00 0.000D+00 0.000D+00 0.000D+00 0.100D+01
 Coeff:      0.746D-03-0.110D-02-0.901D-02-0.182D+00 0.119D+01
 Gap=     0.621 Goal=   None    Shift=    0.000
 RMSDP=1.43D-05 MaxDP=2.83D-04 DE=-5.55D-05 OVMax= 7.23D-04

 Cycle   6  Pass 1  IDiag  1:
 E= -152.103132168634     Delta-E=       -0.000003004485 Rises=F Damp=F
 DIIS: error= 3.46D-05 at cycle   6 NSaved=   6.
 NSaved= 6 IEnMin= 6 EnMin= -152.103132168634     IErMin= 6 ErrMin= 3.46D-05
 ErrMax= 3.46D-05  0.00D+00 EMaxC= 1.00D-01 BMatC= 4.47D-08 BMatP= 1.48D-06
 IDIUse=1 WtCom= 1.00D+00 WtEn= 0.00D+00
 Coeff-Com: -0.317D-03 0.197D-02 0.840D-02-0.109D-01-0.247D+00 0.125D+01
 Coeff:     -0.317D-03 0.197D-02 0.840D-02-0.109D-01-0.247D+00 0.125D+01
 Gap=     0.621 Goal=   None    Shift=    0.000
 RMSDP=3.58D-06 MaxDP=8.59D-05 DE=-3.00D-06 OVMax= 1.73D-04

 Cycle   7  Pass 1  IDiag  1:
 E= -152.103132290591     Delta-E=       -0.000000121956 Rises=F Damp=F
 DIIS: error= 5.34D-06 at cycle   7 NSaved=   7.
 NSaved= 7 IEnMin= 7 EnMin= -152.103132290591     IErMin= 7 ErrMin= 5.34D-06
 ErrMax= 5.34D-06  0.00D+00 EMaxC= 1.00D-01 BMatC= 2.55D-09 BMatP= 4.47D-08
 IDIUse=1 WtCom= 1.00D+00 WtEn= 0.00D+00
 Coeff-Com:  0.165D-04-0.345D-03-0.135D-02 0.157D-01-0.319D-01-0.173D+00
 Coeff-Com:  0.119D+01
 Coeff:      0.165D-04-0.345D-03-0.135D-02 0.157D-01-0.319D-01-0.173D+00
 Coeff:      0.119D+01
 Gap=     0.621 Goal=   None    Shift=    0.000
 RMSDP=5.76D-07 MaxDP=1.23D-05 DE=-1.22D-07 OVMax= 3.63D-05

 Cycle   8  Pass 1  IDiag  1:
 E= -152.103132295679     Delta-E=       -0.000000005088 Rises=F Damp=F
 DIIS: error= 1.39D-06 at cycle   8 NSaved=   8.
 NSaved= 8 IEnMin= 8 EnMin= -152.103132295679     IErMin= 8 ErrMin= 1.39D-06
 ErrMax= 1.39D-06  0.00D+00 EMaxC= 1.00D-01 BMatC= 2.30D-10 BMatP= 2.55D-09
 IDIUse=1 WtCom= 1.00D+00 WtEn= 0.00D+00
 Coeff-Com:  0.200D-04-0.147D-03-0.586D-03 0.180D-02 0.119D-01-0.836D-01
 Coeff-Com:  0.982D-01 0.972D+00
 Coeff:      0.200D-04-0.147D-03-0.586D-03 0.180D-02 0.119D-01-0.836D-01
 Coeff:      0.982D-01 0.972D+00
 Gap=     0.621 Goal=   None    Shift=    0.000
 RMSDP=1.12D-07 MaxDP=2.95D-06 DE=-5.09D-09 OVMax= 6.77D-06

 Cycle   9  Pass 1  IDiag  1:
 E= -152.103132296011     Delta-E=       -0.000000000332 Rises=F Damp=F
 DIIS: error= 9.11D-07 at cycle   9 NSaved=   9.
 NSaved= 9 IEnMin= 9 EnMin= -152.103132296011     IErMin= 9 ErrMin= 9.11D-07
 ErrMax= 9.11D-07  0.00D+00 EMaxC= 1.00D-01 BMatC= 3.89D-11 BMatP= 2.30D-10
 IDIUse=1 WtCom= 1.00D+00 WtEn= 0.00D+00
 Coeff-Com:  0.186D-05 0.267D-04 0.111D-03-0.248D-02 0.900D-02 0.933D-02
 Coeff-Com: -0.176D+00 0.215D+00 0.944D+00
 Coeff:      0.186D-05 0.267D-04 0.111D-03-0.248D-02 0.900D-02 0.933D-02
 Coeff:     -0.176D+00 0.215D+00 0.944D+00
 Gap=     0.621 Goal=   None    Shift=    0.000
 RMSDP=4.60D-08 MaxDP=1.02D-06 DE=-3.32D-10 OVMax= 2.79D-06

 Cycle  10  Pass 1  IDiag  1:
 E= -152.103132296061     Delta-E=       -0.000000000050 Rises=F Damp=F
 DIIS: error= 9.63D-08 at cycle  10 NSaved=  10.
 NSaved=10 IEnMin=10 EnMin= -152.103132296061     IErMin=10 ErrMin= 9.63D-08
 ErrMax= 9.63D-08  0.00D+00 EMaxC= 1.00D-01 BMatC= 7.71D-13 BMatP= 3.89D-11
 IDIUse=1 WtCom= 1.00D+00 WtEn= 0.00D+00
 Coeff-Com: -0.897D-06-0.541D-06-0.607D-05 0.402D-03-0.164D-02-0.137D-02
 Coeff-Com:  0.389D-01-0.845D-01-0.228D+00 0.128D+01
 Coeff:     -0.897D-06-0.541D-06-0.607D-05 0.402D-03-0.164D-02-0.137D-02
 Coeff:      0.389D-01-0.845D-01-0.228D+00 0.128D+01
 Gap=     0.621 Goal=   None    Shift=    0.000
 RMSDP=9.98D-09 MaxDP=2.11D-07 DE=-5.02D-11 OVMax= 5.74D-07

 SCF Done:  E(RHF) =  -152.103132296     A.U. after   10 cycles
            NFock= 10  Conv=0.10D-07     -V/T= 2.0019
 KE= 1.518137720570D+02 PE=-4.307817774426D+02 EE= 9.233436848356D+01
 Leave Link  502 at Sat Aug 27 03:48:50 2022, MaxMem=   536870912 cpu:               4.4 elap:               1.2
 (Enter /usr/site/hpc/x86_64/glibc-2.17/broadwell/gaussian/g16_a.03/pgi-16.5/g16/l801.exe)
 Windowed orbitals will be sorted by symmetry type.
 ExpMin= 1.03D-01 ExpMax= 1.53D+04 ExpMxC= 5.22D+02 IAcc=3 IRadAn=         5 AccDes= 0.00D+00
 HarFok:  IExCor=  205 AccDes= 0.00D+00 IRadAn=         5 IDoV=-2 UseB2=F ITyADJ=14
 ICtDFT= 12500011 ScaDFX=  1.000000  1.000000  1.000000  1.000000
 Largest valence mixing into a core orbital is  1.12D-04
 Largest core mixing into a valence orbital is  1.78D-05
 Range of M.O.s used for correlation:     3   116
 NBasis=   116 NAE=    10 NBE=    10 NFC=     2 NFV=     0
 NROrb=    114 NOA=     8 NOB=     8 NVA=   106 NVB=   106
 Leave Link  801 at Sat Aug 27 03:48:50 2022, MaxMem=   536870912 cpu:               0.3 elap:               0.1
 (Enter /usr/site/hpc/x86_64/glibc-2.17/broadwell/gaussian/g16_a.03/pgi-16.5/g16/l804.exe)
 Closed-shell transformation, MDV=   536870912 ITran=4 ISComp=2.
 Unit  1 TFree=        834515 TCopy=        406125.
 Semi-Direct transformation.
 ModeAB=           4 MOrb=             8 LenV=     536365074
 LASXX=      2873146 LTotXX=     2873146 LenRXX=     5831278
 LTotAB=     2958132 MaxLAS=     7491168 LenRXY=           0
 NonZer=     8704424 LenScr=    13107200 LnRSAI=     7491168
 LnScr1=    11534336 LExtra=           0 Total=     37963982
 MaxDsk=          -1 SrtSym=           T ITran=            4
 DoSDTr:  NPSUse=  4
 JobTyp=0 Pass  1:  I=   1 to   8.
 (rs|ai) integrals will be sorted in core.
 Complete sort for first half transformation.
 First half transformation complete.
 Complete sort for second half transformation.
 Second half transformation complete.
 Spin components of T(2) and E(2):
     alpha-alpha T2 =       0.1570389634D-01 E2=     -0.6408237686D-01
     alpha-beta  T2 =       0.9246179496D-01 E2=     -0.3992510265D+00
     beta-beta   T2 =       0.1570389634D-01 E2=     -0.6408237686D-01
 ANorm=    0.1060127156D+01
 E2 =    -0.5274157802D+00 EUMP2 =    -0.15263054807628D+03
 Leave Link  804 at Sat Aug 27 03:48:51 2022, MaxMem=   536870912 cpu:               4.8 elap:               1.2
 (Enter /usr/site/hpc/x86_64/glibc-2.17/broadwell/gaussian/g16_a.03/pgi-16.5/g16/l913.exe)
 CIDS:  MDV=   536870912.
 Frozen-core window:  NFC=   2 NFV=   0.
 IFCWin=0 IBDFC=1 NFBD=     0     0 NFCmp=     0     0 NFFFC=     0     0
 Using DD3R+UMP44R for 1st iteration.
 Using DD4RQ for 2nd and later iterations.
 Keep R2 and R3 ints in memory in symmetry-blocked form, NReq=35357534.
 FoFCou: FMM=F IPFlag=           0 FMFlag=           0 FMFlg1=           0
         NFxFlg=           0 DoJE=F BraDBF=F KetDBF=F FulRan=T
         wScrn=  0.000000 ICntrl=       600 IOpCl=  0 I1Cent=           0 NGrid=           0
         NMat0=    1 NMatS0=   6786 NMatT0=    0 NMatD0=    1 NMtDS0=    0 NMtDT0=    0
 Petite list used in FoFCou.
 CIDS: In Core Option IDoMem=           1.
 CCSD(T)
 =======
 Iterations=  50 Convergence= 0.100D-06
 Produce multiple copies of IABC intergrals
 Iteration Nr.   1
 **********************
 DD1Dir will call FoFMem   1 times, MxPair=        72
 NAB=    36 NAA=     0 NBB=     0.
 MP4(R+Q)=  0.76718766D-02
 Maximum subspace dimension=  5
 A-vector RMS=  1.8082119D-03 Max=  7.1080606D-03 conv= 1.00D-05.
 RLE energy=       -0.5270214444
 E3=       -0.73489826D-02        EUMP3=      -0.15263789706D+03
 E4(DQ)=   -0.15170334D-02        UMP4(DQ)=   -0.15263941409D+03
 E4(SDQ)=  -0.46666850D-02        UMP4(SDQ)=  -0.15264256374D+03
 VARIATIONAL ENERGIES WITH THE FIRST-ORDER WAVEFUNCTION:
 DE(Corr)= -0.52702116     E(Corr)=     -152.63015346    
 NORM(A)=   0.10604215D+01
 Iteration Nr.   2
 **********************
 DD1Dir will call FoFMem   1 times, MxPair=        72
 NAB=    36 NAA=     0 NBB=     0.
 A-vector RMS=  2.1125752D-04 Max=  1.2666587D-03 conv= 1.00D-05.
 RLE energy=       -0.5382114925
 DE(Corr)= -0.53707064     E(CORR)=     -152.64020294     Delta=-1.00D-02
 NORM(A)=   0.10642401D+01
 Iteration Nr.   3
 **********************
 DD1Dir will call FoFMem   1 times, MxPair=        72
 NAB=    36 NAA=     0 NBB=     0.
 A-vector RMS=  1.5823960D-04 Max=  1.3964471D-03 conv= 1.00D-05.
 RLE energy=       -0.5387170389
 DE(Corr)= -0.53811609     E(CORR)=     -152.64124838     Delta=-1.05D-03
 NORM(A)=   0.10648928D+01
 Iteration Nr.   4
 **********************
 DD1Dir will call FoFMem   1 times, MxPair=        72
 NAB=    36 NAA=     0 NBB=     0.
 A-vector RMS=  3.1591597D-05 Max=  1.8286954D-04 conv= 1.00D-05.
 RLE energy=       -0.5387982320
 DE(Corr)= -0.53876291     E(CORR)=     -152.64189521     Delta=-6.47D-04
 NORM(A)=   0.10650107D+01
 Iteration Nr.   5
 **********************
 DD1Dir will call FoFMem   1 times, MxPair=        72
 NAB=    36 NAA=     0 NBB=     0.
 A-vector RMS=  2.1805902D-05 Max=  2.5327029D-04 conv= 1.00D-05.
 RLE energy=       -0.5388104002
 DE(Corr)= -0.53880252     E(CORR)=     -152.64193482     Delta=-3.96D-05
 NORM(A)=   0.10650241D+01
 Iteration Nr.   6
 **********************
 DD1Dir will call FoFMem   1 times, MxPair=        72
 NAB=    36 NAA=     0 NBB=     0.
 A-vector RMS=  6.6857532D-06 Max=  7.0973653D-05 conv= 1.00D-05.
 RLE energy=       -0.5388009643
 DE(Corr)= -0.53880622     E(CORR)=     -152.64193852     Delta=-3.70D-06
 NORM(A)=   0.10650243D+01
 Iteration Nr.   7
 **********************
 DD1Dir will call FoFMem   1 times, MxPair=        72
 NAB=    36 NAA=     0 NBB=     0.
 A-vector RMS=  2.9984186D-06 Max=  3.4513564D-05 conv= 1.00D-05.
 RLE energy=       -0.5388059475
 DE(Corr)= -0.53880641     E(CORR)=     -152.64193870     Delta=-1.83D-07
 NORM(A)=   0.10650265D+01
 Iteration Nr.   8
 **********************
 DD1Dir will call FoFMem   1 times, MxPair=        72
 NAB=    36 NAA=     0 NBB=     0.
 A-vector RMS=  1.0808912D-06 Max=  1.2751979D-05 conv= 1.00D-05.
 RLE energy=       -0.5388056342
 DE(Corr)= -0.53880587     E(CORR)=     -152.64193816     Delta= 5.41D-07
 NORM(A)=   0.10650268D+01
 Iteration Nr.   9
 **********************
 DD1Dir will call FoFMem   1 times, MxPair=        72
 NAB=    36 NAA=     0 NBB=     0.
 A-vector RMS=  1.8926991D-07 Max=  1.6597789D-06 conv= 1.00D-05.
 RLE energy=       -0.5388059151
 DE(Corr)= -0.53880599     E(CORR)=     -152.64193829     Delta=-1.25D-07
 NORM(A)=   0.10650272D+01
 Iteration Nr.  10
 **********************
 DD1Dir will call FoFMem   1 times, MxPair=        72
 NAB=    36 NAA=     0 NBB=     0.
 A-vector RMS=  8.6374449D-08 Max=  1.0065519D-06 conv= 1.00D-05.
 RLE energy=       -0.5388061440
 DE(Corr)= -0.53880613     E(CORR)=     -152.64193842     Delta=-1.35D-07
 NORM(A)=   0.10650274D+01
 Iteration Nr.  11
 **********************
 DD1Dir will call FoFMem   1 times, MxPair=        72
 NAB=    36 NAA=     0 NBB=     0.
 A-vector RMS=  3.1209907D-08 Max=  3.6163902D-07 conv= 1.00D-05.
 RLE energy=       -0.5388062073
 DE(Corr)= -0.53880619     E(CORR)=     -152.64193848     Delta=-6.13D-08
 NORM(A)=   0.10650274D+01
 CI/CC converged in   11 iterations to DelEn=-6.13D-08 Conv= 1.00D-07 ErrA1= 3.12D-08 Conv= 1.00D-05
 Wavefunction amplitudes converged. E(Corr)=     -152.64193848    
 Largest amplitude= 2.61D-02
 IPart=  3 IA=    7   11.05% done.
 IPart=  2 IA=   13   21.46% done.
 IPart=  2 IA=   19   31.21% done.
 IPart=  4 IA=   25   40.32% done.
 IPart=  1 IA=   32   50.13% done.
 IPart=  4 IA=   40   60.27% done.
 IPart=  2 IA=   49   70.30% done.
 IPart=  4 IA=   60   80.58% done.
 IPart=  1 IA=   74   90.51% done.
 Time for triples=       60.11 seconds.
 T4(CCSD)= -0.16277288D-01
 T5(CCSD)=  0.42460287D-03
 CCSD(T)= -0.15265779117D+03
 Discarding MO integrals.
 Leave Link  913 at Sat Aug 27 03:49:13 2022, MaxMem=   536870912 cpu:              87.6 elap:              22.3
 (Enter /usr/site/hpc/x86_64/glibc-2.17/broadwell/gaussian/g16_a.03/pgi-16.5/g16/l601.exe)
 Copying SCF densities to generalized density rwf, IOpCl= 0 IROHF=0.

 **********************************************************************

            Population analysis using the SCF density.

 **********************************************************************

 Orbital symmetries:
       Occupied  (A') (A') (A') (A') (A') (A') (A') (A') (A") (A")
       Virtual   (A') (A') (A') (A') (A') (A') (A') (A') (A') (A')
                 (A") (A') (A') (A") (A") (A") (A') (A") (A") (A')
                 (A') (A') (A') (A') (A') (A') (A') (A') (A") (A")
                 (A") (A") (A') (A') (A') (A') (A') (A') (A') (A')
                 (A') (A') (A") (A") (A') (A') (A") (A") (A') (A')
                 (A") (A") (A') (A') (A') (A") (A') (A") (A") (A")
                 (A') (A') (A') (A') (A") (A") (A') (A') (A') (A')
                 (A") (A") (A') (A') (A') (A') (A') (A') (A') (A')
                 (A") (A") (A') (A') (A") (A") (A") (A") (A') (A')
                 (A") (A") (A') (A') (A') (A') (A") (A") (A') (A')
                 (A') (A') (A') (A') (A') (A')
 The electronic state is 1-A'.
 Alpha  occ. eigenvalues --  -20.54483 -20.53750  -1.31813  -1.31000  -0.69237
 Alpha  occ. eigenvalues --   -0.68424  -0.55779  -0.53480  -0.48954  -0.48044
 Alpha virt. eigenvalues --    0.14035   0.16763   0.20336   0.22391   0.53175
 Alpha virt. eigenvalues --    0.57750   0.58019   0.58837   0.66592   0.76376
 Alpha virt. eigenvalues --    0.77347   0.77747   0.80077   0.82577   0.85628
 Alpha virt. eigenvalues --    0.86431   0.88709   0.96217   1.02510   1.06815
 Alpha virt. eigenvalues --    1.13645   1.18040   1.19824   1.30877   1.52329
 Alpha virt. eigenvalues --    1.52744   1.54057   1.54848   2.01363   2.02957
 Alpha virt. eigenvalues --    2.07780   2.08624   2.10107   2.15399   2.18515
 Alpha virt. eigenvalues --    2.21087   2.33097   2.35560   2.62476   2.64141
 Alpha virt. eigenvalues --    2.93926   2.95890   3.40294   3.41077   3.51101
 Alpha virt. eigenvalues --    3.51683   3.54009   3.54762   3.60396   3.61307
 Alpha virt. eigenvalues --    3.79675   3.80410   3.84751   3.87604   3.92876
 Alpha virt. eigenvalues --    3.94468   3.94991   3.95144   4.02235   4.07090
 Alpha virt. eigenvalues --    4.08923   4.11389   4.16453   4.17629   4.31065
 Alpha virt. eigenvalues --    4.31843   4.41154   4.46312   4.46431   4.48270
 Alpha virt. eigenvalues --    4.67114   4.68883   4.83722   4.85710   5.05563
 Alpha virt. eigenvalues --    5.06947   5.25744   5.28043   5.56026   5.58605
 Alpha virt. eigenvalues --    5.99009   5.99747   6.41400   6.42313   6.87223
 Alpha virt. eigenvalues --    6.87991   6.90666   6.91433   6.95700   6.97118
 Alpha virt. eigenvalues --    7.00038   7.01201   7.09604   7.10898   7.16487
 Alpha virt. eigenvalues --    7.18353   7.19380   7.20173   7.48350   7.49765
 Alpha virt. eigenvalues --    7.72010   7.74758   8.16794   8.18688  12.48525
 Alpha virt. eigenvalues --   12.66494
          Condensed to atoms (all electrons):
               1          2          3          4          5          6
     1  O    7.820509   0.322059   0.334145  -0.001929   0.000047   0.004183
     2  H    0.322059   0.473614  -0.030096   0.000487  -0.000025  -0.000471
     3  H    0.334145  -0.030096   0.449350   0.000824  -0.000033  -0.000303
     4  O   -0.001929   0.000487   0.000824   7.821691   0.315672   0.338866
     5  H    0.000047  -0.000025  -0.000033   0.315672   0.486150  -0.030991
     6  H    0.004183  -0.000471  -0.000303   0.338866  -0.030991   0.443817
 Mulliken charges:
               1
     1  O   -0.479014
     2  H    0.234432
     3  H    0.246112
     4  O   -0.475610
     5  H    0.229180
     6  H    0.244899
 Sum of Mulliken charges =   0.00000
 Mulliken charges with hydrogens summed into heavy atoms:
               1
     1  O    0.001531
     4  O   -0.001531
 Electronic spatial extent (au):  <R**2>=            212.6460
 Charge=              0.0000 electrons
 Dipole moment (field-independent basis, Debye):
    X=             -1.2278    Y=             -0.5362    Z=              0.0000  Tot=              1.3398
 Quadrupole moment (field-independent basis, Debye-Ang):
   XX=             -8.7634   YY=             -1.0534   ZZ=            -14.7143
   XY=             -1.1367   XZ=              0.0000   YZ=              0.0000
 Traceless Quadrupole moment (field-independent basis, Debye-Ang):
   XX=             -0.5863   YY=              7.1236   ZZ=             -6.5373
   XY=             -1.1367   XZ=              0.0000   YZ=              0.0000
 Octapole moment (field-independent basis, Debye-Ang**2):
  XXX=             -1.7392  YYY=              1.3511  ZZZ=              0.0000  XYY=              0.8155
  XXY=             -2.9645  XXZ=              0.0000  XZZ=             -0.1441  YZZ=             -0.0854
  YYZ=              0.0000  XYZ=              0.0000
 Hexadecapole moment (field-independent basis, Debye-Ang**3):
 XXXX=            -11.1791 YYYY=           -116.2342 ZZZZ=            -11.3492 XXXY=             -1.6024
 XXXZ=              0.0000 YYYX=              5.4958 YYYZ=              0.0000 ZZZX=              0.0000
 ZZZY=              0.0000 XXYY=            -21.9932 XXZZ=             -4.5226 YYZZ=            -40.4014
 XXYZ=              0.0000 YYXZ=              0.0000 ZZXY=              0.4712
 N-N= 3.453050460602D+01 E-N=-4.307817759245D+02  KE= 1.518137720570D+02
 Symmetry A'   KE= 1.427766186111D+02
 Symmetry A"   KE= 9.037153445871D+00
 Leave Link  601 at Sat Aug 27 03:49:13 2022, MaxMem=   536870912 cpu:               0.1 elap:               0.1
 (Enter /usr/site/hpc/x86_64/glibc-2.17/broadwell/gaussian/g16_a.03/pgi-16.5/g16/l9999.exe)
 1\1\GINC-N003\SP\RCCSD(T)-FC\CC-pVTZ\H4O2\C7441284\27-Aug-2022\0\\#p C
 CSD(T)/cc-pVTZ\\H2O_H2O_1311\\0,1\O,0,0.,-0.009833,0.\H,0,-0.799571,-0
 .580965,0.\H,0,0.799571,-0.580965,0.\O,0,-0.006483,2.977699,0.\H,0,0.2
 18093,3.934293,0.\H,0,-0.984207,2.879905,0.\\Version=ES64L-G16RevA.03\
 State=1-A'\HF=-152.1031323\MP2=-152.6305481\MP3=-152.6378971\MP4D=-152
 .647086\MP4DQ=-152.6394141\MP4SDQ=-152.6425637\CCSD=-152.6419385\CCSD(
 T)=-152.6577912\RMSD=9.982e-09\PG=CS [SG(H4O2)]\\@


 THERE'S A SUCKER BORN EVERY MINUTE

              -- PHINEAS TAYLOR (P.T.) BARNUM
 Job cpu time:       0 days  0 hours  1 minutes 39.6 seconds.
 Elapsed time:       0 days  0 hours  0 minutes 25.6 seconds.
 File lengths (MBytes):  RWF=    360 Int=      0 D2E=      0 Chk=      8 Scr=      8
 Normal termination of Gaussian 16 at Sat Aug 27 03:49:13 2022.
