 Entering Gaussian System, Link 0=g16
 Input=H2O_H2O_1825.com
 Output=H2O_H2O_1825.log
 Initial command:
 /usr/site/hpc/x86_64/glibc-2.17/broadwell/gaussian/g16_a.03/pgi-16.5/g16/l1.exe "/gpfs/gpfs1/scratch/c7441284/ForceFieldModel/FittingData/Gau-3689843.inp" -scrdir="/gpfs/gpfs1/scratch/c7441284/ForceFieldModel/FittingData/"
 Entering Link 1 = /usr/site/hpc/x86_64/glibc-2.17/broadwell/gaussian/g16_a.03/pgi-16.5/g16/l1.exe PID=   3689844.
  
 Copyright (c) 1988,1990,1992,1993,1995,1998,2003,2009,2016,
            Gaussian, Inc.  All Rights Reserved.
  
 This is part of the Gaussian(R) 16 program.  It is based on
 the Gaussian(R) 09 system (copyright 2009, Gaussian, Inc.),
 the Gaussian(R) 03 system (copyright 2003, Gaussian, Inc.),
 the Gaussian(R) 98 system (copyright 1998, Gaussian, Inc.),
 the Gaussian(R) 94 system (copyright 1995, Gaussian, Inc.),
 the Gaussian 92(TM) system (copyright 1992, Gaussian, Inc.),
 the Gaussian 90(TM) system (copyright 1990, Gaussian, Inc.),
 the Gaussian 88(TM) system (copyright 1988, Gaussian, Inc.),
 the Gaussian 86(TM) system (copyright 1986, Carnegie Mellon
 University), and the Gaussian 82(TM) system (copyright 1983,
 Carnegie Mellon University). Gaussian is a federally registered
 trademark of Gaussian, Inc.
  
 This software contains proprietary and confidential information,
 including trade secrets, belonging to Gaussian, Inc.
  
 This software is provided under written license and may be
 used, copied, transmitted, or stored only in accord with that
 written license.
  
 The following legend is applicable only to US Government
 contracts under FAR:
  
                    RESTRICTED RIGHTS LEGEND
  
 Use, reproduction and disclosure by the US Government is
 subject to restrictions as set forth in subparagraphs (a)
 and (c) of the Commercial Computer Software - Restricted
 Rights clause in FAR 52.227-19.
  
 Gaussian, Inc.
 340 Quinnipiac St., Bldg. 40, Wallingford CT 06492
  
  
 ---------------------------------------------------------------
 Warning -- This program may not be used in any manner that
 competes with the business of Gaussian, Inc. or will provide
 assistance to any competitor of Gaussian, Inc.  The licensee
 of this program is prohibited from giving any competitor of
 Gaussian, Inc. access to this program.  By using this program,
 the user acknowledges that Gaussian, Inc. is engaged in the
 business of creating and licensing software in the field of
 computational chemistry and represents and warrants to the
 licensee that it is not a competitor of Gaussian, Inc. and that
 it will not use this program in any manner prohibited above.
 ---------------------------------------------------------------
  

 Cite this work as:
 Gaussian 16, Revision A.03,
 M. J. Frisch, G. W. Trucks, H. B. Schlegel, G. E. Scuseria, 
 M. A. Robb, J. R. Cheeseman, G. Scalmani, V. Barone, 
 G. A. Petersson, H. Nakatsuji, X. Li, M. Caricato, A. V. Marenich, 
 J. Bloino, B. G. Janesko, R. Gomperts, B. Mennucci, H. P. Hratchian, 
 J. V. Ortiz, A. F. Izmaylov, J. L. Sonnenberg, D. Williams-Young, 
 F. Ding, F. Lipparini, F. Egidi, J. Goings, B. Peng, A. Petrone, 
 T. Henderson, D. Ranasinghe, V. G. Zakrzewski, J. Gao, N. Rega, 
 G. Zheng, W. Liang, M. Hada, M. Ehara, K. Toyota, R. Fukuda, 
 J. Hasegawa, M. Ishida, T. Nakajima, Y. Honda, O. Kitao, H. Nakai, 
 T. Vreven, K. Throssell, J. A. Montgomery, Jr., J. E. Peralta, 
 F. Ogliaro, M. J. Bearpark, J. J. Heyd, E. N. Brothers, K. N. Kudin, 
 V. N. Staroverov, T. A. Keith, R. Kobayashi, J. Normand, 
 K. Raghavachari, A. P. Rendell, J. C. Burant, S. S. Iyengar, 
 J. Tomasi, M. Cossi, J. M. Millam, M. Klene, C. Adamo, R. Cammi, 
 J. W. Ochterski, R. L. Martin, K. Morokuma, O. Farkas, 
 J. B. Foresman, and D. J. Fox, Gaussian, Inc., Wallingford CT, 2016.
 
 ******************************************
 Gaussian 16:  ES64L-G16RevA.03 25-Dec-2016
                27-Aug-2022 
 ******************************************
 %NProcShared=4
 Will use up to    4 processors via shared memory.
 %Mem=4GB
 %Chk=H2O_H2O_1825.chk
 ------------------
 #p CCSD(T)/cc-pVTZ
 ------------------
 1/38=1,172=1/1;
 2/12=2,17=6,18=5,40=1/2;
 3/5=16,6=1,11=9,25=1,30=1/1,2,3;
 4//1;
 5/5=2,38=5/2;
 8/6=4,9=120000,10=1/1,4;
 9/5=7,14=2/13;
 6/7=2,8=2,9=2,10=2/1;
 99/5=1,9=1/99;
 Leave Link    1 at Sat Aug 27 06:59:40 2022, MaxMem=   536870912 cpu:               1.6 elap:               0.5
 (Enter /usr/site/hpc/x86_64/glibc-2.17/broadwell/gaussian/g16_a.03/pgi-16.5/g16/l101.exe)
 ------------
 H2O_H2O_1825
 ------------
 Symbolic Z-matrix:
 Charge =  0 Multiplicity = 1
 O                     0.       -0.00983   0. 
 H                    -0.79957  -0.58097   0. 
 H                     0.79957  -0.58097   0. 
 O                     0.        3.53857   0. 
 H                     0.79957   4.1097    0. 
 H                    -0.79957   4.1097    0. 
 
 ITRead=  0  0  0  0  0  0
 MicOpt= -1 -1 -1 -1 -1 -1
 NAtoms=      6 NQM=        6 NQMF=       0 NMMI=      0 NMMIF=      0
                NMic=       0 NMicF=      0.
                    Isotopes and Nuclear Properties:
 (Nuclear quadrupole moments (NQMom) in fm**2, nuclear magnetic moments (NMagM)
  in nuclear magnetons)

  Atom         1           2           3           4           5           6
 IAtWgt=          16           1           1          16           1           1
 AtmWgt=  15.9949146   1.0078250   1.0078250  15.9949146   1.0078250   1.0078250
 NucSpn=           0           1           1           0           1           1
 AtZEff=  -0.0000000  -0.0000000  -0.0000000  -0.0000000  -0.0000000  -0.0000000
 NQMom=    0.0000000   0.0000000   0.0000000   0.0000000   0.0000000   0.0000000
 NMagM=    0.0000000   2.7928460   2.7928460   0.0000000   2.7928460   2.7928460
 AtZNuc=   8.0000000   1.0000000   1.0000000   8.0000000   1.0000000   1.0000000
 Leave Link  101 at Sat Aug 27 06:59:40 2022, MaxMem=   536870912 cpu:               0.3 elap:               0.1
 (Enter /usr/site/hpc/x86_64/glibc-2.17/broadwell/gaussian/g16_a.03/pgi-16.5/g16/l202.exe)
                          Input orientation:                          
 ---------------------------------------------------------------------
 Center     Atomic      Atomic             Coordinates (Angstroms)
 Number     Number       Type             X           Y           Z
 ---------------------------------------------------------------------
      1          8           0        0.000000   -0.009833    0.000000
      2          1           0       -0.799571   -0.580965    0.000000
      3          1           0        0.799571   -0.580965    0.000000
      4          8           0        0.000000    3.538568    0.000000
      5          1           0        0.799571    4.109700    0.000000
      6          1           0       -0.799571    4.109699    0.000000
 ---------------------------------------------------------------------
                    Distance matrix (angstroms):
                    1          2          3          4          5
     1  O    0.000000
     2  H    0.982601   0.000000
     3  H    0.982601   1.599142   0.000000
     4  O    3.548401   4.196411   4.196411   0.000000
     5  H    4.196411   4.955764   4.690665   0.982601   0.000000
     6  H    4.196410   4.690664   4.955763   0.982601   1.599142
                    6
     6  H    0.000000
 Stoichiometry    H4O2
 Framework group  D2H[C2"(O.O),SG(H4)]
 Deg. of freedom     3
 Full point group                 D2H     NOp   8
 Largest Abelian subgroup         D2H     NOp   8
 Largest concise Abelian subgroup D2      NOp   4
                         Standard orientation:                         
 ---------------------------------------------------------------------
 Center     Atomic      Atomic             Coordinates (Angstroms)
 Number     Number       Type             X           Y           Z
 ---------------------------------------------------------------------
      1          8           0        0.000000   -0.000000    1.774200
      2          1           0        0.000000    0.799571    2.345332
      3          1           0       -0.000000   -0.799571    2.345332
      4          8           0        0.000000   -0.000000   -1.774200
      5          1           0       -0.000000   -0.799571   -2.345332
      6          1           0        0.000000    0.799571   -2.345332
 ---------------------------------------------------------------------
 Rotational constants (GHZ):         196.0911516           4.1130633           4.0285631
 Leave Link  202 at Sat Aug 27 06:59:40 2022, MaxMem=   536870912 cpu:               0.1 elap:               0.0
 (Enter /usr/site/hpc/x86_64/glibc-2.17/broadwell/gaussian/g16_a.03/pgi-16.5/g16/l301.exe)
 Standard basis: CC-pVTZ (5D, 7F)
 Ernie: Thresh=  0.10000D-02 Tol=  0.10000D-05 Strict=F.
 Ernie:  6 primitive shells out of 84 were deleted.
 There are    27 symmetry adapted cartesian basis functions of AG  symmetry.
 There are     7 symmetry adapted cartesian basis functions of B1G symmetry.
 There are    12 symmetry adapted cartesian basis functions of B2G symmetry.
 There are    19 symmetry adapted cartesian basis functions of B3G symmetry.
 There are     7 symmetry adapted cartesian basis functions of AU  symmetry.
 There are    27 symmetry adapted cartesian basis functions of B1U symmetry.
 There are    19 symmetry adapted cartesian basis functions of B2U symmetry.
 There are    12 symmetry adapted cartesian basis functions of B3U symmetry.
 There are    23 symmetry adapted basis functions of AG  symmetry.
 There are     7 symmetry adapted basis functions of B1G symmetry.
 There are    11 symmetry adapted basis functions of B2G symmetry.
 There are    17 symmetry adapted basis functions of B3G symmetry.
 There are     7 symmetry adapted basis functions of AU  symmetry.
 There are    23 symmetry adapted basis functions of B1U symmetry.
 There are    17 symmetry adapted basis functions of B2U symmetry.
 There are    11 symmetry adapted basis functions of B3U symmetry.
   116 basis functions,   172 primitive gaussians,   130 cartesian basis functions
    10 alpha electrons       10 beta electrons
       nuclear repulsion energy        31.9141961594 Hartrees.
 IExCor=    0 DFT=F Ex=HF Corr=None ExCW=0 ScaHFX=  1.000000
 ScaDFX=  1.000000  1.000000  1.000000  1.000000 ScalE2=  1.000000  1.000000
 IRadAn=      5 IRanWt=     -1 IRanGd=            0 ICorTp=0 IEmpDi=  4
 NAtoms=    6 NActive=    6 NUniq=    2 SFac= 4.00D+00 NAtFMM=   60 NAOKFM=F Big=F
 Integral buffers will be    131072 words long.
 Raffenetti 1 integral format.
 Two-electron integral symmetry is turned on.
 Leave Link  301 at Sat Aug 27 06:59:40 2022, MaxMem=   536870912 cpu:               0.2 elap:               0.1
 (Enter /usr/site/hpc/x86_64/glibc-2.17/broadwell/gaussian/g16_a.03/pgi-16.5/g16/l302.exe)
 NPDir=0 NMtPBC=     1 NCelOv=     1 NCel=       1 NClECP=     1 NCelD=      1
         NCelK=      1 NCelE2=     1 NClLst=     1 CellRange=     0.0.
 One-electron integrals computed using PRISM.
 One-electron integral symmetry used in STVInt
 NBasis=   116 RedAO= T EigKep=  2.35D-03  NBF=    23     7    11    17     7    23    17    11
 NBsUse=   116 1.00D-06 EigRej= -1.00D+00 NBFU=    23     7    11    17     7    23    17    11
 Leave Link  302 at Sat Aug 27 06:59:40 2022, MaxMem=   536870912 cpu:               0.4 elap:               0.1
 (Enter /usr/site/hpc/x86_64/glibc-2.17/broadwell/gaussian/g16_a.03/pgi-16.5/g16/l303.exe)
 DipDrv:  MaxL=1.
 Leave Link  303 at Sat Aug 27 06:59:40 2022, MaxMem=   536870912 cpu:               0.1 elap:               0.0
 (Enter /usr/site/hpc/x86_64/glibc-2.17/broadwell/gaussian/g16_a.03/pgi-16.5/g16/l401.exe)
 ExpMin= 1.03D-01 ExpMax= 1.53D+04 ExpMxC= 5.22D+02 IAcc=3 IRadAn=         5 AccDes= 0.00D+00
 Harris functional with IExCor=  205 and IRadAn=       5 diagonalized for initial guess.
 HarFok:  IExCor=  205 AccDes= 0.00D+00 IRadAn=         5 IDoV= 1 UseB2=F ITyADJ=14
 ICtDFT=  3500011 ScaDFX=  1.000000  1.000000  1.000000  1.000000
 FoFCou: FMM=F IPFlag=           0 FMFlag=      100000 FMFlg1=           0
         NFxFlg=           0 DoJE=T BraDBF=F KetDBF=T FulRan=T
         wScrn=  0.000000 ICntrl=       500 IOpCl=  0 I1Cent=   200000004 NGrid=           0
         NMat0=    1 NMatS0=      1 NMatT0=    0 NMatD0=    1 NMtDS0=    0 NMtDT0=    0
 Petite list used in FoFCou.
 Harris En= -152.299273413011    
 JPrj=0 DoOrth=F DoCkMO=F.
 Initial guess orbital symmetries:
       Occupied  (B1U) (AG) (AG) (B1U) (B2U) (B3G) (AG) (B1U) (B3U)
                 (B2G)
       Virtual   (AG) (B1U) (B2U) (B3G) (B2U) (AG) (B3G) (B1U)
                 (AG) (B3U) (B1U) (B2G) (B2U) (AG) (B3G) (B1G)
                 (AU) (B1U) (B3U) (B2G) (B1U) (AG) (B2U) (B3G)
                 (AG) (B1U) (B2U) (B3G) (B3U) (B2G) (B1G) (AU)
                 (B2U) (AG) (B1U) (B3G) (AG) (B1U) (AG) (B1U) (B2U)
                 (B3G) (B3U) (B2G) (AG) (B1U) (B1G) (AU) (B3U)
                 (B2G) (B2U) (B3G) (B2U) (B3G) (AG) (B1G) (AU)
                 (B1U) (AG) (B2U) (B3G) (B1U) (B3U) (B2G) (B1G)
                 (AU) (AG) (B1U) (B2U) (B3G) (B3U) (B2G) (B2U)
                 (B3G) (AG) (B1U) (B1U) (AG) (B2U) (B3G) (B2G)
                 (B3U) (B1U) (AG) (B2G) (B3U) (B1G) (AU) (B1U)
                 (AG) (B3U) (B2G) (AG) (B2U) (B1U) (B3G) (B1G)
                 (AU) (AG) (B1U) (B2U) (B3G) (B2U) (B3G) (AG) (B1U)
 The electronic state of the initial guess is 1-AG.
 Leave Link  401 at Sat Aug 27 06:59:40 2022, MaxMem=   536870912 cpu:               0.6 elap:               0.2
 (Enter /usr/site/hpc/x86_64/glibc-2.17/broadwell/gaussian/g16_a.03/pgi-16.5/g16/l502.exe)
 Keep R1 ints in memory in symmetry-blocked form, NReq=26002285.
 FoFCou: FMM=F IPFlag=           0 FMFlag=           0 FMFlg1=           0
         NFxFlg=           0 DoJE=F BraDBF=F KetDBF=F FulRan=T
         wScrn=  0.000000 ICntrl=       600 IOpCl=  0 I1Cent=           0 NGrid=           0
         NMat0=    1 NMatS0=   6786 NMatT0=    0 NMatD0=    1 NMtDS0=    0 NMtDT0=    0
 Petite list used in FoFCou.
 Closed shell SCF:
 Using DIIS extrapolation, IDIIS=  1040.
 NGot=   536870912 LenX=   533861821 LenY=   533844480
 Requested convergence on RMS density matrix=1.00D-08 within 128 cycles.
 Requested convergence on MAX density matrix=1.00D-06.
 Requested convergence on             energy=1.00D-06.
 No special actions if energy rises.

 Cycle   1  Pass 1  IDiag  1:
 E= -151.920691154563    
 DIIS: error= 6.61D-02 at cycle   1 NSaved=   1.
 NSaved= 1 IEnMin= 1 EnMin= -151.920691154563     IErMin= 1 ErrMin= 6.61D-02
 ErrMax= 6.61D-02  0.00D+00 EMaxC= 1.00D-01 BMatC= 4.03D-01 BMatP= 4.03D-01
 IDIUse=3 WtCom= 3.39D-01 WtEn= 6.61D-01
 Coeff-Com:  0.100D+01
 Coeff-En:   0.100D+01
 Coeff:      0.100D+01
 Gap=     0.505 Goal=   None    Shift=    0.000
 GapD=    0.505 DampG=2.000 DampE=0.500 DampFc=1.0000 IDamp=-1.
 RMSDP=2.61D-03 MaxDP=6.53D-02              OVMax= 1.30D-01

 Cycle   2  Pass 1  IDiag  1:
 E= -152.033320399767     Delta-E=       -0.112629245204 Rises=F Damp=F
 DIIS: error= 4.19D-02 at cycle   2 NSaved=   2.
 NSaved= 2 IEnMin= 2 EnMin= -152.033320399767     IErMin= 2 ErrMin= 4.19D-02
 ErrMax= 4.19D-02  0.00D+00 EMaxC= 1.00D-01 BMatC= 1.16D-01 BMatP= 4.03D-01
 IDIUse=3 WtCom= 5.81D-01 WtEn= 4.19D-01
 Coeff-Com:  0.322D+00 0.678D+00
 Coeff-En:   0.172D+00 0.828D+00
 Coeff:      0.259D+00 0.741D+00
 Gap=     0.653 Goal=   None    Shift=    0.000
 RMSDP=1.40D-03 MaxDP=3.93D-02 DE=-1.13D-01 OVMax= 5.83D-02

 Cycle   3  Pass 1  IDiag  1:
 E= -152.100218323119     Delta-E=       -0.066897923352 Rises=F Damp=F
 DIIS: error= 9.06D-03 at cycle   3 NSaved=   3.
 NSaved= 3 IEnMin= 3 EnMin= -152.100218323119     IErMin= 3 ErrMin= 9.06D-03
 ErrMax= 9.06D-03  0.00D+00 EMaxC= 1.00D-01 BMatC= 6.10D-03 BMatP= 1.16D-01
 IDIUse=3 WtCom= 9.09D-01 WtEn= 9.06D-02
 Coeff-Com: -0.309D-01 0.155D+00 0.876D+00
 Coeff-En:   0.000D+00 0.000D+00 0.100D+01
 Coeff:     -0.281D-01 0.141D+00 0.888D+00
 Gap=     0.625 Goal=   None    Shift=    0.000
 RMSDP=2.59D-04 MaxDP=5.66D-03 DE=-6.69D-02 OVMax= 1.37D-02

 Cycle   4  Pass 1  IDiag  1:
 E= -152.104046910776     Delta-E=       -0.003828587657 Rises=F Damp=F
 DIIS: error= 8.74D-04 at cycle   4 NSaved=   4.
 NSaved= 4 IEnMin= 4 EnMin= -152.104046910776     IErMin= 4 ErrMin= 8.74D-04
 ErrMax= 8.74D-04  0.00D+00 EMaxC= 1.00D-01 BMatC= 4.02D-05 BMatP= 6.10D-03
 IDIUse=3 WtCom= 9.91D-01 WtEn= 8.74D-03
 Coeff-Com:  0.674D-02-0.609D-01-0.237D+00 0.129D+01
 Coeff-En:   0.000D+00 0.000D+00 0.000D+00 0.100D+01
 Coeff:      0.668D-02-0.604D-01-0.235D+00 0.129D+01
 Gap=     0.628 Goal=   None    Shift=    0.000
 RMSDP=5.45D-05 MaxDP=1.04D-03 DE=-3.83D-03 OVMax= 2.51D-03

 Cycle   5  Pass 1  IDiag  1:
 E= -152.104101212348     Delta-E=       -0.000054301572 Rises=F Damp=F
 DIIS: error= 1.99D-04 at cycle   5 NSaved=   5.
 NSaved= 5 IEnMin= 5 EnMin= -152.104101212348     IErMin= 5 ErrMin= 1.99D-04
 ErrMax= 1.99D-04  0.00D+00 EMaxC= 1.00D-01 BMatC= 1.45D-06 BMatP= 4.02D-05
 IDIUse=3 WtCom= 9.98D-01 WtEn= 1.99D-03
 Coeff-Com:  0.705D-03-0.764D-03-0.781D-02-0.192D+00 0.120D+01
 Coeff-En:   0.000D+00 0.000D+00 0.000D+00 0.000D+00 0.100D+01
 Coeff:      0.704D-03-0.763D-03-0.779D-02-0.192D+00 0.120D+01
 Gap=     0.628 Goal=   None    Shift=    0.000
 RMSDP=1.40D-05 MaxDP=2.83D-04 DE=-5.43D-05 OVMax= 7.02D-04

 Cycle   6  Pass 1  IDiag  1:
 E= -152.104104208200     Delta-E=       -0.000002995852 Rises=F Damp=F
 DIIS: error= 3.30D-05 at cycle   6 NSaved=   6.
 NSaved= 6 IEnMin= 6 EnMin= -152.104104208200     IErMin= 6 ErrMin= 3.30D-05
 ErrMax= 3.30D-05  0.00D+00 EMaxC= 1.00D-01 BMatC= 4.20D-08 BMatP= 1.45D-06
 IDIUse=1 WtCom= 1.00D+00 WtEn= 0.00D+00
 Coeff-Com: -0.310D-03 0.186D-02 0.803D-02-0.583D-02-0.261D+00 0.126D+01
 Coeff:     -0.310D-03 0.186D-02 0.803D-02-0.583D-02-0.261D+00 0.126D+01
 Gap=     0.628 Goal=   None    Shift=    0.000
 RMSDP=3.23D-06 MaxDP=7.12D-05 DE=-3.00D-06 OVMax= 1.69D-04

 Cycle   7  Pass 1  IDiag  1:
 E= -152.104104324309     Delta-E=       -0.000000116109 Rises=F Damp=F
 DIIS: error= 5.86D-06 at cycle   7 NSaved=   7.
 NSaved= 7 IEnMin= 7 EnMin= -152.104104324309     IErMin= 7 ErrMin= 5.86D-06
 ErrMax= 5.86D-06  0.00D+00 EMaxC= 1.00D-01 BMatC= 2.23D-09 BMatP= 4.20D-08
 IDIUse=1 WtCom= 1.00D+00 WtEn= 0.00D+00
 Coeff-Com:  0.332D-04-0.432D-03-0.175D-02 0.153D-01-0.149D-01-0.237D+00
 Coeff-Com:  0.124D+01
 Coeff:      0.332D-04-0.432D-03-0.175D-02 0.153D-01-0.149D-01-0.237D+00
 Coeff:      0.124D+01
 Gap=     0.628 Goal=   None    Shift=    0.000
 RMSDP=5.11D-07 MaxDP=1.10D-05 DE=-1.16D-07 OVMax= 3.33D-05

 Cycle   8  Pass 1  IDiag  1:
 E= -152.104104328996     Delta-E=       -0.000000004687 Rises=F Damp=F
 DIIS: error= 1.73D-06 at cycle   8 NSaved=   8.
 NSaved= 8 IEnMin= 8 EnMin= -152.104104328996     IErMin= 8 ErrMin= 1.73D-06
 ErrMax= 1.73D-06  0.00D+00 EMaxC= 1.00D-01 BMatC= 1.09D-10 BMatP= 2.23D-09
 IDIUse=1 WtCom= 1.00D+00 WtEn= 0.00D+00
 Coeff-Com:  0.459D-05 0.538D-04 0.236D-03-0.549D-02 0.197D-01 0.193D-01
 Coeff-Com: -0.423D+00 0.139D+01
 Coeff:      0.459D-05 0.538D-04 0.236D-03-0.549D-02 0.197D-01 0.193D-01
 Coeff:     -0.423D+00 0.139D+01
 Gap=     0.628 Goal=   None    Shift=    0.000
 RMSDP=1.18D-07 MaxDP=2.47D-06 DE=-4.69D-09 OVMax= 6.67D-06

 Cycle   9  Pass 1  IDiag  1:
 E= -152.104104329247     Delta-E=       -0.000000000251 Rises=F Damp=F
 DIIS: error= 2.18D-07 at cycle   9 NSaved=   9.
 NSaved= 9 IEnMin= 9 EnMin= -152.104104329247     IErMin= 9 ErrMin= 2.18D-07
 ErrMax= 2.18D-07  0.00D+00 EMaxC= 1.00D-01 BMatC= 1.97D-12 BMatP= 1.09D-10
 IDIUse=1 WtCom= 1.00D+00 WtEn= 0.00D+00
 Coeff-Com: -0.168D-05-0.640D-05-0.364D-04 0.115D-02-0.407D-02-0.510D-02
 Coeff-Com:  0.107D+00-0.427D+00 0.133D+01
 Coeff:     -0.168D-05-0.640D-05-0.364D-04 0.115D-02-0.407D-02-0.510D-02
 Coeff:      0.107D+00-0.427D+00 0.133D+01
 Gap=     0.628 Goal=   None    Shift=    0.000
 RMSDP=1.58D-08 MaxDP=3.27D-07 DE=-2.51D-10 OVMax= 9.16D-07

 Cycle  10  Pass 1  IDiag  1:
 E= -152.104104329252     Delta-E=       -0.000000000005 Rises=F Damp=F
 DIIS: error= 3.89D-08 at cycle  10 NSaved=  10.
 NSaved=10 IEnMin=10 EnMin= -152.104104329252     IErMin=10 ErrMin= 3.89D-08
 ErrMax= 3.89D-08  0.00D+00 EMaxC= 1.00D-01 BMatC= 6.34D-14 BMatP= 1.97D-12
 IDIUse=1 WtCom= 1.00D+00 WtEn= 0.00D+00
 Coeff-Com:  0.471D-06-0.155D-06 0.222D-05-0.204D-03 0.750D-03 0.668D-03
 Coeff-Com: -0.197D-01 0.891D-01-0.428D+00 0.136D+01
 Coeff:      0.471D-06-0.155D-06 0.222D-05-0.204D-03 0.750D-03 0.668D-03
 Coeff:     -0.197D-01 0.891D-01-0.428D+00 0.136D+01
 Gap=     0.628 Goal=   None    Shift=    0.000
 RMSDP=6.04D-09 MaxDP=1.76D-07 DE=-4.86D-12 OVMax= 2.57D-07

 SCF Done:  E(RHF) =  -152.104104329     A.U. after   10 cycles
            NFock= 10  Conv=0.60D-08     -V/T= 2.0020
 KE= 1.518077231179D+02 PE=-4.255076148476D+02 EE= 8.968159124106D+01
 Leave Link  502 at Sat Aug 27 06:59:41 2022, MaxMem=   536870912 cpu:               1.9 elap:               0.5
 (Enter /usr/site/hpc/x86_64/glibc-2.17/broadwell/gaussian/g16_a.03/pgi-16.5/g16/l801.exe)
 Windowed orbitals will be sorted by symmetry type.
 ExpMin= 1.03D-01 ExpMax= 1.53D+04 ExpMxC= 5.22D+02 IAcc=3 IRadAn=         5 AccDes= 0.00D+00
 HarFok:  IExCor=  205 AccDes= 0.00D+00 IRadAn=         5 IDoV=-2 UseB2=F ITyADJ=14
 ICtDFT= 12500011 ScaDFX=  1.000000  1.000000  1.000000  1.000000
 Largest valence mixing into a core orbital is  1.12D-04
 Largest core mixing into a valence orbital is  1.77D-05
 Range of M.O.s used for correlation:     3   116
 NBasis=   116 NAE=    10 NBE=    10 NFC=     2 NFV=     0
 NROrb=    114 NOA=     8 NOB=     8 NVA=   106 NVB=   106
 Leave Link  801 at Sat Aug 27 06:59:41 2022, MaxMem=   536870912 cpu:               0.3 elap:               0.1
 (Enter /usr/site/hpc/x86_64/glibc-2.17/broadwell/gaussian/g16_a.03/pgi-16.5/g16/l804.exe)
 Closed-shell transformation, MDV=   536870912 ITran=4 ISComp=2.
 Unit  1 TFree=        831218 TCopy=        406389.
 Semi-Direct transformation.
 ModeAB=           4 MOrb=             8 LenV=     536371261
 LASXX=       719192 LTotXX=      719192 LenRXX=     1460646
 LTotAB=      741454 MaxLAS=     2272704 LenRXY=           0
 NonZer=     2179838 LenScr=     3670016 LnRSAI=     2272704
 LnScr1=     3670016 LExtra=           0 Total=     11073382
 MaxDsk=          -1 SrtSym=           T ITran=            4
 DoSDTr:  NPSUse=  4
 JobTyp=0 Pass  1:  I=   1 to   8.
 (rs|ai) integrals will be sorted in core.
 Complete sort for first half transformation.
 First half transformation complete.
 Complete sort for second half transformation.
 Second half transformation complete.
 Spin components of T(2) and E(2):
     alpha-alpha T2 =       0.1563334086D-01 E2=     -0.6391281067D-01
     alpha-beta  T2 =       0.9225630398D-01 E2=     -0.3987961344D+00
     beta-beta   T2 =       0.1563334086D-01 E2=     -0.6391281067D-01
 ANorm=    0.1059963672D+01
 E2 =    -0.5266217557D+00 EUMP2 =    -0.15263072608498D+03
 Leave Link  804 at Sat Aug 27 06:59:42 2022, MaxMem=   536870912 cpu:               2.0 elap:               0.6
 (Enter /usr/site/hpc/x86_64/glibc-2.17/broadwell/gaussian/g16_a.03/pgi-16.5/g16/l913.exe)
 CIDS:  MDV=   536870912.
 Frozen-core window:  NFC=   2 NFV=   0.
 IFCWin=0 IBDFC=1 NFBD=     0     0 NFCmp=     0     0 NFFFC=     0     0
 Using DD3R+UMP44R for 1st iteration.
 Using DD4RQ for 2nd and later iterations.
 Keep R2 and R3 ints in memory in symmetry-blocked form, NReq=26006895.
 FoFCou: FMM=F IPFlag=           0 FMFlag=           0 FMFlg1=           0
         NFxFlg=           0 DoJE=F BraDBF=F KetDBF=F FulRan=T
         wScrn=  0.000000 ICntrl=       600 IOpCl=  0 I1Cent=           0 NGrid=           0
         NMat0=    1 NMatS0=   6786 NMatT0=    0 NMatD0=    1 NMtDS0=    0 NMtDT0=    0
 Petite list used in FoFCou.
 CIDS: In Core Option IDoMem=           1.
 CCSD(T)
 =======
 Iterations=  50 Convergence= 0.100D-06
 Produce multiple copies of IABC intergrals
 Iteration Nr.   1
 **********************
 DD1Dir will call FoFMem   1 times, MxPair=        72
 NAB=    36 NAA=     0 NBB=     0.
 MP4(R+Q)=  0.76117578D-02
 Maximum subspace dimension=  5
 A-vector RMS=  1.7726022D-03 Max=  6.3785674D-03 conv= 1.00D-05.
 RLE energy=       -0.5264097197
 E3=       -0.74716168D-02        EUMP3=      -0.15263819770D+03
 E4(DQ)=   -0.15498573D-02        UMP4(DQ)=   -0.15263974756D+03
 E4(SDQ)=  -0.46548450D-02        UMP4(SDQ)=  -0.15264285255D+03
 VARIATIONAL ENERGIES WITH THE FIRST-ORDER WAVEFUNCTION:
 DE(Corr)= -0.52640964     E(Corr)=     -152.63051397    
 NORM(A)=   0.10603002D+01
 Iteration Nr.   2
 **********************
 DD1Dir will call FoFMem   1 times, MxPair=        72
 NAB=    36 NAA=     0 NBB=     0.
 A-vector RMS=  2.1203289D-04 Max=  1.1760991D-03 conv= 1.00D-05.
 RLE energy=       -0.5375503213
 DE(Corr)= -0.53639654     E(CORR)=     -152.64050087     Delta=-9.99D-03
 NORM(A)=   0.10640916D+01
 Iteration Nr.   3
 **********************
 DD1Dir will call FoFMem   1 times, MxPair=        72
 NAB=    36 NAA=     0 NBB=     0.
 A-vector RMS=  1.4796249D-04 Max=  1.1944860D-03 conv= 1.00D-05.
 RLE energy=       -0.5380516479
 DE(Corr)= -0.53745757     E(CORR)=     -152.64156190     Delta=-1.06D-03
 NORM(A)=   0.10647382D+01
 Iteration Nr.   4
 **********************
 DD1Dir will call FoFMem   1 times, MxPair=        72
 NAB=    36 NAA=     0 NBB=     0.
 A-vector RMS=  2.8526216D-05 Max=  1.5551617D-04 conv= 1.00D-05.
 RLE energy=       -0.5381343065
 DE(Corr)= -0.53809885     E(CORR)=     -152.64220318     Delta=-6.41D-04
 NORM(A)=   0.10648528D+01
 Iteration Nr.   5
 **********************
 DD1Dir will call FoFMem   1 times, MxPair=        72
 NAB=    36 NAA=     0 NBB=     0.
 A-vector RMS=  2.0203981D-05 Max=  2.2516682D-04 conv= 1.00D-05.
 RLE energy=       -0.5381443394
 DE(Corr)= -0.53813704     E(CORR)=     -152.64224137     Delta=-3.82D-05
 NORM(A)=   0.10648639D+01
 Iteration Nr.   6
 **********************
 DD1Dir will call FoFMem   1 times, MxPair=        72
 NAB=    36 NAA=     0 NBB=     0.
 A-vector RMS=  6.1435086D-06 Max=  6.3499817D-05 conv= 1.00D-05.
 RLE energy=       -0.5381348393
 DE(Corr)= -0.53814043     E(CORR)=     -152.64224476     Delta=-3.39D-06
 NORM(A)=   0.10648641D+01
 Iteration Nr.   7
 **********************
 DD1Dir will call FoFMem   1 times, MxPair=        72
 NAB=    36 NAA=     0 NBB=     0.
 A-vector RMS=  2.8862803D-06 Max=  3.3699133D-05 conv= 1.00D-05.
 RLE energy=       -0.5381409524
 DE(Corr)= -0.53814059     E(CORR)=     -152.64224492     Delta=-1.60D-07
 NORM(A)=   0.10648664D+01
 Iteration Nr.   8
 **********************
 DD1Dir will call FoFMem   1 times, MxPair=        72
 NAB=    36 NAA=     0 NBB=     0.
 A-vector RMS=  8.8913018D-07 Max=  1.1249751D-05 conv= 1.00D-05.
 RLE energy=       -0.5381399021
 DE(Corr)= -0.53814009     E(CORR)=     -152.64224442     Delta= 5.02D-07
 NORM(A)=   0.10648665D+01
 Iteration Nr.   9
 **********************
 DD1Dir will call FoFMem   1 times, MxPair=        72
 NAB=    36 NAA=     0 NBB=     0.
 A-vector RMS=  1.8543873D-07 Max=  2.1913891D-06 conv= 1.00D-05.
 RLE energy=       -0.5381401892
 DE(Corr)= -0.53814027     E(CORR)=     -152.64224460     Delta=-1.79D-07
 NORM(A)=   0.10648669D+01
 Iteration Nr.  10
 **********************
 DD1Dir will call FoFMem   1 times, MxPair=        72
 NAB=    36 NAA=     0 NBB=     0.
 A-vector RMS=  7.3572163D-08 Max=  7.8604608D-07 conv= 1.00D-05.
 RLE energy=       -0.5381403747
 DE(Corr)= -0.53814036     E(CORR)=     -152.64224468     Delta=-8.30D-08
 NORM(A)=   0.10648670D+01
 CI/CC converged in   10 iterations to DelEn=-8.30D-08 Conv= 1.00D-07 ErrA1= 7.36D-08 Conv= 1.00D-05
 Wavefunction amplitudes converged. E(Corr)=     -152.64224468    
 Largest amplitude= 2.42D-02
 IPart=  4 IA=    7   11.05% done.
 IPart=  2 IA=   13   21.46% done.
 IPart=  4 IA=   19   31.21% done.
 IPart=  2 IA=   25   40.32% done.
 IPart=  4 IA=   32   50.13% done.
 IPart=  4 IA=   40   60.27% done.
 IPart=  1 IA=   49   70.30% done.
 IPart=  3 IA=   60   80.58% done.
 IPart=  2 IA=   74   90.51% done.
 Time for triples=       68.14 seconds.
 T4(CCSD)= -0.16152495D-01
 T5(CCSD)=  0.41432732D-03
 CCSD(T)= -0.15265798285D+03
 Discarding MO integrals.
 Leave Link  913 at Sat Aug 27 07:00:01 2022, MaxMem=   536870912 cpu:              75.5 elap:              18.9
 (Enter /usr/site/hpc/x86_64/glibc-2.17/broadwell/gaussian/g16_a.03/pgi-16.5/g16/l601.exe)
 Copying SCF densities to generalized density rwf, IOpCl= 0 IROHF=0.

 **********************************************************************

            Population analysis using the SCF density.

 **********************************************************************

 Orbital symmetries:
       Occupied  (B1U) (AG) (AG) (B1U) (B2U) (B3G) (AG) (B1U) (B3U)
                 (B2G)
       Virtual   (AG) (B1U) (B2U) (B3G) (B2U) (B3G) (AG) (B1U)
                 (AG) (B1U) (B3U) (B2U) (AG) (B2G) (B3G) (B1G)
                 (AU) (B3U) (B2G) (B1U) (B1U) (B2U) (AG) (B3G)
                 (B2U) (AG) (B3G) (B1U) (B3U) (B2G) (B2U) (B1G)
                 (AU) (AG) (B1U) (B3G) (AG) (B1U) (AG) (B1U) (B2U)
                 (B3G) (B2G) (B3U) (AG) (B1U) (B1G) (AU) (B2U)
                 (B3G) (B3U) (B2G) (B2U) (AG) (B3G) (B1U) (B1G)
                 (AU) (B3U) (B2G) (B2U) (B3G) (AG) (B1U) (B1G)
                 (AU) (AG) (B1U) (B2U) (B3G) (B3U) (B2G) (B2U)
                 (B3G) (AG) (B1U) (B1U) (AG) (B2U) (B3G) (B2G)
                 (B3U) (B1U) (AG) (B3U) (B2G) (B1G) (AU) (B1U)
                 (AG) (B3U) (B2G) (B2U) (B3G) (AG) (B1U) (B1G)
                 (AU) (AG) (B1U) (B2U) (B3G) (B2U) (B3G) (AG) (B1U)
 The electronic state is 1-AG.
 Alpha  occ. eigenvalues --  -20.54307 -20.54307  -1.31611  -1.31560  -0.69033
 Alpha  occ. eigenvalues --   -0.68988  -0.55311  -0.54364  -0.48748  -0.48607
 Alpha virt. eigenvalues --    0.14243   0.16059   0.20615   0.21390   0.53478
 Alpha virt. eigenvalues --    0.57562   0.57994   0.58390   0.60958   0.75812
 Alpha virt. eigenvalues --    0.79081   0.79659   0.80312   0.81156   0.83705
 Alpha virt. eigenvalues --    0.85827   0.85827   0.97109   1.00036   1.00260
 Alpha virt. eigenvalues --    1.14179   1.16119   1.18067   1.20903   1.52422
 Alpha virt. eigenvalues --    1.52852   1.53058   1.53195   2.01875   2.02128
 Alpha virt. eigenvalues --    2.05223   2.07991   2.07992   2.15602   2.16938
 Alpha virt. eigenvalues --    2.18075   2.25844   2.34616   2.62610   2.62749
 Alpha virt. eigenvalues --    2.93778   2.94429   3.40492   3.40505   3.51009
 Alpha virt. eigenvalues --    3.51114   3.54205   3.54205   3.60474   3.60746
 Alpha virt. eigenvalues --    3.79831   3.79896   3.85651   3.86740   3.87801
 Alpha virt. eigenvalues --    3.93377   3.94671   3.94672   4.02865   4.05537
 Alpha virt. eigenvalues --    4.08985   4.09752   4.16315   4.16599   4.31267
 Alpha virt. eigenvalues --    4.31267   4.40423   4.43242   4.46422   4.46920
 Alpha virt. eigenvalues --    4.67550   4.67864   4.80035   4.84645   5.05397
 Alpha virt. eigenvalues --    5.05880   5.23987   5.26926   5.53643   5.57610
 Alpha virt. eigenvalues --    5.99200   5.99201   6.41579   6.41641   6.87411
 Alpha virt. eigenvalues --    6.87419   6.90862   6.90862   6.95643   6.95932
 Alpha virt. eigenvalues --    7.00385   7.00458   7.08049   7.10569   7.13180
 Alpha virt. eigenvalues --    7.17390   7.19578   7.19579   7.48348   7.49002
 Alpha virt. eigenvalues --    7.70792   7.72807   8.15265   8.17723  12.48801
 Alpha virt. eigenvalues --   12.54795
          Condensed to atoms (all electrons):
               1          2          3          4          5          6
     1  O    7.812823   0.335805   0.335805   0.001088   0.000152   0.000152
     2  H    0.335805   0.454929  -0.033760   0.000152  -0.000015  -0.000022
     3  H    0.335805  -0.033760   0.454929   0.000152  -0.000022  -0.000015
     4  O    0.001088   0.000152   0.000152   7.812823   0.335805   0.335805
     5  H    0.000152  -0.000015  -0.000022   0.335805   0.454929  -0.033760
     6  H    0.000152  -0.000022  -0.000015   0.335805  -0.033760   0.454929
 Mulliken charges:
               1
     1  O   -0.485824
     2  H    0.242912
     3  H    0.242912
     4  O   -0.485824
     5  H    0.242912
     6  H    0.242912
 Sum of Mulliken charges =   0.00000
 Mulliken charges with hydrogens summed into heavy atoms:
               1
     1  O    0.000000
     4  O    0.000000
 Electronic spatial extent (au):  <R**2>=            282.8728
 Charge=              0.0000 electrons
 Dipole moment (field-independent basis, Debye):
    X=             -0.0000    Y=              0.0000    Z=             -0.0000  Tot=              0.0000
 Quadrupole moment (field-independent basis, Debye-Ang):
   XX=            -14.7088   YY=             -7.8557   ZZ=              1.9671
   XY=              0.0000   XZ=              0.0000   YZ=             -0.0000
 Traceless Quadrupole moment (field-independent basis, Debye-Ang):
   XX=             -7.8430   YY=             -0.9899   ZZ=              8.8329
   XY=              0.0000   XZ=              0.0000   YZ=             -0.0000
 Octapole moment (field-independent basis, Debye-Ang**2):
  XXX=             -0.0000  YYY=              0.0000  ZZZ=             -0.0000  XYY=             -0.0000
  XXY=             -0.0000  XXZ=             -0.0000  XZZ=             -0.0000  YZZ=              0.0000
  YYZ=              0.0000  XYZ=             -0.0000
 Hexadecapole moment (field-independent basis, Debye-Ang**3):
 XXXX=            -11.3318 YYYY=            -11.4412 ZZZZ=           -160.5716 XXXY=             -0.0000
 XXXZ=              0.0000 YYYX=              0.0000 YYYZ=             -0.0000 ZZZX=              0.0000
 ZZZY=             -0.0000 XXYY=             -4.5900 XXZZ=            -54.8288 YYZZ=            -20.6555
 XXYZ=              0.0000 YYXZ=              0.0000 ZZXY=              0.0000
 N-N= 3.191419615940D+01 E-N=-4.255076149204D+02  KE= 1.518077231179D+02
 Symmetry AG   KE= 6.783596935851D+01
 Symmetry B1G  KE= 1.014736469003D-31
 Symmetry B2G  KE= 4.531857926172D+00
 Symmetry B3G  KE= 3.473305415115D+00
 Symmetry AU   KE= 9.687981556390D-32
 Symmetry B1U  KE= 6.799287313491D+01
 Symmetry B2U  KE= 3.466387202526D+00
 Symmetry B3U  KE= 4.507330080689D+00
 Leave Link  601 at Sat Aug 27 07:00:01 2022, MaxMem=   536870912 cpu:               0.4 elap:               0.1
 (Enter /usr/site/hpc/x86_64/glibc-2.17/broadwell/gaussian/g16_a.03/pgi-16.5/g16/l9999.exe)
 1\1\GINC-N003\SP\RCCSD(T)-FC\CC-pVTZ\H4O2\C7441284\27-Aug-2022\0\\#p C
 CSD(T)/cc-pVTZ\\H2O_H2O_1825\\0,1\O,0,0.,-0.009833,0.\H,0,-0.799571,-0
 .580965,0.\H,0,0.799571,-0.580965,0.\O,0,0.,3.538568,0.\H,0,0.799571,4
 .1097,0.\H,0,-0.799571,4.109699,0.\\Version=ES64L-G16RevA.03\State=1-A
 G\HF=-152.1041043\MP2=-152.6307261\MP3=-152.6381977\MP4D=-152.6473593\
 MP4DQ=-152.6397476\MP4SDQ=-152.6428525\CCSD=-152.6422447\CCSD(T)=-152.
 6579829\RMSD=6.037e-09\PG=D02H [C2"(O1.O1),SG(H4)]\\@


 ACHIEVEMENT--  THE MAN WHO ROWS THE BOAT GENERALLY 
                DOESN'T HAVE TIME TO ROCK IT.

                   -- FROM THE BACK OF A SUGAR PACKET
 Job cpu time:       0 days  0 hours  1 minutes 23.5 seconds.
 Elapsed time:       0 days  0 hours  0 minutes 21.2 seconds.
 File lengths (MBytes):  RWF=    156 Int=      0 D2E=      0 Chk=      8 Scr=      8
 Normal termination of Gaussian 16 at Sat Aug 27 07:00:01 2022.
