 Entering Gaussian System, Link 0=g16
 Input=H2O_H2O_1348.com
 Output=H2O_H2O_1348.log
 Initial command:
 /usr/site/hpc/x86_64/glibc-2.17/broadwell/gaussian/g16_a.03/pgi-16.5/g16/l1.exe "/gpfs/gpfs1/scratch/c7441284/ForceFieldModel/FittingData/Gau-3589431.inp" -scrdir="/gpfs/gpfs1/scratch/c7441284/ForceFieldModel/FittingData/"
 Entering Link 1 = /usr/site/hpc/x86_64/glibc-2.17/broadwell/gaussian/g16_a.03/pgi-16.5/g16/l1.exe PID=   3589432.
  
 Copyright (c) 1988,1990,1992,1993,1995,1998,2003,2009,2016,
            Gaussian, Inc.  All Rights Reserved.
  
 This is part of the Gaussian(R) 16 program.  It is based on
 the Gaussian(R) 09 system (copyright 2009, Gaussian, Inc.),
 the Gaussian(R) 03 system (copyright 2003, Gaussian, Inc.),
 the Gaussian(R) 98 system (copyright 1998, Gaussian, Inc.),
 the Gaussian(R) 94 system (copyright 1995, Gaussian, Inc.),
 the Gaussian 92(TM) system (copyright 1992, Gaussian, Inc.),
 the Gaussian 90(TM) system (copyright 1990, Gaussian, Inc.),
 the Gaussian 88(TM) system (copyright 1988, Gaussian, Inc.),
 the Gaussian 86(TM) system (copyright 1986, Carnegie Mellon
 University), and the Gaussian 82(TM) system (copyright 1983,
 Carnegie Mellon University). Gaussian is a federally registered
 trademark of Gaussian, Inc.
  
 This software contains proprietary and confidential information,
 including trade secrets, belonging to Gaussian, Inc.
  
 This software is provided under written license and may be
 used, copied, transmitted, or stored only in accord with that
 written license.
  
 The following legend is applicable only to US Government
 contracts under FAR:
  
                    RESTRICTED RIGHTS LEGEND
  
 Use, reproduction and disclosure by the US Government is
 subject to restrictions as set forth in subparagraphs (a)
 and (c) of the Commercial Computer Software - Restricted
 Rights clause in FAR 52.227-19.
  
 Gaussian, Inc.
 340 Quinnipiac St., Bldg. 40, Wallingford CT 06492
  
  
 ---------------------------------------------------------------
 Warning -- This program may not be used in any manner that
 competes with the business of Gaussian, Inc. or will provide
 assistance to any competitor of Gaussian, Inc.  The licensee
 of this program is prohibited from giving any competitor of
 Gaussian, Inc. access to this program.  By using this program,
 the user acknowledges that Gaussian, Inc. is engaged in the
 business of creating and licensing software in the field of
 computational chemistry and represents and warrants to the
 licensee that it is not a competitor of Gaussian, Inc. and that
 it will not use this program in any manner prohibited above.
 ---------------------------------------------------------------
  

 Cite this work as:
 Gaussian 16, Revision A.03,
 M. J. Frisch, G. W. Trucks, H. B. Schlegel, G. E. Scuseria, 
 M. A. Robb, J. R. Cheeseman, G. Scalmani, V. Barone, 
 G. A. Petersson, H. Nakatsuji, X. Li, M. Caricato, A. V. Marenich, 
 J. Bloino, B. G. Janesko, R. Gomperts, B. Mennucci, H. P. Hratchian, 
 J. V. Ortiz, A. F. Izmaylov, J. L. Sonnenberg, D. Williams-Young, 
 F. Ding, F. Lipparini, F. Egidi, J. Goings, B. Peng, A. Petrone, 
 T. Henderson, D. Ranasinghe, V. G. Zakrzewski, J. Gao, N. Rega, 
 G. Zheng, W. Liang, M. Hada, M. Ehara, K. Toyota, R. Fukuda, 
 J. Hasegawa, M. Ishida, T. Nakajima, Y. Honda, O. Kitao, H. Nakai, 
 T. Vreven, K. Throssell, J. A. Montgomery, Jr., J. E. Peralta, 
 F. Ogliaro, M. J. Bearpark, J. J. Heyd, E. N. Brothers, K. N. Kudin, 
 V. N. Staroverov, T. A. Keith, R. Kobayashi, J. Normand, 
 K. Raghavachari, A. P. Rendell, J. C. Burant, S. S. Iyengar, 
 J. Tomasi, M. Cossi, J. M. Millam, M. Klene, C. Adamo, R. Cammi, 
 J. W. Ochterski, R. L. Martin, K. Morokuma, O. Farkas, 
 J. B. Foresman, and D. J. Fox, Gaussian, Inc., Wallingford CT, 2016.
 
 ******************************************
 Gaussian 16:  ES64L-G16RevA.03 25-Dec-2016
                27-Aug-2022 
 ******************************************
 %NProcShared=4
 Will use up to    4 processors via shared memory.
 %Mem=4GB
 %Chk=H2O_H2O_1348.chk
 ------------------
 #p CCSD(T)/cc-pVTZ
 ------------------
 1/38=1,172=1/1;
 2/12=2,17=6,18=5,40=1/2;
 3/5=16,6=1,11=9,25=1,30=1/1,2,3;
 4//1;
 5/5=2,38=5/2;
 8/6=4,9=120000,10=1/1,4;
 9/5=7,14=2/13;
 6/7=2,8=2,9=2,10=2/1;
 99/5=1,9=1/99;
 Leave Link    1 at Sat Aug 27 04:08:02 2022, MaxMem=   536870912 cpu:               0.3 elap:               0.1
 (Enter /usr/site/hpc/x86_64/glibc-2.17/broadwell/gaussian/g16_a.03/pgi-16.5/g16/l101.exe)
 ------------
 H2O_H2O_1348
 ------------
 Symbolic Z-matrix:
 Charge =  0 Multiplicity = 1
 O                     0.       -0.00983   0. 
 H                    -0.79957  -0.58097   0. 
 H                     0.79957  -0.58097   0. 
 O                    -0.00981   2.99754   0. 
 H                    -0.52743   3.83275   0. 
 H                    -0.63202   2.23704   0. 
 
 ITRead=  0  0  0  0  0  0
 MicOpt= -1 -1 -1 -1 -1 -1
 NAtoms=      6 NQM=        6 NQMF=       0 NMMI=      0 NMMIF=      0
                NMic=       0 NMicF=      0.
                    Isotopes and Nuclear Properties:
 (Nuclear quadrupole moments (NQMom) in fm**2, nuclear magnetic moments (NMagM)
  in nuclear magnetons)

  Atom         1           2           3           4           5           6
 IAtWgt=          16           1           1          16           1           1
 AtmWgt=  15.9949146   1.0078250   1.0078250  15.9949146   1.0078250   1.0078250
 NucSpn=           0           1           1           0           1           1
 AtZEff=  -0.0000000  -0.0000000  -0.0000000  -0.0000000  -0.0000000  -0.0000000
 NQMom=    0.0000000   0.0000000   0.0000000   0.0000000   0.0000000   0.0000000
 NMagM=    0.0000000   2.7928460   2.7928460   0.0000000   2.7928460   2.7928460
 AtZNuc=   8.0000000   1.0000000   1.0000000   8.0000000   1.0000000   1.0000000
 Leave Link  101 at Sat Aug 27 04:08:02 2022, MaxMem=   536870912 cpu:               0.7 elap:               0.2
 (Enter /usr/site/hpc/x86_64/glibc-2.17/broadwell/gaussian/g16_a.03/pgi-16.5/g16/l202.exe)
                          Input orientation:                          
 ---------------------------------------------------------------------
 Center     Atomic      Atomic             Coordinates (Angstroms)
 Number     Number       Type             X           Y           Z
 ---------------------------------------------------------------------
      1          8           0        0.000000   -0.009833    0.000000
      2          1           0       -0.799571   -0.580965    0.000000
      3          1           0        0.799571   -0.580965    0.000000
      4          8           0       -0.009812    2.997541    0.000000
      5          1           0       -0.527427    3.832754    0.000000
      6          1           0       -0.632016    2.237036    0.000000
 ---------------------------------------------------------------------
                    Distance matrix (angstroms):
                    1          2          3          4          5
     1  O    0.000000
     2  H    0.982601   0.000000
     3  H    0.982601   1.599142   0.000000
     4  O    3.007390   3.664618   3.668897   0.000000
     5  H    3.878615   4.422101   4.608887   0.982602   0.000000
     6  H    2.334066   2.822978   3.160786   0.982601   1.599142
                    6
     6  H    0.000000
 Stoichiometry    H4O2
 Framework group  CS[SG(H4O2)]
 Deg. of freedom     9
 Full point group                 CS      NOp   2
 Largest Abelian subgroup         CS      NOp   2
 Largest concise Abelian subgroup C1      NOp   1
                         Standard orientation:                         
 ---------------------------------------------------------------------
 Center     Atomic      Atomic             Coordinates (Angstroms)
 Number     Number       Type             X           Y           Z
 ---------------------------------------------------------------------
      1          8           0        0.057165   -1.450503    0.000000
      2          1           0       -0.744265   -2.019024    0.000000
      3          1           0        0.854868   -2.024241    0.000000
      4          8           0        0.057165    1.556887    0.000000
      5          1           0       -0.457722    2.393784    0.000000
      6          1           0       -0.567517    0.798416    0.000000
 ---------------------------------------------------------------------
 Rotational constants (GHZ):         269.1442281           5.8027595           5.6802922
 Leave Link  202 at Sat Aug 27 04:08:02 2022, MaxMem=   536870912 cpu:               0.0 elap:               0.0
 (Enter /usr/site/hpc/x86_64/glibc-2.17/broadwell/gaussian/g16_a.03/pgi-16.5/g16/l301.exe)
 Standard basis: CC-pVTZ (5D, 7F)
 Ernie: Thresh=  0.10000D-02 Tol=  0.10000D-05 Strict=F.
 Ernie:  6 primitive shells out of 84 were deleted.
 There are    92 symmetry adapted cartesian basis functions of A'  symmetry.
 There are    38 symmetry adapted cartesian basis functions of A"  symmetry.
 There are    80 symmetry adapted basis functions of A'  symmetry.
 There are    36 symmetry adapted basis functions of A"  symmetry.
   116 basis functions,   172 primitive gaussians,   130 cartesian basis functions
    10 alpha electrons       10 beta electrons
       nuclear repulsion energy        34.9603733366 Hartrees.
 IExCor=    0 DFT=F Ex=HF Corr=None ExCW=0 ScaHFX=  1.000000
 ScaDFX=  1.000000  1.000000  1.000000  1.000000 ScalE2=  1.000000  1.000000
 IRadAn=      5 IRanWt=     -1 IRanGd=            0 ICorTp=0 IEmpDi=  4
 NAtoms=    6 NActive=    6 NUniq=    6 SFac= 1.00D+00 NAtFMM=   60 NAOKFM=F Big=F
 Integral buffers will be    131072 words long.
 Raffenetti 1 integral format.
 Two-electron integral symmetry is turned on.
 Leave Link  301 at Sat Aug 27 04:08:02 2022, MaxMem=   536870912 cpu:               0.2 elap:               0.0
 (Enter /usr/site/hpc/x86_64/glibc-2.17/broadwell/gaussian/g16_a.03/pgi-16.5/g16/l302.exe)
 NPDir=0 NMtPBC=     1 NCelOv=     1 NCel=       1 NClECP=     1 NCelD=      1
         NCelK=      1 NCelE2=     1 NClLst=     1 CellRange=     0.0.
 One-electron integrals computed using PRISM.
 One-electron integral symmetry used in STVInt
 NBasis=   116 RedAO= T EigKep=  2.19D-03  NBF=    80    36
 NBsUse=   116 1.00D-06 EigRej= -1.00D+00 NBFU=    80    36
 Leave Link  302 at Sat Aug 27 04:08:02 2022, MaxMem=   536870912 cpu:               0.5 elap:               0.1
 (Enter /usr/site/hpc/x86_64/glibc-2.17/broadwell/gaussian/g16_a.03/pgi-16.5/g16/l303.exe)
 DipDrv:  MaxL=1.
 Leave Link  303 at Sat Aug 27 04:08:02 2022, MaxMem=   536870912 cpu:               0.1 elap:               0.0
 (Enter /usr/site/hpc/x86_64/glibc-2.17/broadwell/gaussian/g16_a.03/pgi-16.5/g16/l401.exe)
 ExpMin= 1.03D-01 ExpMax= 1.53D+04 ExpMxC= 5.22D+02 IAcc=3 IRadAn=         5 AccDes= 0.00D+00
 Harris functional with IExCor=  205 and IRadAn=       5 diagonalized for initial guess.
 HarFok:  IExCor=  205 AccDes= 0.00D+00 IRadAn=         5 IDoV= 1 UseB2=F ITyADJ=14
 ICtDFT=  3500011 ScaDFX=  1.000000  1.000000  1.000000  1.000000
 FoFCou: FMM=F IPFlag=           0 FMFlag=      100000 FMFlg1=           0
         NFxFlg=           0 DoJE=T BraDBF=F KetDBF=T FulRan=T
         wScrn=  0.000000 ICntrl=       500 IOpCl=  0 I1Cent=   200000004 NGrid=           0
         NMat0=    1 NMatS0=      1 NMatT0=    0 NMatD0=    1 NMtDS0=    0 NMtDT0=    0
 Petite list used in FoFCou.
 Harris En= -152.301652989159    
 JPrj=0 DoOrth=F DoCkMO=F.
 Initial guess orbital symmetries:
       Occupied  (A') (A') (A') (A') (A') (A') (A') (A') (A") (A")
       Virtual   (A') (A') (A') (A') (A') (A') (A') (A') (A') (A")
                 (A') (A") (A') (A') (A") (A") (A') (A") (A") (A')
                 (A') (A') (A') (A') (A') (A') (A') (A') (A") (A")
                 (A") (A") (A') (A') (A') (A') (A') (A') (A') (A')
                 (A') (A') (A") (A") (A') (A') (A") (A") (A") (A")
                 (A') (A') (A') (A') (A') (A") (A") (A') (A') (A')
                 (A") (A") (A') (A') (A") (A") (A') (A') (A') (A')
                 (A") (A") (A') (A') (A') (A') (A') (A') (A') (A')
                 (A") (A") (A') (A') (A") (A") (A") (A") (A') (A')
                 (A") (A") (A') (A') (A') (A') (A") (A") (A') (A')
                 (A') (A') (A') (A') (A') (A')
 The electronic state of the initial guess is 1-A'.
 Leave Link  401 at Sat Aug 27 04:08:03 2022, MaxMem=   536870912 cpu:               0.8 elap:               0.2
 (Enter /usr/site/hpc/x86_64/glibc-2.17/broadwell/gaussian/g16_a.03/pgi-16.5/g16/l502.exe)
 Keep R1 ints in memory in symmetry-blocked form, NReq=34823457.
 FoFCou: FMM=F IPFlag=           0 FMFlag=           0 FMFlg1=           0
         NFxFlg=           0 DoJE=F BraDBF=F KetDBF=F FulRan=T
         wScrn=  0.000000 ICntrl=       600 IOpCl=  0 I1Cent=           0 NGrid=           0
         NMat0=    1 NMatS0=   6786 NMatT0=    0 NMatD0=    1 NMtDS0=    0 NMtDT0=    0
 Petite list used in FoFCou.
 Closed shell SCF:
 Using DIIS extrapolation, IDIIS=  1040.
 NGot=   536870912 LenX=   525040673 LenY=   525023332
 Requested convergence on RMS density matrix=1.00D-08 within 128 cycles.
 Requested convergence on MAX density matrix=1.00D-06.
 Requested convergence on             energy=1.00D-06.
 No special actions if energy rises.

 Cycle   1  Pass 1  IDiag  1:
 E= -151.932941651120    
 DIIS: error= 6.62D-02 at cycle   1 NSaved=   1.
 NSaved= 1 IEnMin= 1 EnMin= -151.932941651120     IErMin= 1 ErrMin= 6.62D-02
 ErrMax= 6.62D-02  0.00D+00 EMaxC= 1.00D-01 BMatC= 3.95D-01 BMatP= 3.95D-01
 IDIUse=3 WtCom= 3.38D-01 WtEn= 6.62D-01
 Coeff-Com:  0.100D+01
 Coeff-En:   0.100D+01
 Coeff:      0.100D+01
 Gap=     0.503 Goal=   None    Shift=    0.000
 GapD=    0.503 DampG=2.000 DampE=0.500 DampFc=1.0000 IDamp=-1.
 RMSDP=2.62D-03 MaxDP=6.85D-02              OVMax= 1.25D-01

 Cycle   2  Pass 1  IDiag  1:
 E= -152.042574416993     Delta-E=       -0.109632765873 Rises=F Damp=F
 DIIS: error= 4.11D-02 at cycle   2 NSaved=   2.
 NSaved= 2 IEnMin= 2 EnMin= -152.042574416993     IErMin= 2 ErrMin= 4.11D-02
 ErrMax= 4.11D-02  0.00D+00 EMaxC= 1.00D-01 BMatC= 1.09D-01 BMatP= 3.95D-01
 IDIUse=3 WtCom= 5.89D-01 WtEn= 4.11D-01
 Coeff-Com:  0.317D+00 0.683D+00
 Coeff-En:   0.162D+00 0.838D+00
 Coeff:      0.253D+00 0.747D+00
 Gap=     0.630 Goal=   None    Shift=    0.000
 RMSDP=1.40D-03 MaxDP=4.01D-02 DE=-1.10D-01 OVMax= 5.74D-02

 Cycle   3  Pass 1  IDiag  1:
 E= -152.105411176830     Delta-E=       -0.062836759837 Rises=F Damp=F
 DIIS: error= 9.21D-03 at cycle   3 NSaved=   3.
 NSaved= 3 IEnMin= 3 EnMin= -152.105411176830     IErMin= 3 ErrMin= 9.21D-03
 ErrMax= 9.21D-03  0.00D+00 EMaxC= 1.00D-01 BMatC= 6.08D-03 BMatP= 1.09D-01
 IDIUse=3 WtCom= 9.08D-01 WtEn= 9.21D-02
 Coeff-Com: -0.307D-01 0.159D+00 0.872D+00
 Coeff-En:   0.000D+00 0.000D+00 0.100D+01
 Coeff:     -0.279D-01 0.144D+00 0.884D+00
 Gap=     0.602 Goal=   None    Shift=    0.000
 RMSDP=2.60D-04 MaxDP=6.18D-03 DE=-6.28D-02 OVMax= 1.35D-02

 Cycle   4  Pass 1  IDiag  1:
 E= -152.109191152878     Delta-E=       -0.003779976048 Rises=F Damp=F
 DIIS: error= 8.46D-04 at cycle   4 NSaved=   4.
 NSaved= 4 IEnMin= 4 EnMin= -152.109191152878     IErMin= 4 ErrMin= 8.46D-04
 ErrMax= 8.46D-04  0.00D+00 EMaxC= 1.00D-01 BMatC= 3.81D-05 BMatP= 6.08D-03
 IDIUse=3 WtCom= 9.92D-01 WtEn= 8.46D-03
 Coeff-Com:  0.687D-02-0.625D-01-0.237D+00 0.129D+01
 Coeff-En:   0.000D+00 0.000D+00 0.000D+00 0.100D+01
 Coeff:      0.681D-02-0.619D-01-0.235D+00 0.129D+01
 Gap=     0.605 Goal=   None    Shift=    0.000
 RMSDP=5.33D-05 MaxDP=1.01D-03 DE=-3.78D-03 OVMax= 2.59D-03

 Cycle   5  Pass 1  IDiag  1:
 E= -152.109243141202     Delta-E=       -0.000051988325 Rises=F Damp=F
 DIIS: error= 1.89D-04 at cycle   5 NSaved=   5.
 NSaved= 5 IEnMin= 5 EnMin= -152.109243141202     IErMin= 5 ErrMin= 1.89D-04
 ErrMax= 1.89D-04  0.00D+00 EMaxC= 1.00D-01 BMatC= 1.40D-06 BMatP= 3.81D-05
 IDIUse=3 WtCom= 9.98D-01 WtEn= 1.89D-03
 Coeff-Com:  0.734D-03-0.130D-02-0.966D-02-0.181D+00 0.119D+01
 Coeff-En:   0.000D+00 0.000D+00 0.000D+00 0.000D+00 0.100D+01
 Coeff:      0.732D-03-0.129D-02-0.964D-02-0.180D+00 0.119D+01
 Gap=     0.606 Goal=   None    Shift=    0.000
 RMSDP=1.42D-05 MaxDP=3.22D-04 DE=-5.20D-05 OVMax= 7.27D-04

 Cycle   6  Pass 1  IDiag  1:
 E= -152.109245952159     Delta-E=       -0.000002810957 Rises=F Damp=F
 DIIS: error= 3.22D-05 at cycle   6 NSaved=   6.
 NSaved= 6 IEnMin= 6 EnMin= -152.109245952159     IErMin= 6 ErrMin= 3.22D-05
 ErrMax= 3.22D-05  0.00D+00 EMaxC= 1.00D-01 BMatC= 7.13D-08 BMatP= 1.40D-06
 IDIUse=1 WtCom= 1.00D+00 WtEn= 0.00D+00
 Coeff-Com: -0.140D-03 0.201D-02 0.713D-02-0.717D-01 0.126D+00 0.937D+00
 Coeff:     -0.140D-03 0.201D-02 0.713D-02-0.717D-01 0.126D+00 0.937D+00
 Gap=     0.606 Goal=   None    Shift=    0.000
 RMSDP=2.72D-06 MaxDP=7.20D-05 DE=-2.81D-06 OVMax= 1.48D-04

 Cycle   7  Pass 1  IDiag  1:
 E= -152.109246065834     Delta-E=       -0.000000113675 Rises=F Damp=F
 DIIS: error= 1.08D-05 at cycle   7 NSaved=   7.
 NSaved= 7 IEnMin= 7 EnMin= -152.109246065834     IErMin= 7 ErrMin= 1.08D-05
 ErrMax= 1.08D-05  0.00D+00 EMaxC= 1.00D-01 BMatC= 1.08D-08 BMatP= 7.13D-08
 IDIUse=1 WtCom= 1.00D+00 WtEn= 0.00D+00
 Coeff-Com: -0.112D-03 0.476D-03 0.213D-02 0.112D-01-0.138D+00 0.192D+00
 Coeff-Com:  0.932D+00
 Coeff:     -0.112D-03 0.476D-03 0.213D-02 0.112D-01-0.138D+00 0.192D+00
 Coeff:      0.932D+00
 Gap=     0.606 Goal=   None    Shift=    0.000
 RMSDP=1.06D-06 MaxDP=3.03D-05 DE=-1.14D-07 OVMax= 5.96D-05

 Cycle   8  Pass 1  IDiag  1:
 E= -152.109246081263     Delta-E=       -0.000000015429 Rises=F Damp=F
 DIIS: error= 2.20D-06 at cycle   8 NSaved=   8.
 NSaved= 8 IEnMin= 8 EnMin= -152.109246081263     IErMin= 8 ErrMin= 2.20D-06
 ErrMax= 2.20D-06  0.00D+00 EMaxC= 1.00D-01 BMatC= 4.97D-10 BMatP= 1.08D-08
 IDIUse=1 WtCom= 1.00D+00 WtEn= 0.00D+00
 Coeff-Com:  0.236D-04-0.235D-03-0.909D-03 0.585D-02 0.240D-02-0.867D-01
 Coeff-Com: -0.853D-01 0.116D+01
 Coeff:      0.236D-04-0.235D-03-0.909D-03 0.585D-02 0.240D-02-0.867D-01
 Coeff:     -0.853D-01 0.116D+01
 Gap=     0.606 Goal=   None    Shift=    0.000
 RMSDP=2.26D-07 MaxDP=5.05D-06 DE=-1.54D-08 OVMax= 1.48D-05

 Cycle   9  Pass 1  IDiag  1:
 E= -152.109246082261     Delta-E=       -0.000000000998 Rises=F Damp=F
 DIIS: error= 8.23D-07 at cycle   9 NSaved=   9.
 NSaved= 9 IEnMin= 9 EnMin= -152.109246082261     IErMin= 9 ErrMin= 8.23D-07
 ErrMax= 8.23D-07  0.00D+00 EMaxC= 1.00D-01 BMatC= 2.88D-11 BMatP= 4.97D-10
 IDIUse=1 WtCom= 1.00D+00 WtEn= 0.00D+00
 Coeff-Com:  0.244D-05 0.216D-04 0.850D-04-0.240D-02 0.963D-02 0.804D-02
 Coeff-Com: -0.456D-01-0.259D+00 0.129D+01
 Coeff:      0.244D-05 0.216D-04 0.850D-04-0.240D-02 0.963D-02 0.804D-02
 Coeff:     -0.456D-01-0.259D+00 0.129D+01
 Gap=     0.606 Goal=   None    Shift=    0.000
 RMSDP=6.19D-08 MaxDP=1.28D-06 DE=-9.98D-10 OVMax= 3.29D-06

 Cycle  10  Pass 1  IDiag  1:
 E= -152.109246082324     Delta-E=       -0.000000000063 Rises=F Damp=F
 DIIS: error= 1.16D-07 at cycle  10 NSaved=  10.
 NSaved=10 IEnMin=10 EnMin= -152.109246082324     IErMin=10 ErrMin= 1.16D-07
 ErrMax= 1.16D-07  0.00D+00 EMaxC= 1.00D-01 BMatC= 5.92D-13 BMatP= 2.88D-11
 IDIUse=1 WtCom= 1.00D+00 WtEn= 0.00D+00
 Coeff-Com: -0.832D-06 0.293D-05 0.962D-05 0.151D-03-0.986D-03 0.893D-04
 Coeff-Com:  0.638D-02 0.217D-01-0.225D+00 0.120D+01
 Coeff:     -0.832D-06 0.293D-05 0.962D-05 0.151D-03-0.986D-03 0.893D-04
 Coeff:      0.638D-02 0.217D-01-0.225D+00 0.120D+01
 Gap=     0.606 Goal=   None    Shift=    0.000
 RMSDP=7.79D-09 MaxDP=1.39D-07 DE=-6.30D-11 OVMax= 4.74D-07

 SCF Done:  E(RHF) =  -152.109246082     A.U. after   10 cycles
            NFock= 10  Conv=0.78D-08     -V/T= 2.0020
 KE= 1.518079463878D+02 PE=-4.314783727077D+02 EE= 9.260080690096D+01
 Leave Link  502 at Sat Aug 27 04:08:04 2022, MaxMem=   536870912 cpu:               4.8 elap:               1.3
 (Enter /usr/site/hpc/x86_64/glibc-2.17/broadwell/gaussian/g16_a.03/pgi-16.5/g16/l801.exe)
 Windowed orbitals will be sorted by symmetry type.
 ExpMin= 1.03D-01 ExpMax= 1.53D+04 ExpMxC= 5.22D+02 IAcc=3 IRadAn=         5 AccDes= 0.00D+00
 HarFok:  IExCor=  205 AccDes= 0.00D+00 IRadAn=         5 IDoV=-2 UseB2=F ITyADJ=14
 ICtDFT= 12500011 ScaDFX=  1.000000  1.000000  1.000000  1.000000
 Largest valence mixing into a core orbital is  1.12D-04
 Largest core mixing into a valence orbital is  1.77D-05
 Range of M.O.s used for correlation:     3   116
 NBasis=   116 NAE=    10 NBE=    10 NFC=     2 NFV=     0
 NROrb=    114 NOA=     8 NOB=     8 NVA=   106 NVB=   106
 Leave Link  801 at Sat Aug 27 04:08:04 2022, MaxMem=   536870912 cpu:               0.3 elap:               0.1
 (Enter /usr/site/hpc/x86_64/glibc-2.17/broadwell/gaussian/g16_a.03/pgi-16.5/g16/l804.exe)
 Closed-shell transformation, MDV=   536870912 ITran=4 ISComp=2.
 Unit  1 TFree=        834515 TCopy=        406125.
 Semi-Direct transformation.
 ModeAB=           4 MOrb=             8 LenV=     536364381
 LASXX=      2873146 LTotXX=     2873146 LenRXX=     5831278
 LTotAB=     2958132 MaxLAS=     7482960 LenRXY=           0
 NonZer=     8704424 LenScr=    13107200 LnRSAI=     7482960
 LnScr1=    11534336 LExtra=           0 Total=     37955774
 MaxDsk=          -1 SrtSym=           T ITran=            4
 DoSDTr:  NPSUse=  4
 JobTyp=0 Pass  1:  I=   1 to   8.
 (rs|ai) integrals will be sorted in core.
 Complete sort for first half transformation.
 First half transformation complete.
 Complete sort for second half transformation.
 Second half transformation complete.
 Spin components of T(2) and E(2):
     alpha-alpha T2 =       0.1570578940D-01 E2=     -0.6419763504D-01
     alpha-beta  T2 =       0.9220095069D-01 E2=     -0.3991207203D+00
     beta-beta   T2 =       0.1570578940D-01 E2=     -0.6419763504D-01
 ANorm=    0.1060005910D+01
 E2 =    -0.5275159904D+00 EUMP2 =    -0.15263676207269D+03
 Leave Link  804 at Sat Aug 27 04:08:05 2022, MaxMem=   536870912 cpu:               4.4 elap:               1.1
 (Enter /usr/site/hpc/x86_64/glibc-2.17/broadwell/gaussian/g16_a.03/pgi-16.5/g16/l913.exe)
 CIDS:  MDV=   536870912.
 Frozen-core window:  NFC=   2 NFV=   0.
 IFCWin=0 IBDFC=1 NFBD=     0     0 NFCmp=     0     0 NFFFC=     0     0
 Using DD3R+UMP44R for 1st iteration.
 Using DD4RQ for 2nd and later iterations.
 Keep R2 and R3 ints in memory in symmetry-blocked form, NReq=35357534.
 FoFCou: FMM=F IPFlag=           0 FMFlag=           0 FMFlg1=           0
         NFxFlg=           0 DoJE=F BraDBF=F KetDBF=F FulRan=T
         wScrn=  0.000000 ICntrl=       600 IOpCl=  0 I1Cent=           0 NGrid=           0
         NMat0=    1 NMatS0=   6786 NMatT0=    0 NMatD0=    1 NMtDS0=    0 NMtDT0=    0
 Petite list used in FoFCou.
 CIDS: In Core Option IDoMem=           1.
 CCSD(T)
 =======
 Iterations=  50 Convergence= 0.100D-06
 Produce multiple copies of IABC intergrals
 Iteration Nr.   1
 **********************
 DD1Dir will call FoFMem   1 times, MxPair=        72
 NAB=    36 NAA=     0 NBB=     0.
 MP4(R+Q)=  0.76651858D-02
 Maximum subspace dimension=  5
 A-vector RMS=  1.8044655D-03 Max=  5.4809571D-03 conv= 1.00D-05.
 RLE energy=       -0.5270250710
 E3=       -0.72438543D-02        EUMP3=      -0.15264400593D+03
 E4(DQ)=   -0.14589470D-02        UMP4(DQ)=   -0.15264546487D+03
 E4(SDQ)=  -0.45908002D-02        UMP4(SDQ)=  -0.15264859673D+03
 VARIATIONAL ENERGIES WITH THE FIRST-ORDER WAVEFUNCTION:
 DE(Corr)= -0.52702462     E(Corr)=     -152.63627071    
 NORM(A)=   0.10602550D+01
 Iteration Nr.   2
 **********************
 DD1Dir will call FoFMem   1 times, MxPair=        72
 NAB=    36 NAA=     0 NBB=     0.
 A-vector RMS=  2.1053792D-04 Max=  1.7040978D-03 conv= 1.00D-05.
 RLE energy=       -0.5381385164
 DE(Corr)= -0.53701301     E(CORR)=     -152.64625909     Delta=-9.99D-03
 NORM(A)=   0.10640295D+01
 Iteration Nr.   3
 **********************
 DD1Dir will call FoFMem   1 times, MxPair=        72
 NAB=    36 NAA=     0 NBB=     0.
 A-vector RMS=  1.5479305D-04 Max=  7.8389820D-04 conv= 1.00D-05.
 RLE energy=       -0.5386364478
 DE(Corr)= -0.53804311     E(CORR)=     -152.64728919     Delta=-1.03D-03
 NORM(A)=   0.10646684D+01
 Iteration Nr.   4
 **********************
 DD1Dir will call FoFMem   1 times, MxPair=        72
 NAB=    36 NAA=     0 NBB=     0.
 A-vector RMS=  3.0185324D-05 Max=  1.4942540D-04 conv= 1.00D-05.
 RLE energy=       -0.5387162931
 DE(Corr)= -0.53868196     E(CORR)=     -152.64792804     Delta=-6.39D-04
 NORM(A)=   0.10647823D+01
 Iteration Nr.   5
 **********************
 DD1Dir will call FoFMem   1 times, MxPair=        72
 NAB=    36 NAA=     0 NBB=     0.
 A-vector RMS=  1.8873537D-05 Max=  1.3442952D-04 conv= 1.00D-05.
 RLE energy=       -0.5387282703
 DE(Corr)= -0.53872081     E(CORR)=     -152.64796689     Delta=-3.89D-05
 NORM(A)=   0.10647942D+01
 Iteration Nr.   6
 **********************
 DD1Dir will call FoFMem   1 times, MxPair=        72
 NAB=    36 NAA=     0 NBB=     0.
 A-vector RMS=  5.8487707D-06 Max=  4.3285024D-05 conv= 1.00D-05.
 RLE energy=       -0.5387197322
 DE(Corr)= -0.53872443     E(CORR)=     -152.64797051     Delta=-3.62D-06
 NORM(A)=   0.10647940D+01
 Iteration Nr.   7
 **********************
 DD1Dir will call FoFMem   1 times, MxPair=        72
 NAB=    36 NAA=     0 NBB=     0.
 A-vector RMS=  2.5426803D-06 Max=  1.9389368D-05 conv= 1.00D-05.
 RLE energy=       -0.5387243752
 DE(Corr)= -0.53872461     E(CORR)=     -152.64797069     Delta=-1.78D-07
 NORM(A)=   0.10647958D+01
 Iteration Nr.   8
 **********************
 DD1Dir will call FoFMem   1 times, MxPair=        72
 NAB=    36 NAA=     0 NBB=     0.
 A-vector RMS=  9.3327649D-07 Max=  8.1573631D-06 conv= 1.00D-05.
 RLE energy=       -0.5387239358
 DE(Corr)= -0.53872414     E(CORR)=     -152.64797023     Delta= 4.65D-07
 NORM(A)=   0.10647960D+01
 Iteration Nr.   9
 **********************
 DD1Dir will call FoFMem   1 times, MxPair=        72
 NAB=    36 NAA=     0 NBB=     0.
 A-vector RMS=  1.8989173D-07 Max=  2.0771968D-06 conv= 1.00D-05.
 RLE energy=       -0.5387241994
 DE(Corr)= -0.53872427     E(CORR)=     -152.64797035     Delta=-1.26D-07
 NORM(A)=   0.10647963D+01
 Iteration Nr.  10
 **********************
 DD1Dir will call FoFMem   1 times, MxPair=        72
 NAB=    36 NAA=     0 NBB=     0.
 A-vector RMS=  7.3236045D-08 Max=  7.5127187D-07 conv= 1.00D-05.
 RLE energy=       -0.5387243963
 DE(Corr)= -0.53872438     E(CORR)=     -152.64797046     Delta=-1.09D-07
 NORM(A)=   0.10647965D+01
 Iteration Nr.  11
 **********************
 DD1Dir will call FoFMem   1 times, MxPair=        72
 NAB=    36 NAA=     0 NBB=     0.
 A-vector RMS=  2.5786723D-08 Max=  2.7761969D-07 conv= 1.00D-05.
 RLE energy=       -0.5387244498
 DE(Corr)= -0.53872443     E(CORR)=     -152.64797052     Delta=-5.37D-08
 NORM(A)=   0.10647965D+01
 CI/CC converged in   11 iterations to DelEn=-5.37D-08 Conv= 1.00D-07 ErrA1= 2.58D-08 Conv= 1.00D-05
 Wavefunction amplitudes converged. E(Corr)=     -152.64797052    
 Largest amplitude= 3.58D-02
 IPart=  3 IA=    7   11.05% done.
 IPart=  1 IA=   13   21.46% done.
 IPart=  2 IA=   19   31.21% done.
 IPart=  1 IA=   25   40.32% done.
 IPart=  4 IA=   32   50.13% done.
 IPart=  4 IA=   40   60.27% done.
 IPart=  3 IA=   49   70.30% done.
 IPart=  4 IA=   60   80.58% done.
 IPart=  2 IA=   74   90.51% done.
 Time for triples=       59.02 seconds.
 T4(CCSD)= -0.16278559D-01
 T5(CCSD)=  0.41932800D-03
 CCSD(T)= -0.15266382975D+03
 Discarding MO integrals.
 Leave Link  913 at Sat Aug 27 04:08:27 2022, MaxMem=   536870912 cpu:              87.8 elap:              22.1
 (Enter /usr/site/hpc/x86_64/glibc-2.17/broadwell/gaussian/g16_a.03/pgi-16.5/g16/l601.exe)
 Copying SCF densities to generalized density rwf, IOpCl= 0 IROHF=0.

 **********************************************************************

            Population analysis using the SCF density.

 **********************************************************************

 Orbital symmetries:
       Occupied  (A') (A') (A') (A') (A') (A') (A') (A') (A") (A")
       Virtual   (A') (A') (A') (A') (A') (A') (A') (A') (A') (A')
                 (A") (A') (A") (A') (A") (A") (A') (A") (A") (A')
                 (A') (A') (A') (A') (A') (A') (A') (A') (A") (A")
                 (A") (A") (A') (A') (A') (A') (A') (A') (A') (A')
                 (A') (A') (A") (A") (A') (A") (A') (A") (A') (A')
                 (A") (A") (A') (A') (A') (A") (A") (A') (A") (A")
                 (A') (A') (A') (A') (A") (A") (A') (A') (A') (A')
                 (A") (A") (A') (A') (A') (A') (A') (A') (A') (A')
                 (A") (A") (A') (A') (A") (A") (A") (A") (A') (A")
                 (A') (A") (A') (A') (A') (A") (A') (A") (A') (A')
                 (A') (A') (A') (A') (A') (A')
 The electronic state is 1-A'.
 Alpha  occ. eigenvalues --  -20.56605 -20.53137  -1.33937  -1.30476  -0.71325
 Alpha  occ. eigenvalues --   -0.68069  -0.57256  -0.53982  -0.51048  -0.47606
 Alpha virt. eigenvalues --    0.12971   0.17358   0.19549   0.25680   0.51960
 Alpha virt. eigenvalues --    0.55940   0.56743   0.58889   0.69004   0.74634
 Alpha virt. eigenvalues --    0.75145   0.77780   0.81952   0.82334   0.84012
 Alpha virt. eigenvalues --    0.86832   0.86897   0.97525   1.02174   1.06049
 Alpha virt. eigenvalues --    1.11542   1.18055   1.18570   1.36093   1.50384
 Alpha virt. eigenvalues --    1.51451   1.54360   1.63238   1.99437   2.02913
 Alpha virt. eigenvalues --    2.05800   2.09655   2.09966   2.13680   2.19600
 Alpha virt. eigenvalues --    2.26775   2.31533   2.34354   2.60662   2.65375
 Alpha virt. eigenvalues --    2.92529   2.96797   3.38385   3.41829   3.48882
 Alpha virt. eigenvalues --    3.52195   3.52482   3.55720   3.58545   3.63831
 Alpha virt. eigenvalues --    3.77588   3.80846   3.84634   3.89060   3.89874
 Alpha virt. eigenvalues --    3.92599   3.95788   4.01972   4.04003   4.05798
 Alpha virt. eigenvalues --    4.05906   4.12411   4.16377   4.23978   4.29156
 Alpha virt. eigenvalues --    4.32728   4.40862   4.44405   4.46844   4.52465
 Alpha virt. eigenvalues --    4.65801   4.69151   4.82298   4.86522   5.03797
 Alpha virt. eigenvalues --    5.08555   5.25728   5.31181   5.55210   5.57245
 Alpha virt. eigenvalues --    5.96789   6.00293   6.39272   6.44141   6.85071
 Alpha virt. eigenvalues --    6.88508   6.88603   6.92077   6.95632   6.97923
 Alpha virt. eigenvalues --    6.98107   7.01600   7.07691   7.09990   7.14637
 Alpha virt. eigenvalues --    7.17147   7.18165   7.20816   7.46666   7.53524
 Alpha virt. eigenvalues --    7.70234   7.74454   8.17217   8.18195  12.55543
 Alpha virt. eigenvalues --   12.62724
          Condensed to atoms (all electrons):
               1          2          3          4          5          6
     1  O    7.833482   0.313766   0.334892  -0.004884  -0.000110   0.014235
     2  H    0.313766   0.467878  -0.025135   0.000200  -0.000002  -0.001911
     3  H    0.334892  -0.025135   0.430602   0.000361  -0.000006  -0.001086
     4  O   -0.004884   0.000200   0.000361   7.846884   0.333978   0.339718
     5  H   -0.000110  -0.000002  -0.000006   0.333978   0.464381  -0.034402
     6  H    0.014235  -0.001911  -0.001086   0.339718  -0.034402   0.417548
 Mulliken charges:
               1
     1  O   -0.491380
     2  H    0.245204
     3  H    0.260373
     4  O   -0.516257
     5  H    0.236161
     6  H    0.265898
 Sum of Mulliken charges =  -0.00000
 Mulliken charges with hydrogens summed into heavy atoms:
               1
     1  O    0.014198
     4  O   -0.014198
 Electronic spatial extent (au):  <R**2>=            209.1047
 Charge=             -0.0000 electrons
 Dipole moment (field-independent basis, Debye):
    X=             -1.8682    Y=             -2.1109    Z=              0.0000  Tot=              2.8189
 Quadrupole moment (field-independent basis, Debye-Ang):
   XX=             -9.8531   YY=             -3.8651   ZZ=            -14.7271
   XY=             -3.1460   XZ=              0.0000   YZ=              0.0000
 Traceless Quadrupole moment (field-independent basis, Debye-Ang):
   XX=             -0.3713   YY=              5.6167   ZZ=             -5.2453
   XY=             -3.1460   XZ=              0.0000   YZ=              0.0000
 Octapole moment (field-independent basis, Debye-Ang**2):
  XXX=             -0.6095  YYY=             -5.4742  ZZZ=              0.0000  XYY=             -5.1274
  XXY=             -5.0532  XXZ=              0.0000  XZZ=             -0.2238  YZZ=             -0.3541
  YYZ=              0.0000  XYZ=              0.0000
 Hexadecapole moment (field-independent basis, Debye-Ang**3):
 XXXX=            -12.0964 YYYY=           -122.3343 ZZZZ=            -11.3783 XXXY=              0.6469
 XXXZ=              0.0000 YYYX=            -11.8319 YYYZ=              0.0000 ZZZX=              0.0000
 ZZZY=              0.0000 XXYY=            -23.3345 XXZZ=             -4.3974 YYZZ=            -39.6517
 XXYZ=              0.0000 YYXZ=              0.0000 ZZXY=              0.8406
 N-N= 3.496037333656D+01 E-N=-4.314783722509D+02  KE= 1.518079463878D+02
 Symmetry A'   KE= 1.427754310367D+02
 Symmetry A"   KE= 9.032515351131D+00
 Leave Link  601 at Sat Aug 27 04:08:27 2022, MaxMem=   536870912 cpu:               0.2 elap:               0.1
 (Enter /usr/site/hpc/x86_64/glibc-2.17/broadwell/gaussian/g16_a.03/pgi-16.5/g16/l9999.exe)
 1\1\GINC-N003\SP\RCCSD(T)-FC\CC-pVTZ\H4O2\C7441284\27-Aug-2022\0\\#p C
 CSD(T)/cc-pVTZ\\H2O_H2O_1348\\0,1\O,0,0.,-0.009833,0.\H,0,-0.799571,-0
 .580965,0.\H,0,0.799571,-0.580965,0.\O,0,-0.009812,2.997541,0.\H,0,-0.
 527427,3.832754,0.\H,0,-0.632016,2.237036,0.\\Version=ES64L-G16RevA.03
 \State=1-A'\HF=-152.1092461\MP2=-152.6367621\MP3=-152.6440059\MP4D=-15
 2.6531301\MP4DQ=-152.6454649\MP4SDQ=-152.6485967\CCSD=-152.6479705\CCS
 D(T)=-152.6638297\RMSD=7.788e-09\PG=CS [SG(H4O2)]\\@


      SCIENCE SANS CONSCIENCE N'EST QUE RUINE DE L'AME.

                                                  -- RABELAIS
 Job cpu time:       0 days  0 hours  1 minutes 40.3 seconds.
 Elapsed time:       0 days  0 hours  0 minutes 25.3 seconds.
 File lengths (MBytes):  RWF=    360 Int=      0 D2E=      0 Chk=      8 Scr=      8
 Normal termination of Gaussian 16 at Sat Aug 27 04:08:27 2022.
