 Entering Gaussian System, Link 0=g16
 Input=H2O_H2O_2756.com
 Output=H2O_H2O_2756.log
 Initial command:
 /usr/site/hpc/x86_64/glibc-2.17/broadwell/gaussian/g16_a.03/pgi-16.5/g16/l1.exe "/gpfs/gpfs1/scratch/c7441284/ForceFieldModel/FittingData/Gau-3546902.inp" -scrdir="/gpfs/gpfs1/scratch/c7441284/ForceFieldModel/FittingData/"
 Entering Link 1 = /usr/site/hpc/x86_64/glibc-2.17/broadwell/gaussian/g16_a.03/pgi-16.5/g16/l1.exe PID=   3546903.
  
 Copyright (c) 1988,1990,1992,1993,1995,1998,2003,2009,2016,
            Gaussian, Inc.  All Rights Reserved.
  
 This is part of the Gaussian(R) 16 program.  It is based on
 the Gaussian(R) 09 system (copyright 2009, Gaussian, Inc.),
 the Gaussian(R) 03 system (copyright 2003, Gaussian, Inc.),
 the Gaussian(R) 98 system (copyright 1998, Gaussian, Inc.),
 the Gaussian(R) 94 system (copyright 1995, Gaussian, Inc.),
 the Gaussian 92(TM) system (copyright 1992, Gaussian, Inc.),
 the Gaussian 90(TM) system (copyright 1990, Gaussian, Inc.),
 the Gaussian 88(TM) system (copyright 1988, Gaussian, Inc.),
 the Gaussian 86(TM) system (copyright 1986, Carnegie Mellon
 University), and the Gaussian 82(TM) system (copyright 1983,
 Carnegie Mellon University). Gaussian is a federally registered
 trademark of Gaussian, Inc.
  
 This software contains proprietary and confidential information,
 including trade secrets, belonging to Gaussian, Inc.
  
 This software is provided under written license and may be
 used, copied, transmitted, or stored only in accord with that
 written license.
  
 The following legend is applicable only to US Government
 contracts under FAR:
  
                    RESTRICTED RIGHTS LEGEND
  
 Use, reproduction and disclosure by the US Government is
 subject to restrictions as set forth in subparagraphs (a)
 and (c) of the Commercial Computer Software - Restricted
 Rights clause in FAR 52.227-19.
  
 Gaussian, Inc.
 340 Quinnipiac St., Bldg. 40, Wallingford CT 06492
  
  
 ---------------------------------------------------------------
 Warning -- This program may not be used in any manner that
 competes with the business of Gaussian, Inc. or will provide
 assistance to any competitor of Gaussian, Inc.  The licensee
 of this program is prohibited from giving any competitor of
 Gaussian, Inc. access to this program.  By using this program,
 the user acknowledges that Gaussian, Inc. is engaged in the
 business of creating and licensing software in the field of
 computational chemistry and represents and warrants to the
 licensee that it is not a competitor of Gaussian, Inc. and that
 it will not use this program in any manner prohibited above.
 ---------------------------------------------------------------
  

 Cite this work as:
 Gaussian 16, Revision A.03,
 M. J. Frisch, G. W. Trucks, H. B. Schlegel, G. E. Scuseria, 
 M. A. Robb, J. R. Cheeseman, G. Scalmani, V. Barone, 
 G. A. Petersson, H. Nakatsuji, X. Li, M. Caricato, A. V. Marenich, 
 J. Bloino, B. G. Janesko, R. Gomperts, B. Mennucci, H. P. Hratchian, 
 J. V. Ortiz, A. F. Izmaylov, J. L. Sonnenberg, D. Williams-Young, 
 F. Ding, F. Lipparini, F. Egidi, J. Goings, B. Peng, A. Petrone, 
 T. Henderson, D. Ranasinghe, V. G. Zakrzewski, J. Gao, N. Rega, 
 G. Zheng, W. Liang, M. Hada, M. Ehara, K. Toyota, R. Fukuda, 
 J. Hasegawa, M. Ishida, T. Nakajima, Y. Honda, O. Kitao, H. Nakai, 
 T. Vreven, K. Throssell, J. A. Montgomery, Jr., J. E. Peralta, 
 F. Ogliaro, M. J. Bearpark, J. J. Heyd, E. N. Brothers, K. N. Kudin, 
 V. N. Staroverov, T. A. Keith, R. Kobayashi, J. Normand, 
 K. Raghavachari, A. P. Rendell, J. C. Burant, S. S. Iyengar, 
 J. Tomasi, M. Cossi, J. M. Millam, M. Klene, C. Adamo, R. Cammi, 
 J. W. Ochterski, R. L. Martin, K. Morokuma, O. Farkas, 
 J. B. Foresman, and D. J. Fox, Gaussian, Inc., Wallingford CT, 2016.
 
 ******************************************
 Gaussian 16:  ES64L-G16RevA.03 25-Dec-2016
                26-Aug-2022 
 ******************************************
 %NProcShared=4
 Will use up to    4 processors via shared memory.
 %Mem=4GB
 %Chk=H2O_H2O_2756.chk
 ------------------
 #p CCSD(T)/cc-pVTZ
 ------------------
 1/38=1,172=1/1;
 2/12=2,17=6,18=5,40=1/2;
 3/5=16,6=1,11=9,25=1,30=1/1,2,3;
 4//1;
 5/5=2,38=5/2;
 8/6=4,9=120000,10=1/1,4;
 9/5=7,14=2/13;
 6/7=2,8=2,9=2,10=2/1;
 99/5=1,9=1/99;
 Leave Link    1 at Fri Aug 26 15:48:06 2022, MaxMem=   536870912 cpu:               0.4 elap:               0.1
 (Enter /usr/site/hpc/x86_64/glibc-2.17/broadwell/gaussian/g16_a.03/pgi-16.5/g16/l101.exe)
 ------------
 H2O_H2O_2756
 ------------
 Symbolic Z-matrix:
 Charge =  0 Multiplicity = 1
 O                     0.       -0.00983   0. 
 H                    -0.79957  -0.58097   0. 
 H                     0.79957  -0.58097   0. 
 O                    -0.00376   4.52172   0. 
 H                     0.51638   5.35536   0. 
 H                    -0.96103   4.74339   0. 
 
 ITRead=  0  0  0  0  0  0
 MicOpt= -1 -1 -1 -1 -1 -1
 NAtoms=      6 NQM=        6 NQMF=       0 NMMI=      0 NMMIF=      0
                NMic=       0 NMicF=      0.
                    Isotopes and Nuclear Properties:
 (Nuclear quadrupole moments (NQMom) in fm**2, nuclear magnetic moments (NMagM)
  in nuclear magnetons)

  Atom         1           2           3           4           5           6
 IAtWgt=          16           1           1          16           1           1
 AtmWgt=  15.9949146   1.0078250   1.0078250  15.9949146   1.0078250   1.0078250
 NucSpn=           0           1           1           0           1           1
 AtZEff=  -0.0000000  -0.0000000  -0.0000000  -0.0000000  -0.0000000  -0.0000000
 NQMom=    0.0000000   0.0000000   0.0000000   0.0000000   0.0000000   0.0000000
 NMagM=    0.0000000   2.7928460   2.7928460   0.0000000   2.7928460   2.7928460
 AtZNuc=   8.0000000   1.0000000   1.0000000   8.0000000   1.0000000   1.0000000
 Leave Link  101 at Fri Aug 26 15:48:06 2022, MaxMem=   536870912 cpu:               0.4 elap:               0.1
 (Enter /usr/site/hpc/x86_64/glibc-2.17/broadwell/gaussian/g16_a.03/pgi-16.5/g16/l202.exe)
                          Input orientation:                          
 ---------------------------------------------------------------------
 Center     Atomic      Atomic             Coordinates (Angstroms)
 Number     Number       Type             X           Y           Z
 ---------------------------------------------------------------------
      1          8           0        0.000000   -0.009833    0.000000
      2          1           0       -0.799571   -0.580965    0.000000
      3          1           0        0.799571   -0.580965    0.000000
      4          8           0       -0.003763    4.521717    0.000000
      5          1           0        0.516382    5.355356    0.000000
      6          1           0       -0.961033    4.743391    0.000000
 ---------------------------------------------------------------------
                    Distance matrix (angstroms):
                    1          2          3          4          5
     1  O    0.000000
     2  H    0.982601   0.000000
     3  H    0.982601   1.599142   0.000000
     4  O    4.531552   5.164366   5.165531   0.000000
     5  H    5.389982   6.080431   5.943072   0.982601   0.000000
     6  H    4.849404   5.326804   5.607896   0.982601   1.599142
                    6
     6  H    0.000000
 Stoichiometry    H4O2
 Framework group  CS[SG(H4O2)]
 Deg. of freedom     9
 Full point group                 CS      NOp   2
 Largest Abelian subgroup         CS      NOp   2
 Largest concise Abelian subgroup C1      NOp   1
                         Standard orientation:                         
 ---------------------------------------------------------------------
 Center     Atomic      Atomic             Coordinates (Angstroms)
 Number     Number       Type             X           Y           Z
 ---------------------------------------------------------------------
      1          8           0        0.021860   -2.261446    0.000000
      2          1           0       -0.778185   -2.831914    0.000000
      3          1           0        0.820956   -2.833242    0.000000
      4          8           0        0.021860    2.270105    0.000000
      5          1           0        0.542697    3.103312    0.000000
      6          1           0       -0.935226    2.492574    0.000000
 ---------------------------------------------------------------------
 Rotational constants (GHZ):         204.0503387           2.5735926           2.5415373
 Leave Link  202 at Fri Aug 26 15:48:06 2022, MaxMem=   536870912 cpu:               0.1 elap:               0.0
 (Enter /usr/site/hpc/x86_64/glibc-2.17/broadwell/gaussian/g16_a.03/pgi-16.5/g16/l301.exe)
 Standard basis: CC-pVTZ (5D, 7F)
 Ernie: Thresh=  0.10000D-02 Tol=  0.10000D-05 Strict=F.
 Ernie:  6 primitive shells out of 84 were deleted.
 There are    92 symmetry adapted cartesian basis functions of A'  symmetry.
 There are    38 symmetry adapted cartesian basis functions of A"  symmetry.
 There are    80 symmetry adapted basis functions of A'  symmetry.
 There are    36 symmetry adapted basis functions of A"  symmetry.
   116 basis functions,   172 primitive gaussians,   130 cartesian basis functions
    10 alpha electrons       10 beta electrons
       nuclear repulsion energy        29.0364762432 Hartrees.
 IExCor=    0 DFT=F Ex=HF Corr=None ExCW=0 ScaHFX=  1.000000
 ScaDFX=  1.000000  1.000000  1.000000  1.000000 ScalE2=  1.000000  1.000000
 IRadAn=      5 IRanWt=     -1 IRanGd=            0 ICorTp=0 IEmpDi=  4
 NAtoms=    6 NActive=    6 NUniq=    6 SFac= 1.00D+00 NAtFMM=   60 NAOKFM=F Big=F
 Integral buffers will be    131072 words long.
 Raffenetti 1 integral format.
 Two-electron integral symmetry is turned on.
 Leave Link  301 at Fri Aug 26 15:48:06 2022, MaxMem=   536870912 cpu:               0.2 elap:               0.1
 (Enter /usr/site/hpc/x86_64/glibc-2.17/broadwell/gaussian/g16_a.03/pgi-16.5/g16/l302.exe)
 NPDir=0 NMtPBC=     1 NCelOv=     1 NCel=       1 NClECP=     1 NCelD=      1
         NCelK=      1 NCelE2=     1 NClLst=     1 CellRange=     0.0.
 One-electron integrals computed using PRISM.
 One-electron integral symmetry used in STVInt
 NBasis=   116 RedAO= T EigKep=  2.60D-03  NBF=    80    36
 NBsUse=   116 1.00D-06 EigRej= -1.00D+00 NBFU=    80    36
 Leave Link  302 at Fri Aug 26 15:48:06 2022, MaxMem=   536870912 cpu:               0.5 elap:               0.2
 (Enter /usr/site/hpc/x86_64/glibc-2.17/broadwell/gaussian/g16_a.03/pgi-16.5/g16/l303.exe)
 DipDrv:  MaxL=1.
 Leave Link  303 at Fri Aug 26 15:48:06 2022, MaxMem=   536870912 cpu:               0.1 elap:               0.0
 (Enter /usr/site/hpc/x86_64/glibc-2.17/broadwell/gaussian/g16_a.03/pgi-16.5/g16/l401.exe)
 ExpMin= 1.03D-01 ExpMax= 1.53D+04 ExpMxC= 5.22D+02 IAcc=3 IRadAn=         5 AccDes= 0.00D+00
 Harris functional with IExCor=  205 and IRadAn=       5 diagonalized for initial guess.
 HarFok:  IExCor=  205 AccDes= 0.00D+00 IRadAn=         5 IDoV= 1 UseB2=F ITyADJ=14
 ICtDFT=  3500011 ScaDFX=  1.000000  1.000000  1.000000  1.000000
 FoFCou: FMM=F IPFlag=           0 FMFlag=      100000 FMFlg1=           0
         NFxFlg=           0 DoJE=T BraDBF=F KetDBF=T FulRan=T
         wScrn=  0.000000 ICntrl=       500 IOpCl=  0 I1Cent=   200000004 NGrid=           0
         NMat0=    1 NMatS0=      1 NMatT0=    0 NMatD0=    1 NMtDS0=    0 NMtDT0=    0
 Petite list used in FoFCou.
 Harris En= -152.298711479950    
 JPrj=0 DoOrth=F DoCkMO=F.
 Initial guess orbital symmetries:
       Occupied  (A') (A') (A') (A') (A') (A') (A') (A') (A") (A")
       Virtual   (A') (A') (A') (A') (A') (A') (A') (A') (A') (A')
                 (A") (A") (A') (A') (A') (A') (A") (A") (A") (A")
                 (A') (A') (A') (A') (A') (A') (A') (A') (A") (A")
                 (A") (A") (A') (A') (A') (A') (A') (A') (A') (A')
                 (A') (A') (A") (A") (A') (A') (A") (A") (A") (A")
                 (A') (A') (A') (A') (A') (A') (A") (A") (A') (A')
                 (A') (A') (A") (A") (A") (A") (A') (A') (A') (A')
                 (A") (A") (A') (A') (A') (A') (A') (A') (A') (A')
                 (A") (A") (A') (A') (A") (A") (A") (A") (A') (A')
                 (A") (A") (A') (A') (A') (A') (A") (A") (A') (A')
                 (A') (A') (A') (A') (A') (A')
 The electronic state of the initial guess is 1-A'.
 Leave Link  401 at Fri Aug 26 15:48:07 2022, MaxMem=   536870912 cpu:               0.9 elap:               0.3
 (Enter /usr/site/hpc/x86_64/glibc-2.17/broadwell/gaussian/g16_a.03/pgi-16.5/g16/l502.exe)
 Keep R1 ints in memory in symmetry-blocked form, NReq=34823457.
 FoFCou: FMM=F IPFlag=           0 FMFlag=           0 FMFlg1=           0
         NFxFlg=           0 DoJE=F BraDBF=F KetDBF=F FulRan=T
         wScrn=  0.000000 ICntrl=       600 IOpCl=  0 I1Cent=           0 NGrid=           0
         NMat0=    1 NMatS0=   6786 NMatT0=    0 NMatD0=    1 NMtDS0=    0 NMtDT0=    0
 Petite list used in FoFCou.
 Closed shell SCF:
 Using DIIS extrapolation, IDIIS=  1040.
 NGot=   536870912 LenX=   525040673 LenY=   525023332
 Requested convergence on RMS density matrix=1.00D-08 within 128 cycles.
 Requested convergence on MAX density matrix=1.00D-06.
 Requested convergence on             energy=1.00D-06.
 No special actions if energy rises.

 Cycle   1  Pass 1  IDiag  1:
 E= -151.923900763296    
 DIIS: error= 6.60D-02 at cycle   1 NSaved=   1.
 NSaved= 1 IEnMin= 1 EnMin= -151.923900763296     IErMin= 1 ErrMin= 6.60D-02
 ErrMax= 6.60D-02  0.00D+00 EMaxC= 1.00D-01 BMatC= 4.02D-01 BMatP= 4.02D-01
 IDIUse=3 WtCom= 3.40D-01 WtEn= 6.60D-01
 Coeff-Com:  0.100D+01
 Coeff-En:   0.100D+01
 Coeff:      0.100D+01
 Gap=     0.514 Goal=   None    Shift=    0.000
 GapD=    0.514 DampG=2.000 DampE=0.500 DampFc=1.0000 IDamp=-1.
 RMSDP=2.53D-03 MaxDP=6.60D-02              OVMax= 1.28D-01

 Cycle   2  Pass 1  IDiag  1:
 E= -152.036233012911     Delta-E=       -0.112332249615 Rises=F Damp=F
 DIIS: error= 4.17D-02 at cycle   2 NSaved=   2.
 NSaved= 2 IEnMin= 2 EnMin= -152.036233012911     IErMin= 2 ErrMin= 4.17D-02
 ErrMax= 4.17D-02  0.00D+00 EMaxC= 1.00D-01 BMatC= 1.14D-01 BMatP= 4.02D-01
 IDIUse=3 WtCom= 5.83D-01 WtEn= 4.17D-01
 Coeff-Com:  0.321D+00 0.679D+00
 Coeff-En:   0.169D+00 0.831D+00
 Coeff:      0.258D+00 0.742D+00
 Gap=     0.658 Goal=   None    Shift=    0.000
 RMSDP=1.34D-03 MaxDP=3.95D-02 DE=-1.12D-01 OVMax= 5.76D-02

 Cycle   3  Pass 1  IDiag  1:
 E= -152.102097738510     Delta-E=       -0.065864725598 Rises=F Damp=F
 DIIS: error= 9.00D-03 at cycle   3 NSaved=   3.
 NSaved= 3 IEnMin= 3 EnMin= -152.102097738510     IErMin= 3 ErrMin= 9.00D-03
 ErrMax= 9.00D-03  0.00D+00 EMaxC= 1.00D-01 BMatC= 6.02D-03 BMatP= 1.14D-01
 IDIUse=3 WtCom= 9.10D-01 WtEn= 9.00D-02
 Coeff-Com: -0.306D-01 0.155D+00 0.876D+00
 Coeff-En:   0.000D+00 0.000D+00 0.100D+01
 Coeff:     -0.279D-01 0.141D+00 0.887D+00
 Gap=     0.631 Goal=   None    Shift=    0.000
 RMSDP=2.48D-04 MaxDP=5.66D-03 DE=-6.59D-02 OVMax= 1.35D-02

 Cycle   4  Pass 1  IDiag  1:
 E= -152.105866349719     Delta-E=       -0.003768611209 Rises=F Damp=F
 DIIS: error= 8.68D-04 at cycle   4 NSaved=   4.
 NSaved= 4 IEnMin= 4 EnMin= -152.105866349719     IErMin= 4 ErrMin= 8.68D-04
 ErrMax= 8.68D-04  0.00D+00 EMaxC= 1.00D-01 BMatC= 3.87D-05 BMatP= 6.02D-03
 IDIUse=3 WtCom= 9.91D-01 WtEn= 8.68D-03
 Coeff-Com:  0.679D-02-0.611D-01-0.239D+00 0.129D+01
 Coeff-En:   0.000D+00 0.000D+00 0.000D+00 0.100D+01
 Coeff:      0.673D-02-0.606D-01-0.237D+00 0.129D+01
 Gap=     0.634 Goal=   None    Shift=    0.000
 RMSDP=5.25D-05 MaxDP=1.04D-03 DE=-3.77D-03 OVMax= 2.30D-03

 Cycle   5  Pass 1  IDiag  1:
 E= -152.105918414236     Delta-E=       -0.000052064517 Rises=F Damp=F
 DIIS: error= 1.97D-04 at cycle   5 NSaved=   5.
 NSaved= 5 IEnMin= 5 EnMin= -152.105918414236     IErMin= 5 ErrMin= 1.97D-04
 ErrMax= 1.97D-04  0.00D+00 EMaxC= 1.00D-01 BMatC= 1.40D-06 BMatP= 3.87D-05
 IDIUse=3 WtCom= 9.98D-01 WtEn= 1.97D-03
 Coeff-Com:  0.607D-03-0.323D-04-0.487D-02-0.209D+00 0.121D+01
 Coeff-En:   0.000D+00 0.000D+00 0.000D+00 0.000D+00 0.100D+01
 Coeff:      0.606D-03-0.323D-04-0.486D-02-0.209D+00 0.121D+01
 Gap=     0.634 Goal=   None    Shift=    0.000
 RMSDP=1.40D-05 MaxDP=2.87D-04 DE=-5.21D-05 OVMax= 6.92D-04

 Cycle   6  Pass 1  IDiag  1:
 E= -152.105921318673     Delta-E=       -0.000002904437 Rises=F Damp=F
 DIIS: error= 3.00D-05 at cycle   6 NSaved=   6.
 NSaved= 6 IEnMin= 6 EnMin= -152.105921318673     IErMin= 6 ErrMin= 3.00D-05
 ErrMax= 3.00D-05  0.00D+00 EMaxC= 1.00D-01 BMatC= 3.68D-08 BMatP= 1.40D-06
 IDIUse=1 WtCom= 1.00D+00 WtEn= 0.00D+00
 Coeff-Com: -0.288D-03 0.169D-02 0.727D-02-0.129D-02-0.262D+00 0.125D+01
 Coeff:     -0.288D-03 0.169D-02 0.727D-02-0.129D-02-0.262D+00 0.125D+01
 Gap=     0.634 Goal=   None    Shift=    0.000
 RMSDP=3.05D-06 MaxDP=6.72D-05 DE=-2.90D-06 OVMax= 1.57D-04

 Cycle   7  Pass 1  IDiag  1:
 E= -152.105921422137     Delta-E=       -0.000000103464 Rises=F Damp=F
 DIIS: error= 5.51D-06 at cycle   7 NSaved=   7.
 NSaved= 7 IEnMin= 7 EnMin= -152.105921422137     IErMin= 7 ErrMin= 5.51D-06
 ErrMax= 5.51D-06  0.00D+00 EMaxC= 1.00D-01 BMatC= 1.93D-09 BMatP= 3.68D-08
 IDIUse=1 WtCom= 1.00D+00 WtEn= 0.00D+00
 Coeff-Com:  0.319D-04-0.408D-03-0.164D-02 0.143D-01-0.137D-01-0.230D+00
 Coeff-Com:  0.123D+01
 Coeff:      0.319D-04-0.408D-03-0.164D-02 0.143D-01-0.137D-01-0.230D+00
 Coeff:      0.123D+01
 Gap=     0.634 Goal=   None    Shift=    0.000
 RMSDP=4.56D-07 MaxDP=1.00D-05 DE=-1.03D-07 OVMax= 3.05D-05

 Cycle   8  Pass 1  IDiag  1:
 E= -152.105921426214     Delta-E=       -0.000000004077 Rises=F Damp=F
 DIIS: error= 1.66D-06 at cycle   8 NSaved=   8.
 NSaved= 8 IEnMin= 8 EnMin= -152.105921426214     IErMin= 8 ErrMin= 1.66D-06
 ErrMax= 1.66D-06  0.00D+00 EMaxC= 1.00D-01 BMatC= 9.97D-11 BMatP= 1.93D-09
 IDIUse=1 WtCom= 1.00D+00 WtEn= 0.00D+00
 Coeff-Com:  0.433D-05 0.521D-04 0.226D-03-0.536D-02 0.199D-01 0.138D-01
 Coeff-Com: -0.417D+00 0.139D+01
 Coeff:      0.433D-05 0.521D-04 0.226D-03-0.536D-02 0.199D-01 0.138D-01
 Coeff:     -0.417D+00 0.139D+01
 Gap=     0.634 Goal=   None    Shift=    0.000
 RMSDP=1.16D-07 MaxDP=2.44D-06 DE=-4.08D-09 OVMax= 6.58D-06

 Cycle   9  Pass 1  IDiag  1:
 E= -152.105921426445     Delta-E=       -0.000000000231 Rises=F Damp=F
 DIIS: error= 2.12D-07 at cycle   9 NSaved=   9.
 NSaved= 9 IEnMin= 9 EnMin= -152.105921426445     IErMin= 9 ErrMin= 2.12D-07
 ErrMax= 2.12D-07  0.00D+00 EMaxC= 1.00D-01 BMatC= 2.50D-12 BMatP= 9.97D-11
 IDIUse=1 WtCom= 1.00D+00 WtEn= 0.00D+00
 Coeff-Com: -0.543D-06 0.824D-05 0.296D-04-0.314D-03 0.937D-03 0.143D-02
 Coeff-Com: -0.112D-01-0.436D-01 0.105D+01
 Coeff:     -0.543D-06 0.824D-05 0.296D-04-0.314D-03 0.937D-03 0.143D-02
 Coeff:     -0.112D-01-0.436D-01 0.105D+01
 Gap=     0.634 Goal=   None    Shift=    0.000
 RMSDP=1.30D-08 MaxDP=3.65D-07 DE=-2.31D-10 OVMax= 8.13D-07

 Cycle  10  Pass 1  IDiag  1:
 E= -152.105921426450     Delta-E=       -0.000000000005 Rises=F Damp=F
 DIIS: error= 7.64D-08 at cycle  10 NSaved=  10.
 NSaved=10 IEnMin=10 EnMin= -152.105921426450     IErMin=10 ErrMin= 7.64D-08
 ErrMax= 7.64D-08  0.00D+00 EMaxC= 1.00D-01 BMatC= 5.42D-13 BMatP= 2.50D-12
 IDIUse=1 WtCom= 1.00D+00 WtEn= 0.00D+00
 Coeff-Com: -0.609D-06-0.422D-05-0.206D-04 0.547D-03-0.197D-02-0.202D-02
 Coeff-Com:  0.497D-01-0.187D+00 0.295D+00 0.846D+00
 Coeff:     -0.609D-06-0.422D-05-0.206D-04 0.547D-03-0.197D-02-0.202D-02
 Coeff:      0.497D-01-0.187D+00 0.295D+00 0.846D+00
 Gap=     0.634 Goal=   None    Shift=    0.000
 RMSDP=4.86D-09 MaxDP=1.55D-07 DE=-4.72D-12 OVMax= 3.01D-07

 SCF Done:  E(RHF) =  -152.105921426     A.U. after   10 cycles
            NFock= 10  Conv=0.49D-08     -V/T= 2.0020
 KE= 1.518062210939D+02 PE=-4.196460898319D+02 EE= 8.669747106831D+01
 Leave Link  502 at Fri Aug 26 15:48:08 2022, MaxMem=   536870912 cpu:               4.7 elap:               1.3
 (Enter /usr/site/hpc/x86_64/glibc-2.17/broadwell/gaussian/g16_a.03/pgi-16.5/g16/l801.exe)
 Windowed orbitals will be sorted by symmetry type.
 ExpMin= 1.03D-01 ExpMax= 1.53D+04 ExpMxC= 5.22D+02 IAcc=3 IRadAn=         5 AccDes= 0.00D+00
 HarFok:  IExCor=  205 AccDes= 0.00D+00 IRadAn=         5 IDoV=-2 UseB2=F ITyADJ=14
 ICtDFT= 12500011 ScaDFX=  1.000000  1.000000  1.000000  1.000000
 Largest valence mixing into a core orbital is  1.12D-04
 Largest core mixing into a valence orbital is  1.77D-05
 Range of M.O.s used for correlation:     3   116
 NBasis=   116 NAE=    10 NBE=    10 NFC=     2 NFV=     0
 NROrb=    114 NOA=     8 NOB=     8 NVA=   106 NVB=   106
 Leave Link  801 at Fri Aug 26 15:48:08 2022, MaxMem=   536870912 cpu:               0.4 elap:               0.1
 (Enter /usr/site/hpc/x86_64/glibc-2.17/broadwell/gaussian/g16_a.03/pgi-16.5/g16/l804.exe)
 Closed-shell transformation, MDV=   536870912 ITran=4 ISComp=2.
 Unit  1 TFree=        834515 TCopy=        406125.
 Semi-Direct transformation.
 ModeAB=           4 MOrb=             8 LenV=     536375320
 LASXX=      2873146 LTotXX=     2873146 LenRXX=     5831278
 LTotAB=     2958132 MaxLAS=     5795760 LenRXY=           0
 NonZer=     8704424 LenScr=    13107200 LnRSAI=     5795760
 LnScr1=     8912896 LExtra=           0 Total=     33647134
 MaxDsk=          -1 SrtSym=           T ITran=            4
 DoSDTr:  NPSUse=  4
 JobTyp=0 Pass  1:  I=   1 to   8.
 (rs|ai) integrals will be sorted in core.
 Complete sort for first half transformation.
 First half transformation complete.
 Complete sort for second half transformation.
 Second half transformation complete.
 Spin components of T(2) and E(2):
     alpha-alpha T2 =       0.1557921471D-01 E2=     -0.6382191231D-01
     alpha-beta  T2 =       0.9202354809D-01 E2=     -0.3984462820D+00
     beta-beta   T2 =       0.1557921471D-01 E2=     -0.6382191231D-01
 ANorm=    0.1059802801D+01
 E2 =    -0.5260901067D+00 EUMP2 =    -0.15263201153311D+03
 Leave Link  804 at Fri Aug 26 15:48:09 2022, MaxMem=   536870912 cpu:               4.6 elap:               1.2
 (Enter /usr/site/hpc/x86_64/glibc-2.17/broadwell/gaussian/g16_a.03/pgi-16.5/g16/l913.exe)
 CIDS:  MDV=   536870912.
 Frozen-core window:  NFC=   2 NFV=   0.
 IFCWin=0 IBDFC=1 NFBD=     0     0 NFCmp=     0     0 NFFFC=     0     0
 Using DD3R+UMP44R for 1st iteration.
 Using DD4RQ for 2nd and later iterations.
 Keep R2 and R3 ints in memory in symmetry-blocked form, NReq=35357534.
 FoFCou: FMM=F IPFlag=           0 FMFlag=           0 FMFlg1=           0
         NFxFlg=           0 DoJE=F BraDBF=F KetDBF=F FulRan=T
         wScrn=  0.000000 ICntrl=       600 IOpCl=  0 I1Cent=           0 NGrid=           0
         NMat0=    1 NMatS0=   6786 NMatT0=    0 NMatD0=    1 NMtDS0=    0 NMtDT0=    0
 Petite list used in FoFCou.
 CIDS: In Core Option IDoMem=           1.
 CCSD(T)
 =======
 Iterations=  50 Convergence= 0.100D-06
 Produce multiple copies of IABC intergrals
 Iteration Nr.   1
 **********************
 DD1Dir will call FoFMem   1 times, MxPair=        72
 NAB=    36 NAA=     0 NBB=     0.
 MP4(R+Q)=  0.75716259D-02
 Maximum subspace dimension=  5
 A-vector RMS=  1.7504913D-03 Max=  5.5394450D-03 conv= 1.00D-05.
 RLE energy=       -0.5260027880
 E3=       -0.75559892D-02        EUMP3=      -0.15263956752D+03
 E4(DQ)=   -0.15534538D-02        UMP4(DQ)=   -0.15264112098D+03
 E4(SDQ)=  -0.46238552D-02        UMP4(SDQ)=  -0.15264419138D+03
 VARIATIONAL ENERGIES WITH THE FIRST-ORDER WAVEFUNCTION:
 DE(Corr)= -0.52600278     E(Corr)=     -152.63192421    
 NORM(A)=   0.10601676D+01
 Iteration Nr.   2
 **********************
 DD1Dir will call FoFMem   1 times, MxPair=        72
 NAB=    36 NAA=     0 NBB=     0.
 A-vector RMS=  2.1209446D-04 Max=  1.7142368D-03 conv= 1.00D-05.
 RLE energy=       -0.5370914801
 DE(Corr)= -0.53593153     E(CORR)=     -152.64185295     Delta=-9.93D-03
 NORM(A)=   0.10639309D+01
 Iteration Nr.   3
 **********************
 DD1Dir will call FoFMem   1 times, MxPair=        72
 NAB=    36 NAA=     0 NBB=     0.
 A-vector RMS=  1.4311536D-04 Max=  9.4180346D-04 conv= 1.00D-05.
 RLE energy=       -0.5375889965
 DE(Corr)= -0.53700049     E(CORR)=     -152.64292192     Delta=-1.07D-03
 NORM(A)=   0.10645724D+01
 Iteration Nr.   4
 **********************
 DD1Dir will call FoFMem   1 times, MxPair=        72
 NAB=    36 NAA=     0 NBB=     0.
 A-vector RMS=  2.6419105D-05 Max=  1.4360056D-04 conv= 1.00D-05.
 RLE energy=       -0.5376721946
 DE(Corr)= -0.53763678     E(CORR)=     -152.64355820     Delta=-6.36D-04
 NORM(A)=   0.10646845D+01
 Iteration Nr.   5
 **********************
 DD1Dir will call FoFMem   1 times, MxPair=        72
 NAB=    36 NAA=     0 NBB=     0.
 A-vector RMS=  1.9203251D-05 Max=  1.7749659D-04 conv= 1.00D-05.
 RLE energy=       -0.5376809733
 DE(Corr)= -0.53767404     E(CORR)=     -152.64359547     Delta=-3.73D-05
 NORM(A)=   0.10646945D+01
 Iteration Nr.   6
 **********************
 DD1Dir will call FoFMem   1 times, MxPair=        72
 NAB=    36 NAA=     0 NBB=     0.
 A-vector RMS=  5.6908301D-06 Max=  4.8339211D-05 conv= 1.00D-05.
 RLE energy=       -0.5376715985
 DE(Corr)= -0.53767728     E(CORR)=     -152.64359871     Delta=-3.24D-06
 NORM(A)=   0.10646947D+01
 Iteration Nr.   7
 **********************
 DD1Dir will call FoFMem   1 times, MxPair=        72
 NAB=    36 NAA=     0 NBB=     0.
 A-vector RMS=  2.7173842D-06 Max=  2.6443764D-05 conv= 1.00D-05.
 RLE energy=       -0.5376783842
 DE(Corr)= -0.53767742     E(CORR)=     -152.64359885     Delta=-1.43D-07
 NORM(A)=   0.10646971D+01
 Iteration Nr.   8
 **********************
 DD1Dir will call FoFMem   1 times, MxPair=        72
 NAB=    36 NAA=     0 NBB=     0.
 A-vector RMS=  5.9149713D-07 Max=  6.4586017D-06 conv= 1.00D-05.
 RLE energy=       -0.5376767974
 DE(Corr)= -0.53767697     E(CORR)=     -152.64359840     Delta= 4.53D-07
 NORM(A)=   0.10646972D+01
 Iteration Nr.   9
 **********************
 DD1Dir will call FoFMem   1 times, MxPair=        72
 NAB=    36 NAA=     0 NBB=     0.
 A-vector RMS=  1.6634365D-07 Max=  1.8637712D-06 conv= 1.00D-05.
 RLE energy=       -0.5376772216
 DE(Corr)= -0.53767724     E(CORR)=     -152.64359867     Delta=-2.75D-07
 NORM(A)=   0.10646975D+01
 Iteration Nr.  10
 **********************
 DD1Dir will call FoFMem   1 times, MxPair=        72
 NAB=    36 NAA=     0 NBB=     0.
 A-vector RMS=  6.2009649D-08 Max=  7.0779852D-07 conv= 1.00D-05.
 RLE energy=       -0.5376772682
 DE(Corr)= -0.53767724     E(CORR)=     -152.64359866     Delta= 6.27D-09
 NORM(A)=   0.10646976D+01
 CI/CC converged in   10 iterations to DelEn= 6.27D-09 Conv= 1.00D-07 ErrA1= 6.20D-08 Conv= 1.00D-05
 Wavefunction amplitudes converged. E(Corr)=     -152.64359866    
 Largest amplitude= 3.53D-02
 IPart=  4 IA=    7   11.05% done.
 IPart=  2 IA=   13   21.46% done.
 IPart=  1 IA=   19   31.21% done.
 IPart=  1 IA=   25   40.32% done.
 IPart=  4 IA=   32   50.13% done.
 IPart=  4 IA=   40   60.27% done.
 IPart=  3 IA=   49   70.30% done.
 IPart=  2 IA=   60   80.58% done.
 IPart=  1 IA=   74   90.51% done.
 Time for triples=      105.26 seconds.
 T4(CCSD)= -0.16064862D-01
 T5(CCSD)=  0.40665443D-03
 CCSD(T)= -0.15265925687D+03
 Discarding MO integrals.
 Leave Link  913 at Fri Aug 26 15:48:48 2022, MaxMem=   536870912 cpu:             139.9 elap:              38.7
 (Enter /usr/site/hpc/x86_64/glibc-2.17/broadwell/gaussian/g16_a.03/pgi-16.5/g16/l601.exe)
 Copying SCF densities to generalized density rwf, IOpCl= 0 IROHF=0.

 **********************************************************************

            Population analysis using the SCF density.

 **********************************************************************

 Orbital symmetries:
       Occupied  (A') (A') (A') (A') (A') (A') (A') (A') (A") (A")
       Virtual   (A') (A') (A') (A') (A') (A') (A') (A') (A') (A')
                 (A") (A") (A') (A') (A') (A') (A") (A") (A") (A")
                 (A') (A') (A') (A') (A') (A') (A') (A') (A") (A")
                 (A") (A") (A') (A') (A') (A') (A') (A') (A') (A')
                 (A') (A') (A") (A") (A') (A') (A") (A") (A') (A')
                 (A") (A") (A') (A') (A') (A') (A") (A") (A") (A")
                 (A') (A') (A') (A') (A") (A") (A') (A') (A') (A')
                 (A") (A") (A') (A') (A') (A') (A') (A') (A') (A')
                 (A") (A") (A') (A') (A") (A") (A") (A") (A') (A')
                 (A") (A") (A') (A') (A') (A') (A") (A") (A') (A')
                 (A') (A') (A') (A') (A') (A')
 The electronic state is 1-A'.
 Alpha  occ. eigenvalues --  -20.54865 -20.54767  -1.32156  -1.32056  -0.69568
 Alpha  occ. eigenvalues --   -0.69464  -0.55547  -0.55409  -0.49257  -0.49158
 Alpha virt. eigenvalues --    0.14271   0.15172   0.20567   0.20908   0.54688
 Alpha virt. eigenvalues --    0.55343   0.57760   0.57929   0.65822   0.71766
 Alpha virt. eigenvalues --    0.79564   0.79766   0.81029   0.81201   0.82380
 Alpha virt. eigenvalues --    0.84314   0.85385   0.85482   0.97841   0.98077
 Alpha virt. eigenvalues --    1.15323   1.15841   1.17688   1.18073   1.52235
 Alpha virt. eigenvalues --    1.52379   1.52552   1.52672   2.01365   2.01488
 Alpha virt. eigenvalues --    2.07418   2.07521   2.09721   2.10548   2.15375
 Alpha virt. eigenvalues --    2.15791   2.23548   2.28886   2.62117   2.62257
 Alpha virt. eigenvalues --    2.93455   2.93698   3.39985   3.40086   3.50536
 Alpha virt. eigenvalues --    3.50636   3.53714   3.53813   3.60088   3.60212
 Alpha virt. eigenvalues --    3.79311   3.79411   3.86041   3.86178   3.87979
 Alpha virt. eigenvalues --    3.88651   3.94175   3.94276   4.03583   4.03800
 Alpha virt. eigenvalues --    4.08807   4.08908   4.15889   4.16005   4.30738
 Alpha virt. eigenvalues --    4.30837   4.40570   4.40761   4.46153   4.46268
 Alpha virt. eigenvalues --    4.67157   4.67256   4.81472   4.81658   5.04626
 Alpha virt. eigenvalues --    5.05210   5.24694   5.24961   5.54606   5.54941
 Alpha virt. eigenvalues --    5.98603   5.98701   6.41040   6.41138   6.86841
 Alpha virt. eigenvalues --    6.86942   6.90307   6.90407   6.95234   6.95337
 Alpha virt. eigenvalues --    6.99807   6.99914   7.08493   7.08693   7.12458
 Alpha virt. eigenvalues --    7.14252   7.18977   7.19078   7.47809   7.48063
 Alpha virt. eigenvalues --    7.70959   7.71192   8.15631   8.15906  12.49366
 Alpha virt. eigenvalues --   12.50653
          Condensed to atoms (all electrons):
               1          2          3          4          5          6
     1  O    7.811965   0.343104   0.344857   0.000046   0.000002   0.000025
     2  H    0.343104   0.444538  -0.036404   0.000005  -0.000000  -0.000003
     3  H    0.344857  -0.036404   0.440278   0.000006  -0.000001  -0.000002
     4  O    0.000046   0.000005   0.000006   7.811937   0.342221   0.345553
     5  H    0.000002  -0.000000  -0.000001   0.342221   0.446004  -0.036495
     6  H    0.000025  -0.000003  -0.000002   0.345553  -0.036495   0.439444
 Mulliken charges:
               1
     1  O   -0.499999
     2  H    0.248760
     3  H    0.251264
     4  O   -0.499770
     5  H    0.248269
     6  H    0.251477
 Sum of Mulliken charges =  -0.00000
 Mulliken charges with hydrogens summed into heavy atoms:
               1
     1  O    0.000024
     4  O   -0.000024
 Electronic spatial extent (au):  <R**2>=            428.7639
 Charge=             -0.0000 electrons
 Dipole moment (field-independent basis, Debye):
    X=             -0.7441    Y=             -0.1540    Z=              0.0000  Tot=              0.7599
 Quadrupole moment (field-independent basis, Debye-Ang):
   XX=             -8.1194   YY=              5.6379   ZZ=            -14.7099
   XY=             -1.0861   XZ=              0.0000   YZ=              0.0000
 Traceless Quadrupole moment (field-independent basis, Debye-Ang):
   XX=             -2.3890   YY=             11.3684   ZZ=             -8.9794
   XY=             -1.0861   XZ=              0.0000   YZ=              0.0000
 Octapole moment (field-independent basis, Debye-Ang**2):
  XXX=             -1.4671  YYY=              0.1216  ZZZ=              0.0000  XYY=              0.1788
  XXY=             -1.3080  XXZ=              0.0000  XZZ=             -0.0960  YZZ=             -0.0215
  YYZ=              0.0000  XYZ=              0.0000
 Hexadecapole moment (field-independent basis, Debye-Ang**3):
 XXXX=            -11.1093 YYYY=           -197.7137 ZZZZ=            -11.3318 XXXY=             -2.5705
 XXXZ=              0.0000 YYYX=              7.8678 YYYZ=              0.0000 ZZZX=              0.0000
 ZZZY=              0.0000 XXYY=            -38.4987 XXZZ=             -4.5480 YYZZ=            -84.9457
 XXYZ=              0.0000 YYXZ=              0.0000 ZZXY=              0.4356
 N-N= 2.903647624324D+01 E-N=-4.196460892521D+02  KE= 1.518062210939D+02
 Symmetry A'   KE= 1.427677096303D+02
 Symmetry A"   KE= 9.038511463597D+00
 Leave Link  601 at Fri Aug 26 15:48:48 2022, MaxMem=   536870912 cpu:               0.3 elap:               0.1
 (Enter /usr/site/hpc/x86_64/glibc-2.17/broadwell/gaussian/g16_a.03/pgi-16.5/g16/l9999.exe)
 1\1\GINC-N050\SP\RCCSD(T)-FC\CC-pVTZ\H4O2\C7441284\26-Aug-2022\0\\#p C
 CSD(T)/cc-pVTZ\\H2O_H2O_2756\\0,1\O,0,0.,-0.009833,0.\H,0,-0.799571,-0
 .580965,0.\H,0,0.799571,-0.580965,0.\O,0,-0.003763,4.521717,0.\H,0,0.5
 16382,5.355356,0.\H,0,-0.961033,4.743391,0.\\Version=ES64L-G16RevA.03\
 State=1-A'\HF=-152.1059214\MP2=-152.6320115\MP3=-152.6395675\MP4D=-152
 .6486926\MP4DQ=-152.641121\MP4SDQ=-152.6441914\CCSD=-152.6435987\CCSD(
 T)=-152.6592569\RMSD=4.856e-09\PG=CS [SG(H4O2)]\\@


 EVANS BOLDLY PUT 50 ATM. OF ETHYLENE IN A CELL WITH 25 ATM. OF OXYGEN.
 THE APPARATUS SUBSEQUENTLY BLEW UP, BUT LUCKILY NOT BEFORE HE
 OBTAINED THE SPECTRA SHOWN IN FIGURE 8.
 A.J.MERER AND R.S.MULLIKEN, CHEM.REV. 69, 645 (1969)
 Job cpu time:       0 days  0 hours  2 minutes 32.9 seconds.
 Elapsed time:       0 days  0 hours  0 minutes 42.4 seconds.
 File lengths (MBytes):  RWF=    328 Int=      0 D2E=      0 Chk=      8 Scr=      8
 Normal termination of Gaussian 16 at Fri Aug 26 15:48:48 2022.
