 Entering Gaussian System, Link 0=g16
 Input=H2O_H2O_985.com
 Output=H2O_H2O_985.log
 Initial command:
 /usr/site/hpc/x86_64/glibc-2.17/broadwell/gaussian/g16_a.03/pgi-16.5/g16/l1.exe "/gpfs/gpfs1/scratch/c7441284/ForceFieldModel/FittingData/Gau-3494235.inp" -scrdir="/gpfs/gpfs1/scratch/c7441284/ForceFieldModel/FittingData/"
 Entering Link 1 = /usr/site/hpc/x86_64/glibc-2.17/broadwell/gaussian/g16_a.03/pgi-16.5/g16/l1.exe PID=   3494239.
  
 Copyright (c) 1988,1990,1992,1993,1995,1998,2003,2009,2016,
            Gaussian, Inc.  All Rights Reserved.
  
 This is part of the Gaussian(R) 16 program.  It is based on
 the Gaussian(R) 09 system (copyright 2009, Gaussian, Inc.),
 the Gaussian(R) 03 system (copyright 2003, Gaussian, Inc.),
 the Gaussian(R) 98 system (copyright 1998, Gaussian, Inc.),
 the Gaussian(R) 94 system (copyright 1995, Gaussian, Inc.),
 the Gaussian 92(TM) system (copyright 1992, Gaussian, Inc.),
 the Gaussian 90(TM) system (copyright 1990, Gaussian, Inc.),
 the Gaussian 88(TM) system (copyright 1988, Gaussian, Inc.),
 the Gaussian 86(TM) system (copyright 1986, Carnegie Mellon
 University), and the Gaussian 82(TM) system (copyright 1983,
 Carnegie Mellon University). Gaussian is a federally registered
 trademark of Gaussian, Inc.
  
 This software contains proprietary and confidential information,
 including trade secrets, belonging to Gaussian, Inc.
  
 This software is provided under written license and may be
 used, copied, transmitted, or stored only in accord with that
 written license.
  
 The following legend is applicable only to US Government
 contracts under FAR:
  
                    RESTRICTED RIGHTS LEGEND
  
 Use, reproduction and disclosure by the US Government is
 subject to restrictions as set forth in subparagraphs (a)
 and (c) of the Commercial Computer Software - Restricted
 Rights clause in FAR 52.227-19.
  
 Gaussian, Inc.
 340 Quinnipiac St., Bldg. 40, Wallingford CT 06492
  
  
 ---------------------------------------------------------------
 Warning -- This program may not be used in any manner that
 competes with the business of Gaussian, Inc. or will provide
 assistance to any competitor of Gaussian, Inc.  The licensee
 of this program is prohibited from giving any competitor of
 Gaussian, Inc. access to this program.  By using this program,
 the user acknowledges that Gaussian, Inc. is engaged in the
 business of creating and licensing software in the field of
 computational chemistry and represents and warrants to the
 licensee that it is not a competitor of Gaussian, Inc. and that
 it will not use this program in any manner prohibited above.
 ---------------------------------------------------------------
  

 Cite this work as:
 Gaussian 16, Revision A.03,
 M. J. Frisch, G. W. Trucks, H. B. Schlegel, G. E. Scuseria, 
 M. A. Robb, J. R. Cheeseman, G. Scalmani, V. Barone, 
 G. A. Petersson, H. Nakatsuji, X. Li, M. Caricato, A. V. Marenich, 
 J. Bloino, B. G. Janesko, R. Gomperts, B. Mennucci, H. P. Hratchian, 
 J. V. Ortiz, A. F. Izmaylov, J. L. Sonnenberg, D. Williams-Young, 
 F. Ding, F. Lipparini, F. Egidi, J. Goings, B. Peng, A. Petrone, 
 T. Henderson, D. Ranasinghe, V. G. Zakrzewski, J. Gao, N. Rega, 
 G. Zheng, W. Liang, M. Hada, M. Ehara, K. Toyota, R. Fukuda, 
 J. Hasegawa, M. Ishida, T. Nakajima, Y. Honda, O. Kitao, H. Nakai, 
 T. Vreven, K. Throssell, J. A. Montgomery, Jr., J. E. Peralta, 
 F. Ogliaro, M. J. Bearpark, J. J. Heyd, E. N. Brothers, K. N. Kudin, 
 V. N. Staroverov, T. A. Keith, R. Kobayashi, J. Normand, 
 K. Raghavachari, A. P. Rendell, J. C. Burant, S. S. Iyengar, 
 J. Tomasi, M. Cossi, J. M. Millam, M. Klene, C. Adamo, R. Cammi, 
 J. W. Ochterski, R. L. Martin, K. Morokuma, O. Farkas, 
 J. B. Foresman, and D. J. Fox, Gaussian, Inc., Wallingford CT, 2016.
 
 ******************************************
 Gaussian 16:  ES64L-G16RevA.03 25-Dec-2016
                27-Aug-2022 
 ******************************************
 %NProcShared=4
 Will use up to    4 processors via shared memory.
 %Mem=4GB
 %Chk=H2O_H2O_985.chk
 ------------------
 #p CCSD(T)/cc-pVTZ
 ------------------
 1/38=1,172=1/1;
 2/12=2,17=6,18=5,40=1/2;
 3/5=16,6=1,11=9,25=1,30=1/1,2,3;
 4//1;
 5/5=2,38=5/2;
 8/6=4,9=120000,10=1/1,4;
 9/5=7,14=2/13;
 6/7=2,8=2,9=2,10=2/1;
 99/5=1,9=1/99;
 Leave Link    1 at Sat Aug 27 01:10:32 2022, MaxMem=   536870912 cpu:               0.3 elap:               0.1
 (Enter /usr/site/hpc/x86_64/glibc-2.17/broadwell/gaussian/g16_a.03/pgi-16.5/g16/l101.exe)
 -----------
 H2O_H2O_985
 -----------
 Symbolic Z-matrix:
 Charge =  0 Multiplicity = 1
 O                     0.       -0.00983   0. 
 H                    -0.79957  -0.58097   0. 
 H                     0.79957  -0.58097   0. 
 O                    -0.00599   2.63241   0. 
 H                     0.28067   3.57227   0. 
 H                    -0.98801   2.59878   0. 
 
 ITRead=  0  0  0  0  0  0
 MicOpt= -1 -1 -1 -1 -1 -1
 NAtoms=      6 NQM=        6 NQMF=       0 NMMI=      0 NMMIF=      0
                NMic=       0 NMicF=      0.
                    Isotopes and Nuclear Properties:
 (Nuclear quadrupole moments (NQMom) in fm**2, nuclear magnetic moments (NMagM)
  in nuclear magnetons)

  Atom         1           2           3           4           5           6
 IAtWgt=          16           1           1          16           1           1
 AtmWgt=  15.9949146   1.0078250   1.0078250  15.9949146   1.0078250   1.0078250
 NucSpn=           0           1           1           0           1           1
 AtZEff=  -0.0000000  -0.0000000  -0.0000000  -0.0000000  -0.0000000  -0.0000000
 NQMom=    0.0000000   0.0000000   0.0000000   0.0000000   0.0000000   0.0000000
 NMagM=    0.0000000   2.7928460   2.7928460   0.0000000   2.7928460   2.7928460
 AtZNuc=   8.0000000   1.0000000   1.0000000   8.0000000   1.0000000   1.0000000
 Leave Link  101 at Sat Aug 27 01:10:32 2022, MaxMem=   536870912 cpu:               0.3 elap:               0.1
 (Enter /usr/site/hpc/x86_64/glibc-2.17/broadwell/gaussian/g16_a.03/pgi-16.5/g16/l202.exe)
                          Input orientation:                          
 ---------------------------------------------------------------------
 Center     Atomic      Atomic             Coordinates (Angstroms)
 Number     Number       Type             X           Y           Z
 ---------------------------------------------------------------------
      1          8           0        0.000000   -0.009833    0.000000
      2          1           0       -0.799571   -0.580965    0.000000
      3          1           0        0.799571   -0.580965    0.000000
      4          8           0       -0.005986    2.632414    0.000000
      5          1           0        0.280674    3.572271    0.000000
      6          1           0       -0.988012    2.598775    0.000000
 ---------------------------------------------------------------------
                    Distance matrix (angstroms):
                    1          2          3          4          5
     1  O    0.000000
     2  H    0.982601   0.000000
     3  H    0.982601   1.599142   0.000000
     4  O    2.642254   3.309922   3.312813   0.000000
     5  H    3.593083   4.291422   4.185525   0.982601   0.000000
     6  H    2.789445   3.185319   3.647766   0.982602   1.599143
                    6
     6  H    0.000000
 Stoichiometry    H4O2
 Framework group  CS[SG(H4O2)]
 Deg. of freedom     9
 Full point group                 CS      NOp   2
 Largest Abelian subgroup         CS      NOp   2
 Largest concise Abelian subgroup C1      NOp   1
                         Standard orientation:                         
 ---------------------------------------------------------------------
 Center     Atomic      Atomic             Coordinates (Angstroms)
 Number     Number       Type             X           Y           Z
 ---------------------------------------------------------------------
      1          8           0        0.034795   -1.309403    0.000000
      2          1           0       -0.766068   -1.878723    0.000000
      3          1           0        0.833070   -1.882345    0.000000
      4          8           0        0.034795    1.332850    0.000000
      5          1           0        0.323583    2.272056    0.000000
      6          1           0       -0.947305    1.301436    0.000000
 ---------------------------------------------------------------------
 Rotational constants (GHZ):         217.3318777           7.2319710           6.9990689
 Leave Link  202 at Sat Aug 27 01:10:32 2022, MaxMem=   536870912 cpu:               0.2 elap:               0.1
 (Enter /usr/site/hpc/x86_64/glibc-2.17/broadwell/gaussian/g16_a.03/pgi-16.5/g16/l301.exe)
 Standard basis: CC-pVTZ (5D, 7F)
 Ernie: Thresh=  0.10000D-02 Tol=  0.10000D-05 Strict=F.
 Ernie:  6 primitive shells out of 84 were deleted.
 There are    92 symmetry adapted cartesian basis functions of A'  symmetry.
 There are    38 symmetry adapted cartesian basis functions of A"  symmetry.
 There are    80 symmetry adapted basis functions of A'  symmetry.
 There are    36 symmetry adapted basis functions of A"  symmetry.
   116 basis functions,   172 primitive gaussians,   130 cartesian basis functions
    10 alpha electrons       10 beta electrons
       nuclear repulsion energy        36.5266394299 Hartrees.
 IExCor=    0 DFT=F Ex=HF Corr=None ExCW=0 ScaHFX=  1.000000
 ScaDFX=  1.000000  1.000000  1.000000  1.000000 ScalE2=  1.000000  1.000000
 IRadAn=      5 IRanWt=     -1 IRanGd=            0 ICorTp=0 IEmpDi=  4
 NAtoms=    6 NActive=    6 NUniq=    6 SFac= 1.00D+00 NAtFMM=   60 NAOKFM=F Big=F
 Integral buffers will be    131072 words long.
 Raffenetti 1 integral format.
 Two-electron integral symmetry is turned on.
 Leave Link  301 at Sat Aug 27 01:10:32 2022, MaxMem=   536870912 cpu:               0.2 elap:               0.1
 (Enter /usr/site/hpc/x86_64/glibc-2.17/broadwell/gaussian/g16_a.03/pgi-16.5/g16/l302.exe)
 NPDir=0 NMtPBC=     1 NCelOv=     1 NCel=       1 NClECP=     1 NCelD=      1
         NCelK=      1 NCelE2=     1 NClLst=     1 CellRange=     0.0.
 One-electron integrals computed using PRISM.
 One-electron integral symmetry used in STVInt
 NBasis=   116 RedAO= T EigKep=  2.06D-03  NBF=    80    36
 NBsUse=   116 1.00D-06 EigRej= -1.00D+00 NBFU=    80    36
 Leave Link  302 at Sat Aug 27 01:10:33 2022, MaxMem=   536870912 cpu:               0.4 elap:               0.1
 (Enter /usr/site/hpc/x86_64/glibc-2.17/broadwell/gaussian/g16_a.03/pgi-16.5/g16/l303.exe)
 DipDrv:  MaxL=1.
 Leave Link  303 at Sat Aug 27 01:10:33 2022, MaxMem=   536870912 cpu:               0.1 elap:               0.1
 (Enter /usr/site/hpc/x86_64/glibc-2.17/broadwell/gaussian/g16_a.03/pgi-16.5/g16/l401.exe)
 ExpMin= 1.03D-01 ExpMax= 1.53D+04 ExpMxC= 5.22D+02 IAcc=3 IRadAn=         5 AccDes= 0.00D+00
 Harris functional with IExCor=  205 and IRadAn=       5 diagonalized for initial guess.
 HarFok:  IExCor=  205 AccDes= 0.00D+00 IRadAn=         5 IDoV= 1 UseB2=F ITyADJ=14
 ICtDFT=  3500011 ScaDFX=  1.000000  1.000000  1.000000  1.000000
 FoFCou: FMM=F IPFlag=           0 FMFlag=      100000 FMFlg1=           0
         NFxFlg=           0 DoJE=T BraDBF=F KetDBF=T FulRan=T
         wScrn=  0.000000 ICntrl=       500 IOpCl=  0 I1Cent=   200000004 NGrid=           0
         NMat0=    1 NMatS0=      1 NMatT0=    0 NMatD0=    1 NMtDS0=    0 NMtDT0=    0
 Petite list used in FoFCou.
 Harris En= -152.300034799396    
 JPrj=0 DoOrth=F DoCkMO=F.
 Initial guess orbital symmetries:
       Occupied  (A') (A') (A') (A') (A') (A') (A') (A') (A") (A")
       Virtual   (A') (A') (A') (A') (A') (A') (A') (A') (A') (A")
                 (A') (A') (A") (A') (A") (A") (A') (A") (A') (A")
                 (A') (A') (A') (A') (A') (A') (A') (A') (A") (A")
                 (A") (A") (A') (A') (A') (A') (A') (A') (A') (A')
                 (A') (A') (A") (A") (A') (A') (A") (A") (A") (A")
                 (A') (A') (A') (A') (A") (A') (A") (A') (A') (A")
                 (A') (A') (A") (A') (A") (A") (A') (A') (A') (A')
                 (A") (A") (A') (A') (A') (A') (A') (A') (A') (A')
                 (A") (A") (A') (A') (A") (A") (A") (A") (A') (A')
                 (A") (A") (A') (A') (A') (A') (A") (A") (A') (A')
                 (A') (A') (A') (A') (A') (A')
 The electronic state of the initial guess is 1-A'.
 Leave Link  401 at Sat Aug 27 01:10:33 2022, MaxMem=   536870912 cpu:               0.8 elap:               0.2
 (Enter /usr/site/hpc/x86_64/glibc-2.17/broadwell/gaussian/g16_a.03/pgi-16.5/g16/l502.exe)
 Keep R1 ints in memory in symmetry-blocked form, NReq=34823457.
 FoFCou: FMM=F IPFlag=           0 FMFlag=           0 FMFlg1=           0
         NFxFlg=           0 DoJE=F BraDBF=F KetDBF=F FulRan=T
         wScrn=  0.000000 ICntrl=       600 IOpCl=  0 I1Cent=           0 NGrid=           0
         NMat0=    1 NMatS0=   6786 NMatT0=    0 NMatD0=    1 NMtDS0=    0 NMtDT0=    0
 Petite list used in FoFCou.
 Closed shell SCF:
 Using DIIS extrapolation, IDIIS=  1040.
 NGot=   536870912 LenX=   525040673 LenY=   525023332
 Requested convergence on RMS density matrix=1.00D-08 within 128 cycles.
 Requested convergence on MAX density matrix=1.00D-06.
 Requested convergence on             energy=1.00D-06.
 No special actions if energy rises.

 Cycle   1  Pass 1  IDiag  1:
 E= -151.911977424036    
 DIIS: error= 6.67D-02 at cycle   1 NSaved=   1.
 NSaved= 1 IEnMin= 1 EnMin= -151.911977424036     IErMin= 1 ErrMin= 6.67D-02
 ErrMax= 6.67D-02  0.00D+00 EMaxC= 1.00D-01 BMatC= 4.05D-01 BMatP= 4.05D-01
 IDIUse=3 WtCom= 3.33D-01 WtEn= 6.67D-01
 Coeff-Com:  0.100D+01
 Coeff-En:   0.100D+01
 Coeff:      0.100D+01
 Gap=     0.490 Goal=   None    Shift=    0.000
 GapD=    0.490 DampG=2.000 DampE=0.500 DampFc=1.0000 IDamp=-1.
 RMSDP=2.93D-03 MaxDP=7.59D-02              OVMax= 1.33D-01

 Cycle   2  Pass 1  IDiag  1:
 E= -152.025429962758     Delta-E=       -0.113452538722 Rises=F Damp=F
 DIIS: error= 4.22D-02 at cycle   2 NSaved=   2.
 NSaved= 2 IEnMin= 2 EnMin= -152.025429962758     IErMin= 2 ErrMin= 4.22D-02
 ErrMax= 4.22D-02  0.00D+00 EMaxC= 1.00D-01 BMatC= 1.19D-01 BMatP= 4.05D-01
 IDIUse=3 WtCom= 5.78D-01 WtEn= 4.22D-01
 Coeff-Com:  0.324D+00 0.676D+00
 Coeff-En:   0.177D+00 0.823D+00
 Coeff:      0.262D+00 0.738D+00
 Gap=     0.641 Goal=   None    Shift=    0.000
 RMSDP=1.59D-03 MaxDP=4.67D-02 DE=-1.13D-01 OVMax= 6.20D-02

 Cycle   3  Pass 1  IDiag  1:
 E= -152.094533382609     Delta-E=       -0.069103419851 Rises=F Damp=F
 DIIS: error= 9.20D-03 at cycle   3 NSaved=   3.
 NSaved= 3 IEnMin= 3 EnMin= -152.094533382609     IErMin= 3 ErrMin= 9.20D-03
 ErrMax= 9.20D-03  0.00D+00 EMaxC= 1.00D-01 BMatC= 6.26D-03 BMatP= 1.19D-01
 IDIUse=3 WtCom= 9.08D-01 WtEn= 9.20D-02
 Coeff-Com: -0.317D-01 0.154D+00 0.878D+00
 Coeff-En:   0.000D+00 0.000D+00 0.100D+01
 Coeff:     -0.288D-01 0.140D+00 0.889D+00
 Gap=     0.613 Goal=   None    Shift=    0.000
 RMSDP=2.79D-04 MaxDP=6.45D-03 DE=-6.91D-02 OVMax= 1.41D-02

 Cycle   4  Pass 1  IDiag  1:
 E= -152.098490754187     Delta-E=       -0.003957371577 Rises=F Damp=F
 DIIS: error= 8.96D-04 at cycle   4 NSaved=   4.
 NSaved= 4 IEnMin= 4 EnMin= -152.098490754187     IErMin= 4 ErrMin= 8.96D-04
 ErrMax= 8.96D-04  0.00D+00 EMaxC= 1.00D-01 BMatC= 4.25D-05 BMatP= 6.26D-03
 IDIUse=3 WtCom= 9.91D-01 WtEn= 8.96D-03
 Coeff-Com:  0.680D-02-0.608D-01-0.236D+00 0.129D+01
 Coeff-En:   0.000D+00 0.000D+00 0.000D+00 0.100D+01
 Coeff:      0.674D-02-0.603D-01-0.234D+00 0.129D+01
 Gap=     0.615 Goal=   None    Shift=    0.000
 RMSDP=5.49D-05 MaxDP=1.07D-03 DE=-3.96D-03 OVMax= 2.84D-03

 Cycle   5  Pass 1  IDiag  1:
 E= -152.098548105690     Delta-E=       -0.000057351504 Rises=F Damp=F
 DIIS: error= 2.03D-04 at cycle   5 NSaved=   5.
 NSaved= 5 IEnMin= 5 EnMin= -152.098548105690     IErMin= 5 ErrMin= 2.03D-04
 ErrMax= 2.03D-04  0.00D+00 EMaxC= 1.00D-01 BMatC= 1.52D-06 BMatP= 4.25D-05
 IDIUse=3 WtCom= 9.98D-01 WtEn= 2.03D-03
 Coeff-Com:  0.799D-03-0.150D-02-0.103D-01-0.169D+00 0.118D+01
 Coeff-En:   0.000D+00 0.000D+00 0.000D+00 0.000D+00 0.100D+01
 Coeff:      0.797D-03-0.150D-02-0.103D-01-0.169D+00 0.118D+01
 Gap=     0.616 Goal=   None    Shift=    0.000
 RMSDP=1.44D-05 MaxDP=2.80D-04 DE=-5.74D-05 OVMax= 7.18D-04

 Cycle   6  Pass 1  IDiag  1:
 E= -152.098551143899     Delta-E=       -0.000003038209 Rises=F Damp=F
 DIIS: error= 3.73D-05 at cycle   6 NSaved=   6.
 NSaved= 6 IEnMin= 6 EnMin= -152.098551143899     IErMin= 6 ErrMin= 3.73D-05
 ErrMax= 3.73D-05  0.00D+00 EMaxC= 1.00D-01 BMatC= 5.09D-08 BMatP= 1.52D-06
 IDIUse=1 WtCom= 1.00D+00 WtEn= 0.00D+00
 Coeff-Com: -0.323D-03 0.208D-02 0.881D-02-0.186D-01-0.222D+00 0.123D+01
 Coeff:     -0.323D-03 0.208D-02 0.881D-02-0.186D-01-0.222D+00 0.123D+01
 Gap=     0.616 Goal=   None    Shift=    0.000
 RMSDP=3.98D-06 MaxDP=1.05D-04 DE=-3.04D-06 OVMax= 1.82D-04

 Cycle   7  Pass 1  IDiag  1:
 E= -152.098551277620     Delta-E=       -0.000000133721 Rises=F Damp=F
 DIIS: error= 5.02D-06 at cycle   7 NSaved=   7.
 NSaved= 7 IEnMin= 7 EnMin= -152.098551277620     IErMin= 7 ErrMin= 5.02D-06
 ErrMax= 5.02D-06  0.00D+00 EMaxC= 1.00D-01 BMatC= 3.98D-09 BMatP= 5.09D-08
 IDIUse=1 WtCom= 1.00D+00 WtEn= 0.00D+00
 Coeff-Com: -0.432D-04 0.203D-04 0.229D-03 0.134D-01-0.781D-01 0.383D-01
 Coeff-Com:  0.103D+01
 Coeff:     -0.432D-04 0.203D-04 0.229D-03 0.134D-01-0.781D-01 0.383D-01
 Coeff:      0.103D+01
 Gap=     0.616 Goal=   None    Shift=    0.000
 RMSDP=6.58D-07 MaxDP=1.76D-05 DE=-1.34D-07 OVMax= 3.88D-05

 Cycle   8  Pass 1  IDiag  1:
 E= -152.098551283871     Delta-E=       -0.000000006251 Rises=F Damp=F
 DIIS: error= 2.40D-06 at cycle   8 NSaved=   8.
 NSaved= 8 IEnMin= 8 EnMin= -152.098551283871     IErMin= 8 ErrMin= 2.40D-06
 ErrMax= 2.40D-06  0.00D+00 EMaxC= 1.00D-01 BMatC= 6.26D-10 BMatP= 3.98D-09
 IDIUse=1 WtCom= 1.00D+00 WtEn= 0.00D+00
 Coeff-Com:  0.269D-04-0.246D-03-0.990D-03 0.582D-02 0.537D-02-0.125D+00
 Coeff-Com:  0.240D+00 0.875D+00
 Coeff:      0.269D-04-0.246D-03-0.990D-03 0.582D-02 0.537D-02-0.125D+00
 Coeff:      0.240D+00 0.875D+00
 Gap=     0.616 Goal=   None    Shift=    0.000
 RMSDP=1.73D-07 MaxDP=4.57D-06 DE=-6.25D-09 OVMax= 1.06D-05

 Cycle   9  Pass 1  IDiag  1:
 E= -152.098551284659     Delta-E=       -0.000000000788 Rises=F Damp=F
 DIIS: error= 1.01D-06 at cycle   9 NSaved=   9.
 NSaved= 9 IEnMin= 9 EnMin= -152.098551284659     IErMin= 9 ErrMin= 1.01D-06
 ErrMax= 1.01D-06  0.00D+00 EMaxC= 1.00D-01 BMatC= 4.14D-11 BMatP= 6.26D-10
 IDIUse=1 WtCom= 1.00D+00 WtEn= 0.00D+00
 Coeff-Com:  0.238D-05 0.254D-04 0.107D-03-0.257D-02 0.960D-02 0.923D-02
 Coeff-Com: -0.144D+00-0.916D-01 0.122D+01
 Coeff:      0.238D-05 0.254D-04 0.107D-03-0.257D-02 0.960D-02 0.923D-02
 Coeff:     -0.144D+00-0.916D-01 0.122D+01
 Gap=     0.616 Goal=   None    Shift=    0.000
 RMSDP=6.61D-08 MaxDP=1.25D-06 DE=-7.88D-10 OVMax= 3.74D-06

 Cycle  10  Pass 1  IDiag  1:
 E= -152.098551284740     Delta-E=       -0.000000000081 Rises=F Damp=F
 DIIS: error= 1.12D-07 at cycle  10 NSaved=  10.
 NSaved=10 IEnMin=10 EnMin= -152.098551284740     IErMin=10 ErrMin= 1.12D-07
 ErrMax= 1.12D-07  0.00D+00 EMaxC= 1.00D-01 BMatC= 9.57D-13 BMatP= 4.14D-11
 IDIUse=1 WtCom= 1.00D+00 WtEn= 0.00D+00
 Coeff-Com: -0.103D-05 0.585D-06-0.209D-05 0.375D-03-0.160D-02-0.133D-02
 Coeff-Com:  0.303D-01 0.429D-02-0.323D+00 0.129D+01
 Coeff:     -0.103D-05 0.585D-06-0.209D-05 0.375D-03-0.160D-02-0.133D-02
 Coeff:      0.303D-01 0.429D-02-0.323D+00 0.129D+01
 Gap=     0.616 Goal=   None    Shift=    0.000
 RMSDP=1.15D-08 MaxDP=2.00D-07 DE=-8.10D-11 OVMax= 6.79D-07

 Cycle  11  Pass 1  IDiag  1:
 E= -152.098551284743     Delta-E=       -0.000000000003 Rises=F Damp=F
 DIIS: error= 2.49D-08 at cycle  11 NSaved=  11.
 NSaved=11 IEnMin=11 EnMin= -152.098551284743     IErMin=11 ErrMin= 2.49D-08
 ErrMax= 2.49D-08  0.00D+00 EMaxC= 1.00D-01 BMatC= 3.22D-14 BMatP= 9.57D-13
 IDIUse=1 WtCom= 1.00D+00 WtEn= 0.00D+00
 Coeff-Com:  0.699D-07-0.134D-05-0.517D-05 0.543D-04-0.150D-03-0.398D-03
 Coeff-Com:  0.240D-02 0.365D-02-0.136D-01-0.164D+00 0.117D+01
 Coeff:      0.699D-07-0.134D-05-0.517D-05 0.543D-04-0.150D-03-0.398D-03
 Coeff:      0.240D-02 0.365D-02-0.136D-01-0.164D+00 0.117D+01
 Gap=     0.616 Goal=   None    Shift=    0.000
 RMSDP=4.01D-09 MaxDP=1.23D-07 DE=-2.61D-12 OVMax= 1.70D-07

 SCF Done:  E(RHF) =  -152.098551285     A.U. after   11 cycles
            NFock= 11  Conv=0.40D-08     -V/T= 2.0017
 KE= 1.518393076022D+02 PE=-4.348745707670D+02 EE= 9.441007245016D+01
 Leave Link  502 at Sat Aug 27 01:10:34 2022, MaxMem=   536870912 cpu:               4.1 elap:               1.1
 (Enter /usr/site/hpc/x86_64/glibc-2.17/broadwell/gaussian/g16_a.03/pgi-16.5/g16/l801.exe)
 Windowed orbitals will be sorted by symmetry type.
 ExpMin= 1.03D-01 ExpMax= 1.53D+04 ExpMxC= 5.22D+02 IAcc=3 IRadAn=         5 AccDes= 0.00D+00
 HarFok:  IExCor=  205 AccDes= 0.00D+00 IRadAn=         5 IDoV=-2 UseB2=F ITyADJ=14
 ICtDFT= 12500011 ScaDFX=  1.000000  1.000000  1.000000  1.000000
 Largest valence mixing into a core orbital is  1.12D-04
 Largest core mixing into a valence orbital is  1.81D-05
 Range of M.O.s used for correlation:     3   116
 NBasis=   116 NAE=    10 NBE=    10 NFC=     2 NFV=     0
 NROrb=    114 NOA=     8 NOB=     8 NVA=   106 NVB=   106
 Leave Link  801 at Sat Aug 27 01:10:34 2022, MaxMem=   536870912 cpu:               0.3 elap:               0.1
 (Enter /usr/site/hpc/x86_64/glibc-2.17/broadwell/gaussian/g16_a.03/pgi-16.5/g16/l804.exe)
 Closed-shell transformation, MDV=   536870912 ITran=4 ISComp=2.
 Unit  1 TFree=        834515 TCopy=        406125.
 Semi-Direct transformation.
 ModeAB=           2 MOrb=             8 LenV=     536363186
 LASXX=      2873146 LTotXX=     2873146 LenRXX=     2873146
 LTotAB=     2958132 MaxLAS=     7765680 LenRXY=     7765680
 NonZer=     7796688 LenScr=    12058624 LnRSAI=           0
 LnScr1=           0 LExtra=           0 Total=     22697450
 MaxDsk=          -1 SrtSym=           F ITran=            4
 DoSDTr:  NPSUse=  4
 JobTyp=0 Pass  1:  I=   1 to   8.
 (rs|ai) integrals will be sorted in core.
 Complete sort for first half transformation.
 First half transformation complete.
 Complete sort for second half transformation.
 Second half transformation complete.
 Spin components of T(2) and E(2):
     alpha-alpha T2 =       0.1578994225D-01 E2=     -0.6431116571D-01
     alpha-beta  T2 =       0.9271387474D-01 E2=     -0.3998717702D+00
     beta-beta   T2 =       0.1578994225D-01 E2=     -0.6431116571D-01
 ANorm=    0.1060327194D+01
 E2 =    -0.5284941016D+00 EUMP2 =    -0.15262704538634D+03
 Leave Link  804 at Sat Aug 27 01:10:35 2022, MaxMem=   536870912 cpu:               5.0 elap:               1.3
 (Enter /usr/site/hpc/x86_64/glibc-2.17/broadwell/gaussian/g16_a.03/pgi-16.5/g16/l913.exe)
 CIDS:  MDV=   536870912.
 Frozen-core window:  NFC=   2 NFV=   0.
 IFCWin=0 IBDFC=1 NFBD=     0     0 NFCmp=     0     0 NFFFC=     0     0
 Using DD3R+UMP44R for 1st iteration.
 Using DD4RQ for 2nd and later iterations.
 Keep R2 and R3 ints in memory in symmetry-blocked form, NReq=35357534.
 FoFCou: FMM=F IPFlag=           0 FMFlag=           0 FMFlg1=           0
         NFxFlg=           0 DoJE=F BraDBF=F KetDBF=F FulRan=T
         wScrn=  0.000000 ICntrl=       600 IOpCl=  0 I1Cent=           0 NGrid=           0
         NMat0=    1 NMatS0=   6786 NMatT0=    0 NMatD0=    1 NMtDS0=    0 NMtDT0=    0
 Petite list used in FoFCou.
 CIDS: In Core Option IDoMem=           1.
 CCSD(T)
 =======
 Iterations=  50 Convergence= 0.100D-06
 Produce multiple copies of IABC intergrals
 Iteration Nr.   1
 **********************
 DD1Dir will call FoFMem   1 times, MxPair=        72
 NAB=    36 NAA=     0 NBB=     0.
 MP4(R+Q)=  0.77694682D-02
 Maximum subspace dimension=  5
 A-vector RMS=  1.8515416D-03 Max=  8.5046305D-03 conv= 1.00D-05.
 RLE energy=       -0.5278834065
 E3=       -0.72296956D-02        EUMP3=      -0.15263427508D+03
 E4(DQ)=   -0.14596380D-02        UMP4(DQ)=   -0.15263573472D+03
 E4(SDQ)=  -0.46658662D-02        UMP4(SDQ)=  -0.15263894095D+03
 VARIATIONAL ENERGIES WITH THE FIRST-ORDER WAVEFUNCTION:
 DE(Corr)= -0.52788271     E(Corr)=     -152.62643399    
 NORM(A)=   0.10605763D+01
 Iteration Nr.   2
 **********************
 DD1Dir will call FoFMem   1 times, MxPair=        72
 NAB=    36 NAA=     0 NBB=     0.
 A-vector RMS=  2.1117365D-04 Max=  1.2931619D-03 conv= 1.00D-05.
 RLE energy=       -0.5391444665
 DE(Corr)= -0.53801860     E(CORR)=     -152.63656989     Delta=-1.01D-02
 NORM(A)=   0.10644323D+01
 Iteration Nr.   3
 **********************
 DD1Dir will call FoFMem   1 times, MxPair=        72
 NAB=    36 NAA=     0 NBB=     0.
 A-vector RMS=  1.7470416D-04 Max=  1.7166690D-03 conv= 1.00D-05.
 RLE energy=       -0.5396557839
 DE(Corr)= -0.53904504     E(CORR)=     -152.63759632     Delta=-1.03D-03
 NORM(A)=   0.10650968D+01
 Iteration Nr.   4
 **********************
 DD1Dir will call FoFMem   1 times, MxPair=        72
 NAB=    36 NAA=     0 NBB=     0.
 A-vector RMS=  3.5760389D-05 Max=  2.2491054D-04 conv= 1.00D-05.
 RLE energy=       -0.5397357232
 DE(Corr)= -0.53970000     E(CORR)=     -152.63825129     Delta=-6.55D-04
 NORM(A)=   0.10652208D+01
 Iteration Nr.   5
 **********************
 DD1Dir will call FoFMem   1 times, MxPair=        72
 NAB=    36 NAA=     0 NBB=     0.
 A-vector RMS=  2.5165152D-05 Max=  3.0849101D-04 conv= 1.00D-05.
 RLE energy=       -0.5397506054
 DE(Corr)= -0.53974180     E(CORR)=     -152.63829309     Delta=-4.18D-05
 NORM(A)=   0.10652382D+01
 Iteration Nr.   6
 **********************
 DD1Dir will call FoFMem   1 times, MxPair=        72
 NAB=    36 NAA=     0 NBB=     0.
 A-vector RMS=  7.5681105D-06 Max=  8.0451634D-05 conv= 1.00D-05.
 RLE energy=       -0.5397408164
 DE(Corr)= -0.53974598     E(CORR)=     -152.63829727     Delta=-4.18D-06
 NORM(A)=   0.10652389D+01
 Iteration Nr.   7
 **********************
 DD1Dir will call FoFMem   1 times, MxPair=        72
 NAB=    36 NAA=     0 NBB=     0.
 A-vector RMS=  3.2577548D-06 Max=  3.7832023D-05 conv= 1.00D-05.
 RLE energy=       -0.5397449952
 DE(Corr)= -0.53974619     E(CORR)=     -152.63829747     Delta=-2.06D-07
 NORM(A)=   0.10652412D+01
 Iteration Nr.   8
 **********************
 DD1Dir will call FoFMem   1 times, MxPair=        72
 NAB=    36 NAA=     0 NBB=     0.
 A-vector RMS=  1.2370452D-06 Max=  1.3390595D-05 conv= 1.00D-05.
 RLE energy=       -0.5397453019
 DE(Corr)= -0.53974559     E(CORR)=     -152.63829687     Delta= 6.02D-07
 NORM(A)=   0.10652417D+01
 Iteration Nr.   9
 **********************
 DD1Dir will call FoFMem   1 times, MxPair=        72
 NAB=    36 NAA=     0 NBB=     0.
 A-vector RMS=  2.2736861D-07 Max=  2.4572814D-06 conv= 1.00D-05.
 RLE energy=       -0.5397456103
 DE(Corr)= -0.53974568     E(CORR)=     -152.63829697     Delta=-9.73D-08
 NORM(A)=   0.10652422D+01
 CI/CC converged in    9 iterations to DelEn=-9.73D-08 Conv= 1.00D-07 ErrA1= 2.27D-07 Conv= 1.00D-05
 Wavefunction amplitudes converged. E(Corr)=     -152.63829697    
 Largest amplitude= 2.48D-02
 IPart=  1 IA=    7   11.05% done.
 IPart=  4 IA=   13   21.46% done.
 IPart=  1 IA=   19   31.21% done.
 IPart=  2 IA=   25   40.32% done.
 IPart=  3 IA=   32   50.13% done.
 IPart=  4 IA=   40   60.27% done.
 IPart=  4 IA=   49   70.30% done.
 IPart=  3 IA=   60   80.58% done.
 IPart=  1 IA=   74   90.51% done.
 Time for triples=       60.50 seconds.
 T4(CCSD)= -0.16446893D-01
 T5(CCSD)=  0.43766733D-03
 CCSD(T)= -0.15265430619D+03
 Discarding MO integrals.
 Leave Link  913 at Sat Aug 27 01:10:57 2022, MaxMem=   536870912 cpu:              81.7 elap:              21.4
 (Enter /usr/site/hpc/x86_64/glibc-2.17/broadwell/gaussian/g16_a.03/pgi-16.5/g16/l601.exe)
 Copying SCF densities to generalized density rwf, IOpCl= 0 IROHF=0.

 **********************************************************************

            Population analysis using the SCF density.

 **********************************************************************

 Orbital symmetries:
       Occupied  (A') (A') (A') (A') (A') (A') (A') (A') (A") (A")
       Virtual   (A') (A') (A') (A') (A') (A') (A') (A') (A') (A")
                 (A') (A') (A') (A") (A") (A") (A') (A") (A') (A")
                 (A') (A') (A') (A') (A') (A') (A') (A') (A") (A")
                 (A") (A") (A') (A') (A') (A') (A') (A') (A') (A')
                 (A') (A') (A") (A") (A') (A') (A") (A") (A') (A')
                 (A") (A") (A') (A') (A") (A") (A') (A') (A") (A")
                 (A') (A') (A') (A') (A") (A") (A') (A') (A') (A')
                 (A") (A") (A') (A') (A') (A') (A') (A') (A') (A')
                 (A") (A") (A') (A') (A") (A") (A") (A") (A') (A")
                 (A') (A") (A') (A') (A') (A") (A') (A") (A') (A')
                 (A') (A') (A') (A') (A') (A')
 The electronic state is 1-A'.
 Alpha  occ. eigenvalues --  -20.54002 -20.53303  -1.31539  -1.30523  -0.68924
 Alpha  occ. eigenvalues --   -0.68045  -0.56337  -0.51889  -0.48754  -0.47440
 Alpha virt. eigenvalues --    0.14193   0.17170   0.20374   0.22684   0.52672
 Alpha virt. eigenvalues --    0.58251   0.58488   0.60520   0.69926   0.76436
 Alpha virt. eigenvalues --    0.76833   0.77864   0.83021   0.83422   0.85895
 Alpha virt. eigenvalues --    0.86830   0.92162   0.95494   1.05428   1.06317
 Alpha virt. eigenvalues --    1.13753   1.20318   1.22533   1.42942   1.52496
 Alpha virt. eigenvalues --    1.53079   1.55016   1.57350   2.01202   2.03892
 Alpha virt. eigenvalues --    2.08150   2.09063   2.12108   2.14375   2.19757
 Alpha virt. eigenvalues --    2.23085   2.34240   2.40575   2.63006   2.65955
 Alpha virt. eigenvalues --    2.94733   2.96986   3.40634   3.41415   3.51286
 Alpha virt. eigenvalues --    3.52650   3.54345   3.55096   3.60668   3.61960
 Alpha virt. eigenvalues --    3.79986   3.80892   3.85540   3.88465   3.94774
 Alpha virt. eigenvalues --    3.95349   3.95845   3.98448   4.02170   4.09019
 Alpha virt. eigenvalues --    4.09424   4.13040   4.17524   4.18467   4.31415
 Alpha virt. eigenvalues --    4.32272   4.44005   4.46826   4.47401   4.49838
 Alpha virt. eigenvalues --    4.66842   4.70501   4.85824   4.87928   5.06043
 Alpha virt. eigenvalues --    5.07459   5.23829   5.35492   5.57440   5.58973
 Alpha virt. eigenvalues --    5.99449   6.00168   6.41856   6.42732   6.87663
 Alpha virt. eigenvalues --    6.88444   6.91067   6.91883   6.95654   7.00471
 Alpha virt. eigenvalues --    7.01402   7.01646   7.10710   7.11228   7.17472
 Alpha virt. eigenvalues --    7.19815   7.20477   7.20651   7.48584   7.51675
 Alpha virt. eigenvalues --    7.72883   7.75187   8.18249   8.20261  12.50191
 Alpha virt. eigenvalues --   12.79610
          Condensed to atoms (all electrons):
               1          2          3          4          5          6
     1  O    7.830264   0.316079   0.331602  -0.014066   0.000471   0.007012
     2  H    0.316079   0.482778  -0.028287   0.001452  -0.000084  -0.000841
     3  H    0.331602  -0.028287   0.452300   0.002440  -0.000126  -0.000595
     4  O   -0.014066   0.001452   0.002440   7.830278   0.306557   0.333535
     5  H    0.000471  -0.000084  -0.000126   0.306557   0.500811  -0.027398
     6  H    0.007012  -0.000841  -0.000595   0.333535  -0.027398   0.448070
 Mulliken charges:
               1
     1  O   -0.471361
     2  H    0.228902
     3  H    0.242667
     4  O   -0.460195
     5  H    0.219770
     6  H    0.240218
 Sum of Mulliken charges =  -0.00000
 Mulliken charges with hydrogens summed into heavy atoms:
               1
     1  O    0.000207
     4  O   -0.000207
 Electronic spatial extent (au):  <R**2>=            176.8848
 Charge=             -0.0000 electrons
 Dipole moment (field-independent basis, Debye):
    X=             -1.1042    Y=             -0.4527    Z=              0.0000  Tot=              1.1934
 Quadrupole moment (field-independent basis, Debye-Ang):
   XX=             -8.6774   YY=             -2.4125   ZZ=            -14.7199
   XY=             -0.8075   XZ=              0.0000   YZ=              0.0000
 Traceless Quadrupole moment (field-independent basis, Debye-Ang):
   XX=             -0.0741   YY=              6.1907   ZZ=             -6.1166
   XY=             -0.8075   XZ=              0.0000   YZ=              0.0000
 Octapole moment (field-independent basis, Debye-Ang**2):
  XXX=             -1.6930  YYY=              1.4271  ZZZ=              0.0000  XYY=              1.3019
  XXY=             -2.4354  XXZ=              0.0000  XZZ=             -0.1217  YZZ=             -0.0715
  YYZ=              0.0000  XYZ=              0.0000
 Hexadecapole moment (field-independent basis, Debye-Ang**3):
 XXXX=            -11.3012 YYYY=           -101.5451 ZZZZ=            -11.3675 XXXY=             -1.5871
 XXXZ=              0.0000 YYYX=              5.6226 YYYZ=              0.0000 ZZZX=              0.0000
 ZZZY=              0.0000 XXYY=            -17.4191 XXZZ=             -4.5570 YYZZ=            -33.0602
 XXYZ=              0.0000 YYXZ=              0.0000 ZZXY=              0.3681
 N-N= 3.652663942990D+01 E-N=-4.348745704779D+02  KE= 1.518393076022D+02
 Symmetry A'   KE= 1.428071961183D+02
 Symmetry A"   KE= 9.032111483904D+00
 Leave Link  601 at Sat Aug 27 01:10:57 2022, MaxMem=   536870912 cpu:               0.1 elap:               0.1
 (Enter /usr/site/hpc/x86_64/glibc-2.17/broadwell/gaussian/g16_a.03/pgi-16.5/g16/l9999.exe)
 1\1\GINC-N003\SP\RCCSD(T)-FC\CC-pVTZ\H4O2\C7441284\27-Aug-2022\0\\#p C
 CSD(T)/cc-pVTZ\\H2O_H2O_985\\0,1\O,0,0.,-0.009833,0.\H,0,-0.799571,-0.
 580965,0.\H,0,0.799571,-0.580965,0.\O,0,-0.005986,2.632414,0.\H,0,0.28
 0674,3.572271,0.\H,0,-0.988012,2.598775,0.\\Version=ES64L-G16RevA.03\S
 tate=1-A'\HF=-152.0985513\MP2=-152.6270454\MP3=-152.6342751\MP4D=-152.
 6435042\MP4DQ=-152.6357347\MP4SDQ=-152.6389409\CCSD=-152.638297\CCSD(T
 )=-152.6543062\RMSD=4.010e-09\PG=CS [SG(H4O2)]\\@


 BUT 'GLORY' DOESN'T MEAN 'A NICE KNOCK DOWN ARGUMENT', ALICE OBJECTED.
 WHEN I USE A WORD, HUMPTY DUMPTY SAID, IN A RATHER SCORNFUL TONE,
 IT MEANS JUST WHAT I CHOOSE IT TO MEAN....
 NEITHER MORE NOR LESS....
 THE QUESTION IS, SAID ALICE,
 WHETHER YOU CAN MAKE WORDS MEAN SO MANY DIFFERENT THINGS...
 THE QUESTION IS, SAID HUMPTY DUMPTY,
 WHICH IS TO BE MASTER....
 THAT IS ALL.....

 ALICE THROUGH THE LOOKING GLASS
 Job cpu time:       0 days  0 hours  1 minutes 33.4 seconds.
 Elapsed time:       0 days  0 hours  0 minutes 24.7 seconds.
 File lengths (MBytes):  RWF=    572 Int=      0 D2E=      0 Chk=      8 Scr=      8
 Normal termination of Gaussian 16 at Sat Aug 27 01:10:57 2022.
