 Entering Gaussian System, Link 0=g16
 Input=H2O_H2O_4520.com
 Output=H2O_H2O_4520.log
 Initial command:
 /usr/site/hpc/x86_64/glibc-2.17/broadwell/gaussian/g16_a.03/pgi-16.5/g16/l1.exe "/gpfs/gpfs1/scratch/c7441284/ForceFieldModel/FittingData/Gau-3717454.inp" -scrdir="/gpfs/gpfs1/scratch/c7441284/ForceFieldModel/FittingData/"
 Entering Link 1 = /usr/site/hpc/x86_64/glibc-2.17/broadwell/gaussian/g16_a.03/pgi-16.5/g16/l1.exe PID=   3717455.
  
 Copyright (c) 1988,1990,1992,1993,1995,1998,2003,2009,2016,
            Gaussian, Inc.  All Rights Reserved.
  
 This is part of the Gaussian(R) 16 program.  It is based on
 the Gaussian(R) 09 system (copyright 2009, Gaussian, Inc.),
 the Gaussian(R) 03 system (copyright 2003, Gaussian, Inc.),
 the Gaussian(R) 98 system (copyright 1998, Gaussian, Inc.),
 the Gaussian(R) 94 system (copyright 1995, Gaussian, Inc.),
 the Gaussian 92(TM) system (copyright 1992, Gaussian, Inc.),
 the Gaussian 90(TM) system (copyright 1990, Gaussian, Inc.),
 the Gaussian 88(TM) system (copyright 1988, Gaussian, Inc.),
 the Gaussian 86(TM) system (copyright 1986, Carnegie Mellon
 University), and the Gaussian 82(TM) system (copyright 1983,
 Carnegie Mellon University). Gaussian is a federally registered
 trademark of Gaussian, Inc.
  
 This software contains proprietary and confidential information,
 including trade secrets, belonging to Gaussian, Inc.
  
 This software is provided under written license and may be
 used, copied, transmitted, or stored only in accord with that
 written license.
  
 The following legend is applicable only to US Government
 contracts under FAR:
  
                    RESTRICTED RIGHTS LEGEND
  
 Use, reproduction and disclosure by the US Government is
 subject to restrictions as set forth in subparagraphs (a)
 and (c) of the Commercial Computer Software - Restricted
 Rights clause in FAR 52.227-19.
  
 Gaussian, Inc.
 340 Quinnipiac St., Bldg. 40, Wallingford CT 06492
  
  
 ---------------------------------------------------------------
 Warning -- This program may not be used in any manner that
 competes with the business of Gaussian, Inc. or will provide
 assistance to any competitor of Gaussian, Inc.  The licensee
 of this program is prohibited from giving any competitor of
 Gaussian, Inc. access to this program.  By using this program,
 the user acknowledges that Gaussian, Inc. is engaged in the
 business of creating and licensing software in the field of
 computational chemistry and represents and warrants to the
 licensee that it is not a competitor of Gaussian, Inc. and that
 it will not use this program in any manner prohibited above.
 ---------------------------------------------------------------
  

 Cite this work as:
 Gaussian 16, Revision A.03,
 M. J. Frisch, G. W. Trucks, H. B. Schlegel, G. E. Scuseria, 
 M. A. Robb, J. R. Cheeseman, G. Scalmani, V. Barone, 
 G. A. Petersson, H. Nakatsuji, X. Li, M. Caricato, A. V. Marenich, 
 J. Bloino, B. G. Janesko, R. Gomperts, B. Mennucci, H. P. Hratchian, 
 J. V. Ortiz, A. F. Izmaylov, J. L. Sonnenberg, D. Williams-Young, 
 F. Ding, F. Lipparini, F. Egidi, J. Goings, B. Peng, A. Petrone, 
 T. Henderson, D. Ranasinghe, V. G. Zakrzewski, J. Gao, N. Rega, 
 G. Zheng, W. Liang, M. Hada, M. Ehara, K. Toyota, R. Fukuda, 
 J. Hasegawa, M. Ishida, T. Nakajima, Y. Honda, O. Kitao, H. Nakai, 
 T. Vreven, K. Throssell, J. A. Montgomery, Jr., J. E. Peralta, 
 F. Ogliaro, M. J. Bearpark, J. J. Heyd, E. N. Brothers, K. N. Kudin, 
 V. N. Staroverov, T. A. Keith, R. Kobayashi, J. Normand, 
 K. Raghavachari, A. P. Rendell, J. C. Burant, S. S. Iyengar, 
 J. Tomasi, M. Cossi, J. M. Millam, M. Klene, C. Adamo, R. Cammi, 
 J. W. Ochterski, R. L. Martin, K. Morokuma, O. Farkas, 
 J. B. Foresman, and D. J. Fox, Gaussian, Inc., Wallingford CT, 2016.
 
 ******************************************
 Gaussian 16:  ES64L-G16RevA.03 25-Dec-2016
                27-Aug-2022 
 ******************************************
 %NProcShared=4
 Will use up to    4 processors via shared memory.
 %Mem=4GB
 %Chk=H2O_H2O_4520.chk
 ------------------
 #p CCSD(T)/cc-pVTZ
 ------------------
 1/38=1,172=1/1;
 2/12=2,17=6,18=5,40=1/2;
 3/5=16,6=1,11=9,25=1,30=1/1,2,3;
 4//1;
 5/5=2,38=5/2;
 8/6=4,9=120000,10=1/1,4;
 9/5=7,14=2/13;
 6/7=2,8=2,9=2,10=2/1;
 99/5=1,9=1/99;
 Leave Link    1 at Sat Aug 27 07:47:01 2022, MaxMem=   536870912 cpu:               0.4 elap:               0.1
 (Enter /usr/site/hpc/x86_64/glibc-2.17/broadwell/gaussian/g16_a.03/pgi-16.5/g16/l101.exe)
 ------------
 H2O_H2O_4520
 ------------
 Symbolic Z-matrix:
 Charge =  0 Multiplicity = 1
 O                     0.       -0.00983   0. 
 H                    -0.79957  -0.58097   0. 
 H                     0.79957  -0.58097   0. 
 O                    -0.0095    6.3766    0. 
 H                    -0.35423   7.29675   0. 
 H                    -0.76811   5.7521    0. 
 
 ITRead=  0  0  0  0  0  0
 MicOpt= -1 -1 -1 -1 -1 -1
 NAtoms=      6 NQM=        6 NQMF=       0 NMMI=      0 NMMIF=      0
                NMic=       0 NMicF=      0.
                    Isotopes and Nuclear Properties:
 (Nuclear quadrupole moments (NQMom) in fm**2, nuclear magnetic moments (NMagM)
  in nuclear magnetons)

  Atom         1           2           3           4           5           6
 IAtWgt=          16           1           1          16           1           1
 AtmWgt=  15.9949146   1.0078250   1.0078250  15.9949146   1.0078250   1.0078250
 NucSpn=           0           1           1           0           1           1
 AtZEff=  -0.0000000  -0.0000000  -0.0000000  -0.0000000  -0.0000000  -0.0000000
 NQMom=    0.0000000   0.0000000   0.0000000   0.0000000   0.0000000   0.0000000
 NMagM=    0.0000000   2.7928460   2.7928460   0.0000000   2.7928460   2.7928460
 AtZNuc=   8.0000000   1.0000000   1.0000000   8.0000000   1.0000000   1.0000000
 Leave Link  101 at Sat Aug 27 07:47:02 2022, MaxMem=   536870912 cpu:               0.3 elap:               0.1
 (Enter /usr/site/hpc/x86_64/glibc-2.17/broadwell/gaussian/g16_a.03/pgi-16.5/g16/l202.exe)
                          Input orientation:                          
 ---------------------------------------------------------------------
 Center     Atomic      Atomic             Coordinates (Angstroms)
 Number     Number       Type             X           Y           Z
 ---------------------------------------------------------------------
      1          8           0        0.000000   -0.009833    0.000000
      2          1           0       -0.799571   -0.580965    0.000000
      3          1           0        0.799571   -0.580965    0.000000
      4          8           0       -0.009498    6.376604    0.000000
      5          1           0       -0.354225    7.296751    0.000000
      6          1           0       -0.768113    5.752097    0.000000
 ---------------------------------------------------------------------
                    Distance matrix (angstroms):
                    1          2          3          4          5
     1  O    0.000000
     2  H    0.982601   0.000000
     3  H    0.982601   1.599142   0.000000
     4  O    6.386444   7.002284   7.004453   0.000000
     5  H    7.315165   7.890294   7.961762   0.982602   0.000000
     6  H    5.812902   6.333140   6.524209   0.982602   1.599143
                    6
     6  H    0.000000
 Stoichiometry    H4O2
 Framework group  CS[SG(H4O2)]
 Deg. of freedom     9
 Full point group                 CS      NOp   2
 Largest Abelian subgroup         CS      NOp   2
 Largest concise Abelian subgroup C1      NOp   1
                         Standard orientation:                         
 ---------------------------------------------------------------------
 Center     Atomic      Atomic             Coordinates (Angstroms)
 Number     Number       Type             X           Y           Z
 ---------------------------------------------------------------------
      1          8           0        0.055230   -3.150973    0.000000
      2          1           0       -0.745190   -3.720915    0.000000
      3          1           0        0.853951   -3.723293    0.000000
      4          8           0        0.055230    3.235471    0.000000
      5          1           0       -0.288128    4.156130    0.000000
      6          1           0       -0.704313    2.612093    0.000000
 ---------------------------------------------------------------------
 Rotational constants (GHZ):         262.7346223           1.3353031           1.3285509
 Leave Link  202 at Sat Aug 27 07:47:02 2022, MaxMem=   536870912 cpu:               0.0 elap:               0.0
 (Enter /usr/site/hpc/x86_64/glibc-2.17/broadwell/gaussian/g16_a.03/pgi-16.5/g16/l301.exe)
 Standard basis: CC-pVTZ (5D, 7F)
 Ernie: Thresh=  0.10000D-02 Tol=  0.10000D-05 Strict=F.
 Ernie:  6 primitive shells out of 84 were deleted.
 There are    92 symmetry adapted cartesian basis functions of A'  symmetry.
 There are    38 symmetry adapted cartesian basis functions of A"  symmetry.
 There are    80 symmetry adapted basis functions of A'  symmetry.
 There are    36 symmetry adapted basis functions of A"  symmetry.
   116 basis functions,   172 primitive gaussians,   130 cartesian basis functions
    10 alpha electrons       10 beta electrons
       nuclear repulsion energy        26.0124979185 Hartrees.
 IExCor=    0 DFT=F Ex=HF Corr=None ExCW=0 ScaHFX=  1.000000
 ScaDFX=  1.000000  1.000000  1.000000  1.000000 ScalE2=  1.000000  1.000000
 IRadAn=      5 IRanWt=     -1 IRanGd=            0 ICorTp=0 IEmpDi=  4
 NAtoms=    6 NActive=    6 NUniq=    6 SFac= 1.00D+00 NAtFMM=   60 NAOKFM=F Big=F
 Integral buffers will be    131072 words long.
 Raffenetti 1 integral format.
 Two-electron integral symmetry is turned on.
 Leave Link  301 at Sat Aug 27 07:47:02 2022, MaxMem=   536870912 cpu:               0.2 elap:               0.1
 (Enter /usr/site/hpc/x86_64/glibc-2.17/broadwell/gaussian/g16_a.03/pgi-16.5/g16/l302.exe)
 NPDir=0 NMtPBC=     1 NCelOv=     1 NCel=       1 NClECP=     1 NCelD=      1
         NCelK=      1 NCelE2=     1 NClLst=     1 CellRange=     0.0.
 One-electron integrals computed using PRISM.
 One-electron integral symmetry used in STVInt
 NBasis=   116 RedAO= T EigKep=  2.69D-03  NBF=    80    36
 NBsUse=   116 1.00D-06 EigRej= -1.00D+00 NBFU=    80    36
 Leave Link  302 at Sat Aug 27 07:47:02 2022, MaxMem=   536870912 cpu:               0.4 elap:               0.1
 (Enter /usr/site/hpc/x86_64/glibc-2.17/broadwell/gaussian/g16_a.03/pgi-16.5/g16/l303.exe)
 DipDrv:  MaxL=1.
 Leave Link  303 at Sat Aug 27 07:47:02 2022, MaxMem=   536870912 cpu:               0.1 elap:               0.0
 (Enter /usr/site/hpc/x86_64/glibc-2.17/broadwell/gaussian/g16_a.03/pgi-16.5/g16/l401.exe)
 ExpMin= 1.03D-01 ExpMax= 1.53D+04 ExpMxC= 5.22D+02 IAcc=3 IRadAn=         5 AccDes= 0.00D+00
 Harris functional with IExCor=  205 and IRadAn=       5 diagonalized for initial guess.
 HarFok:  IExCor=  205 AccDes= 0.00D+00 IRadAn=         5 IDoV= 1 UseB2=F ITyADJ=14
 ICtDFT=  3500011 ScaDFX=  1.000000  1.000000  1.000000  1.000000
 FoFCou: FMM=F IPFlag=           0 FMFlag=      100000 FMFlg1=           0
         NFxFlg=           0 DoJE=T BraDBF=F KetDBF=T FulRan=T
         wScrn=  0.000000 ICntrl=       500 IOpCl=  0 I1Cent=   200000004 NGrid=           0
         NMat0=    1 NMatS0=      1 NMatT0=    0 NMatD0=    1 NMtDS0=    0 NMtDT0=    0
 Petite list used in FoFCou.
 Harris En= -152.298683742895    
 JPrj=0 DoOrth=F DoCkMO=F.
 Initial guess orbital symmetries:
       Occupied  (A') (A') (A') (A') (A') (A') (A') (A') (A") (A")
       Virtual   (A') (A') (A') (A') (A') (A') (A') (A') (A') (A')
                 (A") (A") (A') (A') (A') (A') (A") (A") (A") (A")
                 (A') (A') (A') (A') (A') (A') (A') (A') (A") (A")
                 (A") (A") (A') (A') (A') (A') (A') (A') (A') (A')
                 (A') (A') (A") (A") (A') (A') (A") (A") (A") (A")
                 (A') (A') (A') (A') (A') (A') (A") (A") (A') (A')
                 (A') (A') (A") (A") (A") (A") (A') (A') (A') (A')
                 (A") (A") (A') (A') (A') (A') (A') (A') (A') (A')
                 (A") (A") (A') (A') (A") (A") (A") (A") (A') (A')
                 (A") (A") (A') (A') (A') (A') (A") (A") (A') (A')
                 (A') (A') (A') (A') (A') (A')
 The electronic state of the initial guess is 1-A'.
 Leave Link  401 at Sat Aug 27 07:47:02 2022, MaxMem=   536870912 cpu:               0.7 elap:               0.2
 (Enter /usr/site/hpc/x86_64/glibc-2.17/broadwell/gaussian/g16_a.03/pgi-16.5/g16/l502.exe)
 Keep R1 ints in memory in symmetry-blocked form, NReq=34823457.
 FoFCou: FMM=F IPFlag=           0 FMFlag=           0 FMFlg1=           0
         NFxFlg=           0 DoJE=F BraDBF=F KetDBF=F FulRan=T
         wScrn=  0.000000 ICntrl=       600 IOpCl=  0 I1Cent=           0 NGrid=           0
         NMat0=    1 NMatS0=   6786 NMatT0=    0 NMatD0=    1 NMtDS0=    0 NMtDT0=    0
 Petite list used in FoFCou.
 Closed shell SCF:
 Using DIIS extrapolation, IDIIS=  1040.
 NGot=   536870912 LenX=   525040673 LenY=   525023332
 Requested convergence on RMS density matrix=1.00D-08 within 128 cycles.
 Requested convergence on MAX density matrix=1.00D-06.
 Requested convergence on             energy=1.00D-06.
 No special actions if energy rises.

 Cycle   1  Pass 1  IDiag  1:
 E= -151.927008802055    
 DIIS: error= 6.24D-02 at cycle   1 NSaved=   1.
 NSaved= 1 IEnMin= 1 EnMin= -151.927008802055     IErMin= 1 ErrMin= 6.24D-02
 ErrMax= 6.24D-02  0.00D+00 EMaxC= 1.00D-01 BMatC= 4.00D-01 BMatP= 4.00D-01
 IDIUse=3 WtCom= 3.76D-01 WtEn= 6.24D-01
 Coeff-Com:  0.100D+01
 Coeff-En:   0.100D+01
 Coeff:      0.100D+01
 Gap=     0.519 Goal=   None    Shift=    0.000
 GapD=    0.519 DampG=2.000 DampE=0.500 DampFc=1.0000 IDamp=-1.
 RMSDP=2.51D-03 MaxDP=6.65D-02              OVMax= 1.27D-01

 Cycle   2  Pass 1  IDiag  1:
 E= -152.038834858110     Delta-E=       -0.111826056055 Rises=F Damp=F
 DIIS: error= 3.93D-02 at cycle   2 NSaved=   2.
 NSaved= 2 IEnMin= 2 EnMin= -152.038834858110     IErMin= 2 ErrMin= 3.93D-02
 ErrMax= 3.93D-02  0.00D+00 EMaxC= 1.00D-01 BMatC= 1.13D-01 BMatP= 4.00D-01
 IDIUse=3 WtCom= 6.07D-01 WtEn= 3.93D-01
 Coeff-Com:  0.320D+00 0.680D+00
 Coeff-En:   0.167D+00 0.833D+00
 Coeff:      0.260D+00 0.740D+00
 Gap=     0.660 Goal=   None    Shift=    0.000
 RMSDP=1.32D-03 MaxDP=3.94D-02 DE=-1.12D-01 OVMax= 5.70D-02

 Cycle   3  Pass 1  IDiag  1:
 E= -152.103867740051     Delta-E=       -0.065032881941 Rises=F Damp=F
 DIIS: error= 8.30D-03 at cycle   3 NSaved=   3.
 NSaved= 3 IEnMin= 3 EnMin= -152.103867740051     IErMin= 3 ErrMin= 8.30D-03
 ErrMax= 8.30D-03  0.00D+00 EMaxC= 1.00D-01 BMatC= 5.69D-03 BMatP= 1.13D-01
 IDIUse=3 WtCom= 9.17D-01 WtEn= 8.30D-02
 Coeff-Com: -0.304D-01 0.151D+00 0.879D+00
 Coeff-En:   0.000D+00 0.000D+00 0.100D+01
 Coeff:     -0.278D-01 0.139D+00 0.889D+00
 Gap=     0.633 Goal=   None    Shift=    0.000
 RMSDP=2.37D-04 MaxDP=5.50D-03 DE=-6.50D-02 OVMax= 1.31D-02

 Cycle   4  Pass 1  IDiag  1:
 E= -152.107430547073     Delta-E=       -0.003562807023 Rises=F Damp=F
 DIIS: error= 7.75D-04 at cycle   4 NSaved=   4.
 NSaved= 4 IEnMin= 4 EnMin= -152.107430547073     IErMin= 4 ErrMin= 7.75D-04
 ErrMax= 7.75D-04  0.00D+00 EMaxC= 1.00D-01 BMatC= 3.43D-05 BMatP= 5.69D-03
 IDIUse=3 WtCom= 9.92D-01 WtEn= 7.75D-03
 Coeff-Com:  0.690D-02-0.598D-01-0.246D+00 0.130D+01
 Coeff-En:   0.000D+00 0.000D+00 0.000D+00 0.100D+01
 Coeff:      0.685D-02-0.594D-01-0.244D+00 0.130D+01
 Gap=     0.635 Goal=   None    Shift=    0.000
 RMSDP=5.15D-05 MaxDP=1.00D-03 DE=-3.56D-03 OVMax= 2.25D-03

 Cycle   5  Pass 1  IDiag  1:
 E= -152.107479309633     Delta-E=       -0.000048762560 Rises=F Damp=F
 DIIS: error= 1.83D-04 at cycle   5 NSaved=   5.
 NSaved= 5 IEnMin= 5 EnMin= -152.107479309633     IErMin= 5 ErrMin= 1.83D-04
 ErrMax= 1.83D-04  0.00D+00 EMaxC= 1.00D-01 BMatC= 1.33D-06 BMatP= 3.43D-05
 IDIUse=3 WtCom= 9.98D-01 WtEn= 1.83D-03
 Coeff-Com:  0.532D-03 0.306D-03-0.234D-02-0.217D+00 0.122D+01
 Coeff-En:   0.000D+00 0.000D+00 0.000D+00 0.000D+00 0.100D+01
 Coeff:      0.531D-03 0.305D-03-0.233D-02-0.217D+00 0.122D+01
 Gap=     0.636 Goal=   None    Shift=    0.000
 RMSDP=1.40D-05 MaxDP=2.86D-04 DE=-4.88D-05 OVMax= 6.81D-04

 Cycle   6  Pass 1  IDiag  1:
 E= -152.107482088529     Delta-E=       -0.000002778895 Rises=F Damp=F
 DIIS: error= 2.88D-05 at cycle   6 NSaved=   6.
 NSaved= 6 IEnMin= 6 EnMin= -152.107482088529     IErMin= 6 ErrMin= 2.88D-05
 ErrMax= 2.88D-05  0.00D+00 EMaxC= 1.00D-01 BMatC= 3.37D-08 BMatP= 1.33D-06
 IDIUse=1 WtCom= 1.00D+00 WtEn= 0.00D+00
 Coeff-Com: -0.275D-03 0.158D-02 0.692D-02 0.242D-03-0.261D+00 0.125D+01
 Coeff:     -0.275D-03 0.158D-02 0.692D-02 0.242D-03-0.261D+00 0.125D+01
 Gap=     0.636 Goal=   None    Shift=    0.000
 RMSDP=3.01D-06 MaxDP=6.55D-05 DE=-2.78D-06 OVMax= 1.53D-04

 Cycle   7  Pass 1  IDiag  1:
 E= -152.107482184215     Delta-E=       -0.000000095687 Rises=F Damp=F
 DIIS: error= 5.35D-06 at cycle   7 NSaved=   7.
 NSaved= 7 IEnMin= 7 EnMin= -152.107482184215     IErMin= 7 ErrMin= 5.35D-06
 ErrMax= 5.35D-06  0.00D+00 EMaxC= 1.00D-01 BMatC= 1.76D-09 BMatP= 3.37D-08
 IDIUse=1 WtCom= 1.00D+00 WtEn= 0.00D+00
 Coeff-Com:  0.310D-04-0.377D-03-0.162D-02 0.137D-01-0.136D-01-0.221D+00
 Coeff-Com:  0.122D+01
 Coeff:      0.310D-04-0.377D-03-0.162D-02 0.137D-01-0.136D-01-0.221D+00
 Coeff:      0.122D+01
 Gap=     0.636 Goal=   None    Shift=    0.000
 RMSDP=4.35D-07 MaxDP=9.05D-06 DE=-9.57D-08 OVMax= 2.99D-05

 Cycle   8  Pass 1  IDiag  1:
 E= -152.107482187924     Delta-E=       -0.000000003709 Rises=F Damp=F
 DIIS: error= 1.59D-06 at cycle   8 NSaved=   8.
 NSaved= 8 IEnMin= 8 EnMin= -152.107482187924     IErMin= 8 ErrMin= 1.59D-06
 ErrMax= 1.59D-06  0.00D+00 EMaxC= 1.00D-01 BMatC= 1.12D-10 BMatP= 1.76D-09
 IDIUse=1 WtCom= 1.00D+00 WtEn= 0.00D+00
 Coeff-Com:  0.961D-05-0.211D-04-0.627D-04-0.271D-02 0.175D-01-0.298D-01
 Coeff-Com: -0.197D+00 0.121D+01
 Coeff:      0.961D-05-0.211D-04-0.627D-04-0.271D-02 0.175D-01-0.298D-01
 Coeff:     -0.197D+00 0.121D+01
 Gap=     0.636 Goal=   None    Shift=    0.000
 RMSDP=1.05D-07 MaxDP=2.46D-06 DE=-3.71D-09 OVMax= 6.73D-06

 Cycle   9  Pass 1  IDiag  1:
 E= -152.107482188143     Delta-E=       -0.000000000218 Rises=F Damp=F
 DIIS: error= 4.70D-07 at cycle   9 NSaved=   9.
 NSaved= 9 IEnMin= 9 EnMin= -152.107482188143     IErMin= 9 ErrMin= 4.70D-07
 ErrMax= 4.70D-07  0.00D+00 EMaxC= 1.00D-01 BMatC= 1.88D-11 BMatP= 1.12D-10
 IDIUse=1 WtCom= 1.00D+00 WtEn= 0.00D+00
 Coeff-Com:  0.435D-06 0.288D-04 0.136D-03-0.231D-02 0.789D-02 0.868D-02
 Coeff-Com: -0.175D+00 0.397D+00 0.764D+00
 Coeff:      0.435D-06 0.288D-04 0.136D-03-0.231D-02 0.789D-02 0.868D-02
 Coeff:     -0.175D+00 0.397D+00 0.764D+00
 Gap=     0.636 Goal=   None    Shift=    0.000
 RMSDP=2.39D-08 MaxDP=5.38D-07 DE=-2.18D-10 OVMax= 1.59D-06

 Cycle  10  Pass 1  IDiag  1:
 E= -152.107482188161     Delta-E=       -0.000000000018 Rises=F Damp=F
 DIIS: error= 1.01D-07 at cycle  10 NSaved=  10.
 NSaved=10 IEnMin=10 EnMin= -152.107482188161     IErMin=10 ErrMin= 1.01D-07
 ErrMax= 1.01D-07  0.00D+00 EMaxC= 1.00D-01 BMatC= 4.77D-13 BMatP= 1.88D-11
 IDIUse=1 WtCom= 1.00D+00 WtEn= 0.00D+00
 Coeff-Com: -0.528D-06-0.442D-05-0.250D-04 0.567D-03-0.204D-02-0.194D-02
 Coeff-Com:  0.518D-01-0.162D+00-0.171D+00 0.128D+01
 Coeff:     -0.528D-06-0.442D-05-0.250D-04 0.567D-03-0.204D-02-0.194D-02
 Coeff:      0.518D-01-0.162D+00-0.171D+00 0.128D+01
 Gap=     0.636 Goal=   None    Shift=    0.000
 RMSDP=7.19D-09 MaxDP=2.07D-07 DE=-1.78D-11 OVMax= 4.32D-07

 SCF Done:  E(RHF) =  -152.107482188     A.U. after   10 cycles
            NFock= 10  Conv=0.72D-08     -V/T= 2.0020
 KE= 1.518045112507D+02 PE=-4.134783811178D+02 EE= 8.355388976048D+01
 Leave Link  502 at Sat Aug 27 07:47:03 2022, MaxMem=   536870912 cpu:               3.5 elap:               1.0
 (Enter /usr/site/hpc/x86_64/glibc-2.17/broadwell/gaussian/g16_a.03/pgi-16.5/g16/l801.exe)
 Windowed orbitals will be sorted by symmetry type.
 ExpMin= 1.03D-01 ExpMax= 1.53D+04 ExpMxC= 5.22D+02 IAcc=3 IRadAn=         5 AccDes= 0.00D+00
 HarFok:  IExCor=  205 AccDes= 0.00D+00 IRadAn=         5 IDoV=-2 UseB2=F ITyADJ=14
 ICtDFT= 12500011 ScaDFX=  1.000000  1.000000  1.000000  1.000000
 Largest valence mixing into a core orbital is  1.12D-04
 Largest core mixing into a valence orbital is  1.77D-05
 Range of M.O.s used for correlation:     3   116
 NBasis=   116 NAE=    10 NBE=    10 NFC=     2 NFV=     0
 NROrb=    114 NOA=     8 NOB=     8 NVA=   106 NVB=   106
 Leave Link  801 at Sat Aug 27 07:47:03 2022, MaxMem=   536870912 cpu:               0.3 elap:               0.1
 (Enter /usr/site/hpc/x86_64/glibc-2.17/broadwell/gaussian/g16_a.03/pgi-16.5/g16/l804.exe)
 Closed-shell transformation, MDV=   536870912 ITran=4 ISComp=2.
 Unit  1 TFree=        834515 TCopy=        406125.
 Semi-Direct transformation.
 ModeAB=           4 MOrb=             8 LenV=     536381821
 LASXX=      2873146 LTotXX=     2873146 LenRXX=     5831278
 LTotAB=     2958132 MaxLAS=     4844544 LenRXY=           0
 NonZer=     8704424 LenScr=    13107200 LnRSAI=     4844544
 LnScr1=     7340032 LExtra=           0 Total=     31123054
 MaxDsk=          -1 SrtSym=           T ITran=            4
 DoSDTr:  NPSUse=  4
 JobTyp=0 Pass  1:  I=   1 to   8.
 (rs|ai) integrals will be sorted in core.
 Complete sort for first half transformation.
 First half transformation complete.
 Complete sort for second half transformation.
 Second half transformation complete.
 Spin components of T(2) and E(2):
     alpha-alpha T2 =       0.1555762073D-01 E2=     -0.6379574895D-01
     alpha-beta  T2 =       0.9190097641D-01 E2=     -0.3982811848D+00
     beta-beta   T2 =       0.1555762073D-01 E2=     -0.6379574895D-01
 ANorm=    0.1059724595D+01
 E2 =    -0.5258726827D+00 EUMP2 =    -0.15263335487085D+03
 Leave Link  804 at Sat Aug 27 07:47:04 2022, MaxMem=   536870912 cpu:               2.7 elap:               0.7
 (Enter /usr/site/hpc/x86_64/glibc-2.17/broadwell/gaussian/g16_a.03/pgi-16.5/g16/l913.exe)
 CIDS:  MDV=   536870912.
 Frozen-core window:  NFC=   2 NFV=   0.
 IFCWin=0 IBDFC=1 NFBD=     0     0 NFCmp=     0     0 NFFFC=     0     0
 Using DD3R+UMP44R for 1st iteration.
 Using DD4RQ for 2nd and later iterations.
 Keep R2 and R3 ints in memory in symmetry-blocked form, NReq=35357534.
 FoFCou: FMM=F IPFlag=           0 FMFlag=           0 FMFlg1=           0
         NFxFlg=           0 DoJE=F BraDBF=F KetDBF=F FulRan=T
         wScrn=  0.000000 ICntrl=       600 IOpCl=  0 I1Cent=           0 NGrid=           0
         NMat0=    1 NMatS0=   6786 NMatT0=    0 NMatD0=    1 NMtDS0=    0 NMtDT0=    0
 Petite list used in FoFCou.
 CIDS: In Core Option IDoMem=           1.
 CCSD(T)
 =======
 Iterations=  50 Convergence= 0.100D-06
 Produce multiple copies of IABC intergrals
 Iteration Nr.   1
 **********************
 DD1Dir will call FoFMem   1 times, MxPair=        72
 NAB=    36 NAA=     0 NBB=     0.
 MP4(R+Q)=  0.75522622D-02
 Maximum subspace dimension=  5
 A-vector RMS=  1.7413042D-03 Max=  6.1966619D-03 conv= 1.00D-05.
 RLE energy=       -0.5258227629
 E3=       -0.75735158D-02        EUMP3=      -0.15264092839D+03
 E4(DQ)=   -0.15520889D-02        UMP4(DQ)=   -0.15264248048D+03
 E4(SDQ)=  -0.46064857D-02        UMP4(SDQ)=  -0.15264553487D+03
 VARIATIONAL ENERGIES WITH THE FIRST-ORDER WAVEFUNCTION:
 DE(Corr)= -0.52582277     E(Corr)=     -152.63330496    
 NORM(A)=   0.10600945D+01
 Iteration Nr.   2
 **********************
 DD1Dir will call FoFMem   1 times, MxPair=        72
 NAB=    36 NAA=     0 NBB=     0.
 A-vector RMS=  2.1227037D-04 Max=  2.3216001D-03 conv= 1.00D-05.
 RLE energy=       -0.5368824863
 DE(Corr)= -0.53572198     E(CORR)=     -152.64320416     Delta=-9.90D-03
 NORM(A)=   0.10638422D+01
 Iteration Nr.   3
 **********************
 DD1Dir will call FoFMem   1 times, MxPair=        72
 NAB=    36 NAA=     0 NBB=     0.
 A-vector RMS=  1.4103964D-04 Max=  9.1781822D-04 conv= 1.00D-05.
 RLE energy=       -0.5373781456
 DE(Corr)= -0.53679248     E(CORR)=     -152.64427467     Delta=-1.07D-03
 NORM(A)=   0.10644803D+01
 Iteration Nr.   4
 **********************
 DD1Dir will call FoFMem   1 times, MxPair=        72
 NAB=    36 NAA=     0 NBB=     0.
 A-vector RMS=  2.5783102D-05 Max=  1.4961870D-04 conv= 1.00D-05.
 RLE energy=       -0.5374613565
 DE(Corr)= -0.53742603     E(CORR)=     -152.64490822     Delta=-6.34D-04
 NORM(A)=   0.10645911D+01
 Iteration Nr.   5
 **********************
 DD1Dir will call FoFMem   1 times, MxPair=        72
 NAB=    36 NAA=     0 NBB=     0.
 A-vector RMS=  1.8738123D-05 Max=  1.7102509D-04 conv= 1.00D-05.
 RLE energy=       -0.5374696827
 DE(Corr)= -0.53746292     E(CORR)=     -152.64494511     Delta=-3.69D-05
 NORM(A)=   0.10646006D+01
 Iteration Nr.   6
 **********************
 DD1Dir will call FoFMem   1 times, MxPair=        72
 NAB=    36 NAA=     0 NBB=     0.
 A-vector RMS=  5.5218973D-06 Max=  4.4290876D-05 conv= 1.00D-05.
 RLE energy=       -0.5374605095
 DE(Corr)= -0.53746610     E(CORR)=     -152.64494829     Delta=-3.17D-06
 NORM(A)=   0.10646007D+01
 Iteration Nr.   7
 **********************
 DD1Dir will call FoFMem   1 times, MxPair=        72
 NAB=    36 NAA=     0 NBB=     0.
 A-vector RMS=  2.6544205D-06 Max=  2.4702423D-05 conv= 1.00D-05.
 RLE energy=       -0.5374672773
 DE(Corr)= -0.53746624     E(CORR)=     -152.64494843     Delta=-1.43D-07
 NORM(A)=   0.10646031D+01
 Iteration Nr.   8
 **********************
 DD1Dir will call FoFMem   1 times, MxPair=        72
 NAB=    36 NAA=     0 NBB=     0.
 A-vector RMS=  5.0994903D-07 Max=  4.3615516D-06 conv= 1.00D-05.
 RLE energy=       -0.5374656432
 DE(Corr)= -0.53746581     E(CORR)=     -152.64494800     Delta= 4.31D-07
 NORM(A)=   0.10646032D+01
 Iteration Nr.   9
 **********************
 DD1Dir will call FoFMem   1 times, MxPair=        72
 NAB=    36 NAA=     0 NBB=     0.
 A-vector RMS=  1.1025407D-07 Max=  8.7177359D-07 conv= 1.00D-05.
 RLE energy=       -0.5374661443
 DE(Corr)= -0.53746610     E(CORR)=     -152.64494829     Delta=-2.91D-07
 NORM(A)=   0.10646034D+01
 Iteration Nr.  10
 **********************
 DD1Dir will call FoFMem   1 times, MxPair=        72
 NAB=    36 NAA=     0 NBB=     0.
 A-vector RMS=  3.3838637D-08 Max=  2.7132810D-07 conv= 1.00D-05.
 RLE energy=       -0.5374660899
 DE(Corr)= -0.53746608     E(CORR)=     -152.64494827     Delta= 2.35D-08
 NORM(A)=   0.10646035D+01
 CI/CC converged in   10 iterations to DelEn= 2.35D-08 Conv= 1.00D-07 ErrA1= 3.38D-08 Conv= 1.00D-05
 Wavefunction amplitudes converged. E(Corr)=     -152.64494827    
 Largest amplitude= 4.79D-02
 IPart=  3 IA=    7   11.05% done.
 IPart=  3 IA=   13   21.46% done.
 IPart=  4 IA=   19   31.21% done.
 IPart=  4 IA=   25   40.32% done.
 IPart=  4 IA=   32   50.13% done.
 IPart=  4 IA=   40   60.27% done.
 IPart=  1 IA=   49   70.30% done.
 IPart=  2 IA=   60   80.58% done.
 IPart=  1 IA=   74   90.51% done.
 Time for triples=       45.97 seconds.
 T4(CCSD)= -0.16028000D-01
 T5(CCSD)=  0.40287918D-03
 CCSD(T)= -0.15266057339D+03
 Discarding MO integrals.
 Leave Link  913 at Sat Aug 27 07:47:21 2022, MaxMem=   536870912 cpu:              69.4 elap:              17.7
 (Enter /usr/site/hpc/x86_64/glibc-2.17/broadwell/gaussian/g16_a.03/pgi-16.5/g16/l601.exe)
 Copying SCF densities to generalized density rwf, IOpCl= 0 IROHF=0.

 **********************************************************************

            Population analysis using the SCF density.

 **********************************************************************

 Orbital symmetries:
       Occupied  (A') (A') (A') (A') (A') (A') (A') (A') (A") (A")
       Virtual   (A') (A') (A') (A') (A') (A') (A') (A') (A') (A')
                 (A") (A") (A') (A') (A') (A') (A") (A") (A") (A")
                 (A') (A') (A') (A') (A') (A') (A') (A') (A") (A")
                 (A") (A") (A') (A') (A') (A') (A') (A') (A') (A')
                 (A') (A') (A") (A") (A') (A') (A") (A") (A') (A')
                 (A") (A") (A') (A') (A') (A') (A") (A") (A") (A")
                 (A') (A') (A') (A') (A") (A") (A') (A') (A') (A')
                 (A") (A") (A') (A') (A') (A') (A') (A') (A') (A')
                 (A") (A") (A') (A') (A") (A") (A") (A") (A') (A')
                 (A") (A") (A') (A') (A') (A') (A") (A") (A') (A')
                 (A') (A') (A') (A') (A') (A')
 The electronic state is 1-A'.
 Alpha  occ. eigenvalues --  -20.55637 -20.55159  -1.32937  -1.32458  -0.70343
 Alpha  occ. eigenvalues --   -0.69857  -0.56387  -0.55905  -0.50049  -0.49571
 Alpha virt. eigenvalues --    0.14035   0.14529   0.20122   0.20634   0.54217
 Alpha virt. eigenvalues --    0.54716   0.57143   0.57621   0.67778   0.68305
 Alpha virt. eigenvalues --    0.78831   0.79301   0.80260   0.80764   0.82195
 Alpha virt. eigenvalues --    0.82665   0.84713   0.85189   0.97150   0.97621
 Alpha virt. eigenvalues --    1.14648   1.15153   1.17023   1.17514   1.51574
 Alpha virt. eigenvalues --    1.51865   1.52048   1.52364   2.00567   2.01045
 Alpha virt. eigenvalues --    2.06631   2.07113   2.09295   2.09789   2.14749
 Alpha virt. eigenvalues --    2.15237   2.24880   2.25367   2.61386   2.61868
 Alpha virt. eigenvalues --    2.92757   2.93244   3.39253   3.39735   3.49809
 Alpha virt. eigenvalues --    3.50292   3.53004   3.53481   3.59382   3.59865
 Alpha virt. eigenvalues --    3.78548   3.79026   3.85311   3.85796   3.87500
 Alpha virt. eigenvalues --    3.87982   3.93457   3.93940   4.02914   4.03392
 Alpha virt. eigenvalues --    4.08070   4.08551   4.15139   4.15622   4.29996
 Alpha virt. eigenvalues --    4.30475   4.39792   4.40280   4.45447   4.45933
 Alpha virt. eigenvalues --    4.66401   4.66878   4.80763   4.81245   5.04094
 Alpha virt. eigenvalues --    5.04574   5.23960   5.24439   5.53919   5.54402
 Alpha virt. eigenvalues --    5.97803   5.98282   6.40266   6.40744   6.86055
 Alpha virt. eigenvalues --    6.86536   6.89536   6.90016   6.94467   6.94948
 Alpha virt. eigenvalues --    6.99002   6.99481   7.07763   7.08250   7.12377
 Alpha virt. eigenvalues --    7.12856   7.18170   7.18652   7.47067   7.47552
 Alpha virt. eigenvalues --    7.70194   7.70678   8.14940   8.15421  12.49155
 Alpha virt. eigenvalues --   12.49636
          Condensed to atoms (all electrons):
               1          2          3          4          5          6
     1  O    7.817246   0.345423   0.346663  -0.000000  -0.000000   0.000001
     2  H    0.345423   0.437692  -0.036624   0.000000   0.000000  -0.000000
     3  H    0.346663  -0.036624   0.434138   0.000000   0.000000  -0.000000
     4  O   -0.000000   0.000000   0.000000   7.817429   0.345058   0.346559
     5  H   -0.000000   0.000000   0.000000   0.345058   0.439306  -0.036633
     6  H    0.000001  -0.000000  -0.000000   0.346559  -0.036633   0.433295
 Mulliken charges:
               1
     1  O   -0.509332
     2  H    0.253510
     3  H    0.255823
     4  O   -0.509047
     5  H    0.252268
     6  H    0.256777
 Sum of Mulliken charges =  -0.00000
 Mulliken charges with hydrogens summed into heavy atoms:
               1
     1  O    0.000001
     4  O   -0.000001
 Electronic spatial extent (au):  <R**2>=            788.3427
 Charge=             -0.0000 electrons
 Dipole moment (field-independent basis, Debye):
    X=             -1.8987    Y=             -1.4761    Z=              0.0000  Tot=              2.4049
 Quadrupole moment (field-independent basis, Debye-Ang):
   XX=             -9.7242   YY=              5.8661   ZZ=            -14.7122
   XY=             -5.7998   XZ=              0.0000   YZ=              0.0000
 Traceless Quadrupole moment (field-independent basis, Debye-Ang):
   XX=             -3.5341   YY=             12.0562   ZZ=             -8.5221
   XY=             -5.7998   XZ=              0.0000   YZ=              0.0000
 Octapole moment (field-independent basis, Debye-Ang**2):
  XXX=             -0.9421  YYY=            -26.2582  ZZZ=              0.0000  XYY=            -17.2023
  XXY=             -8.2870  XXZ=              0.0000  XZZ=             -0.2491  YZZ=             -0.1992
  YYZ=              0.0000  XYZ=              0.0000
 Hexadecapole moment (field-independent basis, Debye-Ang**3):
 XXXX=            -11.8686 YYYY=           -295.6955 ZZZZ=            -11.3363 XXXY=              1.2466
 XXXZ=              0.0000 YYYX=            -59.0219 YYYZ=              0.0000 ZZZX=              0.0000
 ZZZY=              0.0000 XXYY=           -100.6336 XXZZ=             -4.3963 YYZZ=           -159.1019
 XXYZ=              0.0000 YYXZ=              0.0000 ZZXY=              1.7487
 N-N= 2.601249791850D+01 E-N=-4.134783798585D+02  KE= 1.518045112507D+02
 Symmetry A'   KE= 1.427674850118D+02
 Symmetry A"   KE= 9.037026238848D+00
 Leave Link  601 at Sat Aug 27 07:47:22 2022, MaxMem=   536870912 cpu:               0.1 elap:               0.1
 (Enter /usr/site/hpc/x86_64/glibc-2.17/broadwell/gaussian/g16_a.03/pgi-16.5/g16/l9999.exe)
 1\1\GINC-N003\SP\RCCSD(T)-FC\CC-pVTZ\H4O2\C7441284\27-Aug-2022\0\\#p C
 CSD(T)/cc-pVTZ\\H2O_H2O_4520\\0,1\O,0,0.,-0.009833,0.\H,0,-0.799571,-0
 .580965,0.\H,0,0.799571,-0.580965,0.\O,0,-0.009498,6.376604,0.\H,0,-0.
 354225,7.296751,0.\H,0,-0.768113,5.752097,0.\\Version=ES64L-G16RevA.03
 \State=1-A'\HF=-152.1074822\MP2=-152.6333549\MP3=-152.6409284\MP4D=-15
 2.6500327\MP4DQ=-152.6424805\MP4SDQ=-152.6455349\CCSD=-152.6449483\CCS
 D(T)=-152.6605734\RMSD=7.189e-09\PG=CS [SG(H4O2)]\\@


 "I COULD HAVE DONE IT IN A MUCH MORE COMPLICATED WAY"
 SAID THE RED QUEEN, IMMENSELY PROUD.

                                      -- LEWIS CARROLL
 Job cpu time:       0 days  0 hours  1 minutes 18.2 seconds.
 Elapsed time:       0 days  0 hours  0 minutes 20.1 seconds.
 File lengths (MBytes):  RWF=    568 Int=      0 D2E=      0 Chk=      8 Scr=      8
 Normal termination of Gaussian 16 at Sat Aug 27 07:47:22 2022.
