 Entering Gaussian System, Link 0=g16
 Input=H2O_H2O_3191.com
 Output=H2O_H2O_3191.log
 Initial command:
 /usr/site/hpc/x86_64/glibc-2.17/broadwell/gaussian/g16_a.03/pgi-16.5/g16/l1.exe "/gpfs/gpfs1/scratch/c7441284/ForceFieldModel/FittingData/Gau-3771546.inp" -scrdir="/gpfs/gpfs1/scratch/c7441284/ForceFieldModel/FittingData/"
 Entering Link 1 = /usr/site/hpc/x86_64/glibc-2.17/broadwell/gaussian/g16_a.03/pgi-16.5/g16/l1.exe PID=   3771547.
  
 Copyright (c) 1988,1990,1992,1993,1995,1998,2003,2009,2016,
            Gaussian, Inc.  All Rights Reserved.
  
 This is part of the Gaussian(R) 16 program.  It is based on
 the Gaussian(R) 09 system (copyright 2009, Gaussian, Inc.),
 the Gaussian(R) 03 system (copyright 2003, Gaussian, Inc.),
 the Gaussian(R) 98 system (copyright 1998, Gaussian, Inc.),
 the Gaussian(R) 94 system (copyright 1995, Gaussian, Inc.),
 the Gaussian 92(TM) system (copyright 1992, Gaussian, Inc.),
 the Gaussian 90(TM) system (copyright 1990, Gaussian, Inc.),
 the Gaussian 88(TM) system (copyright 1988, Gaussian, Inc.),
 the Gaussian 86(TM) system (copyright 1986, Carnegie Mellon
 University), and the Gaussian 82(TM) system (copyright 1983,
 Carnegie Mellon University). Gaussian is a federally registered
 trademark of Gaussian, Inc.
  
 This software contains proprietary and confidential information,
 including trade secrets, belonging to Gaussian, Inc.
  
 This software is provided under written license and may be
 used, copied, transmitted, or stored only in accord with that
 written license.
  
 The following legend is applicable only to US Government
 contracts under FAR:
  
                    RESTRICTED RIGHTS LEGEND
  
 Use, reproduction and disclosure by the US Government is
 subject to restrictions as set forth in subparagraphs (a)
 and (c) of the Commercial Computer Software - Restricted
 Rights clause in FAR 52.227-19.
  
 Gaussian, Inc.
 340 Quinnipiac St., Bldg. 40, Wallingford CT 06492
  
  
 ---------------------------------------------------------------
 Warning -- This program may not be used in any manner that
 competes with the business of Gaussian, Inc. or will provide
 assistance to any competitor of Gaussian, Inc.  The licensee
 of this program is prohibited from giving any competitor of
 Gaussian, Inc. access to this program.  By using this program,
 the user acknowledges that Gaussian, Inc. is engaged in the
 business of creating and licensing software in the field of
 computational chemistry and represents and warrants to the
 licensee that it is not a competitor of Gaussian, Inc. and that
 it will not use this program in any manner prohibited above.
 ---------------------------------------------------------------
  

 Cite this work as:
 Gaussian 16, Revision A.03,
 M. J. Frisch, G. W. Trucks, H. B. Schlegel, G. E. Scuseria, 
 M. A. Robb, J. R. Cheeseman, G. Scalmani, V. Barone, 
 G. A. Petersson, H. Nakatsuji, X. Li, M. Caricato, A. V. Marenich, 
 J. Bloino, B. G. Janesko, R. Gomperts, B. Mennucci, H. P. Hratchian, 
 J. V. Ortiz, A. F. Izmaylov, J. L. Sonnenberg, D. Williams-Young, 
 F. Ding, F. Lipparini, F. Egidi, J. Goings, B. Peng, A. Petrone, 
 T. Henderson, D. Ranasinghe, V. G. Zakrzewski, J. Gao, N. Rega, 
 G. Zheng, W. Liang, M. Hada, M. Ehara, K. Toyota, R. Fukuda, 
 J. Hasegawa, M. Ishida, T. Nakajima, Y. Honda, O. Kitao, H. Nakai, 
 T. Vreven, K. Throssell, J. A. Montgomery, Jr., J. E. Peralta, 
 F. Ogliaro, M. J. Bearpark, J. J. Heyd, E. N. Brothers, K. N. Kudin, 
 V. N. Staroverov, T. A. Keith, R. Kobayashi, J. Normand, 
 K. Raghavachari, A. P. Rendell, J. C. Burant, S. S. Iyengar, 
 J. Tomasi, M. Cossi, J. M. Millam, M. Klene, C. Adamo, R. Cammi, 
 J. W. Ochterski, R. L. Martin, K. Morokuma, O. Farkas, 
 J. B. Foresman, and D. J. Fox, Gaussian, Inc., Wallingford CT, 2016.
 
 ******************************************
 Gaussian 16:  ES64L-G16RevA.03 25-Dec-2016
                26-Aug-2022 
 ******************************************
 %NProcShared=4
 Will use up to    4 processors via shared memory.
 %Mem=4GB
 %Chk=H2O_H2O_3191.chk
 ------------------
 #p CCSD(T)/cc-pVTZ
 ------------------
 1/38=1,172=1/1;
 2/12=2,17=6,18=5,40=1/2;
 3/5=16,6=1,11=9,25=1,30=1/1,2,3;
 4//1;
 5/5=2,38=5/2;
 8/6=4,9=120000,10=1/1,4;
 9/5=7,14=2/13;
 6/7=2,8=2,9=2,10=2/1;
 99/5=1,9=1/99;
 Leave Link    1 at Fri Aug 26 20:14:17 2022, MaxMem=   536870912 cpu:               0.3 elap:               0.1
 (Enter /usr/site/hpc/x86_64/glibc-2.17/broadwell/gaussian/g16_a.03/pgi-16.5/g16/l101.exe)
 ------------
 H2O_H2O_3191
 ------------
 Symbolic Z-matrix:
 Charge =  0 Multiplicity = 1
 O                     0.       -0.00983   0. 
 H                    -0.79957  -0.58097   0. 
 H                     0.79957  -0.58097   0. 
 O                    -0.00852   4.96961   0. 
 H                    -0.10335   5.94762   0. 
 H                    -0.90292   4.56273   0. 
 
 ITRead=  0  0  0  0  0  0
 MicOpt= -1 -1 -1 -1 -1 -1
 NAtoms=      6 NQM=        6 NQMF=       0 NMMI=      0 NMMIF=      0
                NMic=       0 NMicF=      0.
                    Isotopes and Nuclear Properties:
 (Nuclear quadrupole moments (NQMom) in fm**2, nuclear magnetic moments (NMagM)
  in nuclear magnetons)

  Atom         1           2           3           4           5           6
 IAtWgt=          16           1           1          16           1           1
 AtmWgt=  15.9949146   1.0078250   1.0078250  15.9949146   1.0078250   1.0078250
 NucSpn=           0           1           1           0           1           1
 AtZEff=  -0.0000000  -0.0000000  -0.0000000  -0.0000000  -0.0000000  -0.0000000
 NQMom=    0.0000000   0.0000000   0.0000000   0.0000000   0.0000000   0.0000000
 NMagM=    0.0000000   2.7928460   2.7928460   0.0000000   2.7928460   2.7928460
 AtZNuc=   8.0000000   1.0000000   1.0000000   8.0000000   1.0000000   1.0000000
 Leave Link  101 at Fri Aug 26 20:14:17 2022, MaxMem=   536870912 cpu:               0.4 elap:               0.1
 (Enter /usr/site/hpc/x86_64/glibc-2.17/broadwell/gaussian/g16_a.03/pgi-16.5/g16/l202.exe)
                          Input orientation:                          
 ---------------------------------------------------------------------
 Center     Atomic      Atomic             Coordinates (Angstroms)
 Number     Number       Type             X           Y           Z
 ---------------------------------------------------------------------
      1          8           0        0.000000   -0.009833    0.000000
      2          1           0       -0.799571   -0.580965    0.000000
      3          1           0        0.799571   -0.580965    0.000000
      4          8           0       -0.008516    4.969609    0.000000
      5          1           0       -0.103345    5.947624    0.000000
      6          1           0       -0.902916    4.562726    0.000000
 ---------------------------------------------------------------------
                    Distance matrix (angstroms):
                    1          2          3          4          5
     1  O    0.000000
     2  H    0.982601   0.000000
     3  H    0.982601   1.599142   0.000000
     4  O    4.979449   5.606660   5.609089   0.000000
     5  H    5.958353   6.565608   6.590731   0.982602   0.000000
     6  H    4.660853   5.144729   5.418120   0.982601   1.599142
                    6
     6  H    0.000000
 Stoichiometry    H4O2
 Framework group  CS[SG(H4O2)]
 Deg. of freedom     9
 Full point group                 CS      NOp   2
 Largest Abelian subgroup         CS      NOp   2
 Largest concise Abelian subgroup C1      NOp   1
                         Standard orientation:                         
 ---------------------------------------------------------------------
 Center     Atomic      Atomic             Coordinates (Angstroms)
 Number     Number       Type             X           Y           Z
 ---------------------------------------------------------------------
      1          8           0        0.049510   -2.461253    0.000000
      2          1           0       -0.751036   -3.031016    0.000000
      3          1           0        0.848103   -3.033751    0.000000
      4          8           0        0.049510    2.518197    0.000000
      5          1           0       -0.043646    3.496372    0.000000
      6          1           0       -0.845584    2.112844    0.000000
 ---------------------------------------------------------------------
 Rotational constants (GHZ):         245.8125120           2.1625884           2.1437285
 Leave Link  202 at Fri Aug 26 20:14:17 2022, MaxMem=   536870912 cpu:               0.1 elap:               0.0
 (Enter /usr/site/hpc/x86_64/glibc-2.17/broadwell/gaussian/g16_a.03/pgi-16.5/g16/l301.exe)
 Standard basis: CC-pVTZ (5D, 7F)
 Ernie: Thresh=  0.10000D-02 Tol=  0.10000D-05 Strict=F.
 Ernie:  6 primitive shells out of 84 were deleted.
 There are    92 symmetry adapted cartesian basis functions of A'  symmetry.
 There are    38 symmetry adapted cartesian basis functions of A"  symmetry.
 There are    80 symmetry adapted basis functions of A'  symmetry.
 There are    36 symmetry adapted basis functions of A"  symmetry.
   116 basis functions,   172 primitive gaussians,   130 cartesian basis functions
    10 alpha electrons       10 beta electrons
       nuclear repulsion energy        28.1867803258 Hartrees.
 IExCor=    0 DFT=F Ex=HF Corr=None ExCW=0 ScaHFX=  1.000000
 ScaDFX=  1.000000  1.000000  1.000000  1.000000 ScalE2=  1.000000  1.000000
 IRadAn=      5 IRanWt=     -1 IRanGd=            0 ICorTp=0 IEmpDi=  4
 NAtoms=    6 NActive=    6 NUniq=    6 SFac= 1.00D+00 NAtFMM=   60 NAOKFM=F Big=F
 Integral buffers will be    131072 words long.
 Raffenetti 1 integral format.
 Two-electron integral symmetry is turned on.
 Leave Link  301 at Fri Aug 26 20:14:17 2022, MaxMem=   536870912 cpu:               0.2 elap:               0.1
 (Enter /usr/site/hpc/x86_64/glibc-2.17/broadwell/gaussian/g16_a.03/pgi-16.5/g16/l302.exe)
 NPDir=0 NMtPBC=     1 NCelOv=     1 NCel=       1 NClECP=     1 NCelD=      1
         NCelK=      1 NCelE2=     1 NClLst=     1 CellRange=     0.0.
 One-electron integrals computed using PRISM.
 One-electron integral symmetry used in STVInt
 NBasis=   116 RedAO= T EigKep=  2.65D-03  NBF=    80    36
 NBsUse=   116 1.00D-06 EigRej= -1.00D+00 NBFU=    80    36
 Leave Link  302 at Fri Aug 26 20:14:17 2022, MaxMem=   536870912 cpu:               0.4 elap:               0.1
 (Enter /usr/site/hpc/x86_64/glibc-2.17/broadwell/gaussian/g16_a.03/pgi-16.5/g16/l303.exe)
 DipDrv:  MaxL=1.
 Leave Link  303 at Fri Aug 26 20:14:17 2022, MaxMem=   536870912 cpu:               0.1 elap:               0.0
 (Enter /usr/site/hpc/x86_64/glibc-2.17/broadwell/gaussian/g16_a.03/pgi-16.5/g16/l401.exe)
 ExpMin= 1.03D-01 ExpMax= 1.53D+04 ExpMxC= 5.22D+02 IAcc=3 IRadAn=         5 AccDes= 0.00D+00
 Harris functional with IExCor=  205 and IRadAn=       5 diagonalized for initial guess.
 HarFok:  IExCor=  205 AccDes= 0.00D+00 IRadAn=         5 IDoV= 1 UseB2=F ITyADJ=14
 ICtDFT=  3500011 ScaDFX=  1.000000  1.000000  1.000000  1.000000
 FoFCou: FMM=F IPFlag=           0 FMFlag=      100000 FMFlg1=           0
         NFxFlg=           0 DoJE=T BraDBF=F KetDBF=T FulRan=T
         wScrn=  0.000000 ICntrl=       500 IOpCl=  0 I1Cent=   200000004 NGrid=           0
         NMat0=    1 NMatS0=      1 NMatT0=    0 NMatD0=    1 NMtDS0=    0 NMtDT0=    0
 Petite list used in FoFCou.
 Harris En= -152.298687000523    
 JPrj=0 DoOrth=F DoCkMO=F.
 Initial guess orbital symmetries:
       Occupied  (A') (A') (A') (A') (A') (A') (A') (A') (A") (A")
       Virtual   (A') (A') (A') (A') (A') (A') (A') (A') (A') (A')
                 (A") (A") (A') (A') (A') (A') (A") (A") (A") (A")
                 (A') (A') (A') (A') (A') (A') (A') (A') (A") (A")
                 (A") (A") (A') (A') (A') (A') (A') (A') (A') (A')
                 (A') (A') (A") (A") (A') (A') (A") (A") (A") (A")
                 (A') (A') (A') (A') (A') (A') (A") (A") (A') (A')
                 (A') (A') (A") (A") (A") (A") (A') (A') (A') (A')
                 (A") (A") (A') (A') (A') (A') (A') (A') (A') (A')
                 (A") (A") (A') (A') (A") (A") (A") (A") (A') (A')
                 (A") (A") (A') (A') (A') (A') (A") (A") (A') (A')
                 (A') (A') (A') (A') (A') (A')
 The electronic state of the initial guess is 1-A'.
 Leave Link  401 at Fri Aug 26 20:14:18 2022, MaxMem=   536870912 cpu:               0.9 elap:               0.2
 (Enter /usr/site/hpc/x86_64/glibc-2.17/broadwell/gaussian/g16_a.03/pgi-16.5/g16/l502.exe)
 Keep R1 ints in memory in symmetry-blocked form, NReq=34823457.
 FoFCou: FMM=F IPFlag=           0 FMFlag=           0 FMFlg1=           0
         NFxFlg=           0 DoJE=F BraDBF=F KetDBF=F FulRan=T
         wScrn=  0.000000 ICntrl=       600 IOpCl=  0 I1Cent=           0 NGrid=           0
         NMat0=    1 NMatS0=   6786 NMatT0=    0 NMatD0=    1 NMtDS0=    0 NMtDT0=    0
 Petite list used in FoFCou.
 Closed shell SCF:
 Using DIIS extrapolation, IDIIS=  1040.
 NGot=   536870912 LenX=   525040673 LenY=   525023332
 Requested convergence on RMS density matrix=1.00D-08 within 128 cycles.
 Requested convergence on MAX density matrix=1.00D-06.
 Requested convergence on             energy=1.00D-06.
 No special actions if energy rises.

 Cycle   1  Pass 1  IDiag  1:
 E= -151.926114402009    
 DIIS: error= 6.60D-02 at cycle   1 NSaved=   1.
 NSaved= 1 IEnMin= 1 EnMin= -151.926114402009     IErMin= 1 ErrMin= 6.60D-02
 ErrMax= 6.60D-02  0.00D+00 EMaxC= 1.00D-01 BMatC= 4.01D-01 BMatP= 4.01D-01
 IDIUse=3 WtCom= 3.40D-01 WtEn= 6.60D-01
 Coeff-Com:  0.100D+01
 Coeff-En:   0.100D+01
 Coeff:      0.100D+01
 Gap=     0.516 Goal=   None    Shift=    0.000
 GapD=    0.516 DampG=2.000 DampE=0.500 DampFc=1.0000 IDamp=-1.
 RMSDP=2.52D-03 MaxDP=6.64D-02              OVMax= 1.27D-01

 Cycle   2  Pass 1  IDiag  1:
 E= -152.038066064266     Delta-E=       -0.111951662257 Rises=F Damp=F
 DIIS: error= 4.16D-02 at cycle   2 NSaved=   2.
 NSaved= 2 IEnMin= 2 EnMin= -152.038066064266     IErMin= 2 ErrMin= 4.16D-02
 ErrMax= 4.16D-02  0.00D+00 EMaxC= 1.00D-01 BMatC= 1.13D-01 BMatP= 4.01D-01
 IDIUse=3 WtCom= 5.84D-01 WtEn= 4.16D-01
 Coeff-Com:  0.320D+00 0.680D+00
 Coeff-En:   0.168D+00 0.832D+00
 Coeff:      0.257D+00 0.743D+00
 Gap=     0.656 Goal=   None    Shift=    0.000
 RMSDP=1.33D-03 MaxDP=3.96D-02 DE=-1.12D-01 OVMax= 5.74D-02

 Cycle   3  Pass 1  IDiag  1:
 E= -152.103275540101     Delta-E=       -0.065209475835 Rises=F Damp=F
 DIIS: error= 8.98D-03 at cycle   3 NSaved=   3.
 NSaved= 3 IEnMin= 3 EnMin= -152.103275540101     IErMin= 3 ErrMin= 8.98D-03
 ErrMax= 8.98D-03  0.00D+00 EMaxC= 1.00D-01 BMatC= 5.99D-03 BMatP= 1.13D-01
 IDIUse=3 WtCom= 9.10D-01 WtEn= 8.98D-02
 Coeff-Com: -0.305D-01 0.155D+00 0.875D+00
 Coeff-En:   0.000D+00 0.000D+00 0.100D+01
 Coeff:     -0.278D-01 0.141D+00 0.887D+00
 Gap=     0.629 Goal=   None    Shift=    0.000
 RMSDP=2.45D-04 MaxDP=5.69D-03 DE=-6.52D-02 OVMax= 1.34D-02

 Cycle   4  Pass 1  IDiag  1:
 E= -152.107016145673     Delta-E=       -0.003740605573 Rises=F Damp=F
 DIIS: error= 8.61D-04 at cycle   4 NSaved=   4.
 NSaved= 4 IEnMin= 4 EnMin= -152.107016145673     IErMin= 4 ErrMin= 8.61D-04
 ErrMax= 8.61D-04  0.00D+00 EMaxC= 1.00D-01 BMatC= 3.79D-05 BMatP= 5.99D-03
 IDIUse=3 WtCom= 9.91D-01 WtEn= 8.61D-03
 Coeff-Com:  0.679D-02-0.612D-01-0.239D+00 0.129D+01
 Coeff-En:   0.000D+00 0.000D+00 0.000D+00 0.100D+01
 Coeff:      0.674D-02-0.606D-01-0.237D+00 0.129D+01
 Gap=     0.631 Goal=   None    Shift=    0.000
 RMSDP=5.19D-05 MaxDP=1.04D-03 DE=-3.74D-03 OVMax= 2.25D-03

 Cycle   5  Pass 1  IDiag  1:
 E= -152.107067027136     Delta-E=       -0.000050881462 Rises=F Damp=F
 DIIS: error= 1.95D-04 at cycle   5 NSaved=   5.
 NSaved= 5 IEnMin= 5 EnMin= -152.107067027136     IErMin= 5 ErrMin= 1.95D-04
 ErrMax= 1.95D-04  0.00D+00 EMaxC= 1.00D-01 BMatC= 1.37D-06 BMatP= 3.79D-05
 IDIUse=3 WtCom= 9.98D-01 WtEn= 1.95D-03
 Coeff-Com:  0.565D-03 0.281D-03-0.361D-02-0.217D+00 0.122D+01
 Coeff-En:   0.000D+00 0.000D+00 0.000D+00 0.000D+00 0.100D+01
 Coeff:      0.564D-03 0.280D-03-0.360D-02-0.216D+00 0.122D+01
 Gap=     0.632 Goal=   None    Shift=    0.000
 RMSDP=1.41D-05 MaxDP=2.89D-04 DE=-5.09D-05 OVMax= 6.90D-04

 Cycle   6  Pass 1  IDiag  1:
 E= -152.107069882163     Delta-E=       -0.000002855027 Rises=F Damp=F
 DIIS: error= 2.88D-05 at cycle   6 NSaved=   6.
 NSaved= 6 IEnMin= 6 EnMin= -152.107069882163     IErMin= 6 ErrMin= 2.88D-05
 ErrMax= 2.88D-05  0.00D+00 EMaxC= 1.00D-01 BMatC= 3.46D-08 BMatP= 1.37D-06
 IDIUse=1 WtCom= 1.00D+00 WtEn= 0.00D+00
 Coeff-Com: -0.278D-03 0.161D-02 0.692D-02 0.587D-03-0.261D+00 0.125D+01
 Coeff:     -0.278D-03 0.161D-02 0.692D-02 0.587D-03-0.261D+00 0.125D+01
 Gap=     0.632 Goal=   None    Shift=    0.000
 RMSDP=3.02D-06 MaxDP=6.59D-05 DE=-2.86D-06 OVMax= 1.54D-04

 Cycle   7  Pass 1  IDiag  1:
 E= -152.107069980188     Delta-E=       -0.000000098025 Rises=F Damp=F
 DIIS: error= 5.40D-06 at cycle   7 NSaved=   7.
 NSaved= 7 IEnMin= 7 EnMin= -152.107069980188     IErMin= 7 ErrMin= 5.40D-06
 ErrMax= 5.40D-06  0.00D+00 EMaxC= 1.00D-01 BMatC= 1.80D-09 BMatP= 3.46D-08
 IDIUse=1 WtCom= 1.00D+00 WtEn= 0.00D+00
 Coeff-Com:  0.309D-04-0.396D-03-0.159D-02 0.139D-01-0.135D-01-0.225D+00
 Coeff-Com:  0.123D+01
 Coeff:      0.309D-04-0.396D-03-0.159D-02 0.139D-01-0.135D-01-0.225D+00
 Coeff:      0.123D+01
 Gap=     0.632 Goal=   None    Shift=    0.000
 RMSDP=4.42D-07 MaxDP=9.49D-06 DE=-9.80D-08 OVMax= 2.97D-05

 Cycle   8  Pass 1  IDiag  1:
 E= -152.107069984009     Delta-E=       -0.000000003821 Rises=F Damp=F
 DIIS: error= 1.62D-06 at cycle   8 NSaved=   8.
 NSaved= 8 IEnMin= 8 EnMin= -152.107069984009     IErMin= 8 ErrMin= 1.62D-06
 ErrMax= 1.62D-06  0.00D+00 EMaxC= 1.00D-01 BMatC= 9.68D-11 BMatP= 1.80D-09
 IDIUse=1 WtCom= 1.00D+00 WtEn= 0.00D+00
 Coeff-Com:  0.479D-05 0.446D-04 0.192D-03-0.507D-02 0.198D-01 0.764D-02
 Coeff-Com: -0.395D+00 0.137D+01
 Coeff:      0.479D-05 0.446D-04 0.192D-03-0.507D-02 0.198D-01 0.764D-02
 Coeff:     -0.395D+00 0.137D+01
 Gap=     0.632 Goal=   None    Shift=    0.000
 RMSDP=1.14D-07 MaxDP=2.44D-06 DE=-3.82D-09 OVMax= 6.63D-06

 Cycle   9  Pass 1  IDiag  1:
 E= -152.107069984231     Delta-E=       -0.000000000222 Rises=F Damp=F
 DIIS: error= 2.28D-07 at cycle   9 NSaved=   9.
 NSaved= 9 IEnMin= 9 EnMin= -152.107069984231     IErMin= 9 ErrMin= 2.28D-07
 ErrMax= 2.28D-07  0.00D+00 EMaxC= 1.00D-01 BMatC= 4.26D-12 BMatP= 9.68D-11
 IDIUse=1 WtCom= 1.00D+00 WtEn= 0.00D+00
 Coeff-Com:  0.174D-06 0.192D-04 0.774D-04-0.137D-02 0.470D-02 0.500D-02
 Coeff-Com: -0.980D-01 0.231D+00 0.859D+00
 Coeff:      0.174D-06 0.192D-04 0.774D-04-0.137D-02 0.470D-02 0.500D-02
 Coeff:     -0.980D-01 0.231D+00 0.859D+00
 Gap=     0.632 Goal=   None    Shift=    0.000
 RMSDP=1.28D-08 MaxDP=3.47D-07 DE=-2.22D-10 OVMax= 8.54D-07

 Cycle  10  Pass 1  IDiag  1:
 E= -152.107069984236     Delta-E=       -0.000000000005 Rises=F Damp=F
 DIIS: error= 8.30D-08 at cycle  10 NSaved=  10.
 NSaved=10 IEnMin=10 EnMin= -152.107069984236     IErMin=10 ErrMin= 8.30D-08
 ErrMax= 8.30D-08  0.00D+00 EMaxC= 1.00D-01 BMatC= 6.11D-13 BMatP= 4.26D-12
 IDIUse=1 WtCom= 1.00D+00 WtEn= 0.00D+00
 Coeff-Com: -0.616D-06-0.393D-05-0.191D-04 0.533D-03-0.197D-02-0.164D-02
 Coeff-Com:  0.490D-01-0.184D+00 0.129D+00 0.101D+01
 Coeff:     -0.616D-06-0.393D-05-0.191D-04 0.533D-03-0.197D-02-0.164D-02
 Coeff:      0.490D-01-0.184D+00 0.129D+00 0.101D+01
 Gap=     0.632 Goal=   None    Shift=    0.000
 RMSDP=5.98D-09 MaxDP=1.94D-07 DE=-5.34D-12 OVMax= 3.85D-07

 SCF Done:  E(RHF) =  -152.107069984     A.U. after   10 cycles
            NFock= 10  Conv=0.60D-08     -V/T= 2.0020
 KE= 1.518048377019D+02 PE=-4.178799753171D+02 EE= 8.578128730521D+01
 Leave Link  502 at Fri Aug 26 20:14:19 2022, MaxMem=   536870912 cpu:               4.7 elap:               1.3
 (Enter /usr/site/hpc/x86_64/glibc-2.17/broadwell/gaussian/g16_a.03/pgi-16.5/g16/l801.exe)
 Windowed orbitals will be sorted by symmetry type.
 ExpMin= 1.03D-01 ExpMax= 1.53D+04 ExpMxC= 5.22D+02 IAcc=3 IRadAn=         5 AccDes= 0.00D+00
 HarFok:  IExCor=  205 AccDes= 0.00D+00 IRadAn=         5 IDoV=-2 UseB2=F ITyADJ=14
 ICtDFT= 12500011 ScaDFX=  1.000000  1.000000  1.000000  1.000000
 Largest valence mixing into a core orbital is  1.12D-04
 Largest core mixing into a valence orbital is  1.77D-05
 Range of M.O.s used for correlation:     3   116
 NBasis=   116 NAE=    10 NBE=    10 NFC=     2 NFV=     0
 NROrb=    114 NOA=     8 NOB=     8 NVA=   106 NVB=   106
 Leave Link  801 at Fri Aug 26 20:14:19 2022, MaxMem=   536870912 cpu:               0.4 elap:               0.1
 (Enter /usr/site/hpc/x86_64/glibc-2.17/broadwell/gaussian/g16_a.03/pgi-16.5/g16/l804.exe)
 Closed-shell transformation, MDV=   536870912 ITran=4 ISComp=2.
 Unit  1 TFree=        834515 TCopy=        406125.
 Semi-Direct transformation.
 ModeAB=           4 MOrb=             8 LenV=     536376680
 LASXX=      2873146 LTotXX=     2873146 LenRXX=     5831278
 LTotAB=     2958132 MaxLAS=     5515776 LenRXY=           0
 NonZer=     8704424 LenScr=    13107200 LnRSAI=     5515776
 LnScr1=     8388608 LExtra=           0 Total=     32842862
 MaxDsk=          -1 SrtSym=           T ITran=            4
 DoSDTr:  NPSUse=  4
 JobTyp=0 Pass  1:  I=   1 to   8.
 (rs|ai) integrals will be sorted in core.
 Complete sort for first half transformation.
 First half transformation complete.
 Complete sort for second half transformation.
 Second half transformation complete.
 Spin components of T(2) and E(2):
     alpha-alpha T2 =       0.1556633359D-01 E2=     -0.6380836502D-01
     alpha-beta  T2 =       0.9194479831D-01 E2=     -0.3983434971D+00
     beta-beta   T2 =       0.1556633359D-01 E2=     -0.6380836502D-01
 ANorm=    0.1059753493D+01
 E2 =    -0.5259602271D+00 EUMP2 =    -0.15263303021137D+03
 Leave Link  804 at Fri Aug 26 20:14:20 2022, MaxMem=   536870912 cpu:               4.1 elap:               1.1
 (Enter /usr/site/hpc/x86_64/glibc-2.17/broadwell/gaussian/g16_a.03/pgi-16.5/g16/l913.exe)
 CIDS:  MDV=   536870912.
 Frozen-core window:  NFC=   2 NFV=   0.
 IFCWin=0 IBDFC=1 NFBD=     0     0 NFCmp=     0     0 NFFFC=     0     0
 Using DD3R+UMP44R for 1st iteration.
 Using DD4RQ for 2nd and later iterations.
 Keep R2 and R3 ints in memory in symmetry-blocked form, NReq=35357534.
 FoFCou: FMM=F IPFlag=           0 FMFlag=           0 FMFlg1=           0
         NFxFlg=           0 DoJE=F BraDBF=F KetDBF=F FulRan=T
         wScrn=  0.000000 ICntrl=       600 IOpCl=  0 I1Cent=           0 NGrid=           0
         NMat0=    1 NMatS0=   6786 NMatT0=    0 NMatD0=    1 NMtDS0=    0 NMtDT0=    0
 Petite list used in FoFCou.
 CIDS: In Core Option IDoMem=           1.
 CCSD(T)
 =======
 Iterations=  50 Convergence= 0.100D-06
 Produce multiple copies of IABC intergrals
 Iteration Nr.   1
 **********************
 DD1Dir will call FoFMem   1 times, MxPair=        72
 NAB=    36 NAA=     0 NBB=     0.
 MP4(R+Q)=  0.75589178D-02
 Maximum subspace dimension=  5
 A-vector RMS=  1.7446327D-03 Max=  6.2076329D-03 conv= 1.00D-05.
 RLE energy=       -0.5258922832
 E3=       -0.75623328D-02        EUMP3=      -0.15264059254D+03
 E4(DQ)=   -0.15524058D-02        UMP4(DQ)=   -0.15264214495D+03
 E4(SDQ)=  -0.46124337D-02        UMP4(SDQ)=  -0.15264520498D+03
 VARIATIONAL ENERGIES WITH THE FIRST-ORDER WAVEFUNCTION:
 DE(Corr)= -0.52589228     E(Corr)=     -152.63296227    
 NORM(A)=   0.10601199D+01
 Iteration Nr.   2
 **********************
 DD1Dir will call FoFMem   1 times, MxPair=        72
 NAB=    36 NAA=     0 NBB=     0.
 A-vector RMS=  2.1222108D-04 Max=  2.3193943D-03 conv= 1.00D-05.
 RLE energy=       -0.5369615388
 DE(Corr)= -0.53580160     E(CORR)=     -152.64287159     Delta=-9.91D-03
 NORM(A)=   0.10638726D+01
 Iteration Nr.   3
 **********************
 DD1Dir will call FoFMem   1 times, MxPair=        72
 NAB=    36 NAA=     0 NBB=     0.
 A-vector RMS=  1.4171361D-04 Max=  8.2887135D-04 conv= 1.00D-05.
 RLE energy=       -0.5374578125
 DE(Corr)= -0.53687122     E(CORR)=     -152.64394120     Delta=-1.07D-03
 NORM(A)=   0.10645117D+01
 Iteration Nr.   4
 **********************
 DD1Dir will call FoFMem   1 times, MxPair=        72
 NAB=    36 NAA=     0 NBB=     0.
 A-vector RMS=  2.6098616D-05 Max=  1.4070054D-04 conv= 1.00D-05.
 RLE energy=       -0.5375409585
 DE(Corr)= -0.53750563     E(CORR)=     -152.64457562     Delta=-6.34D-04
 NORM(A)=   0.10646228D+01
 Iteration Nr.   5
 **********************
 DD1Dir will call FoFMem   1 times, MxPair=        72
 NAB=    36 NAA=     0 NBB=     0.
 A-vector RMS=  1.8863707D-05 Max=  1.5415431D-04 conv= 1.00D-05.
 RLE energy=       -0.5375494774
 DE(Corr)= -0.53754266     E(CORR)=     -152.64461264     Delta=-3.70D-05
 NORM(A)=   0.10646325D+01
 Iteration Nr.   6
 **********************
 DD1Dir will call FoFMem   1 times, MxPair=        72
 NAB=    36 NAA=     0 NBB=     0.
 A-vector RMS=  5.5872966D-06 Max=  4.2077810D-05 conv= 1.00D-05.
 RLE energy=       -0.5375402591
 DE(Corr)= -0.53754585     E(CORR)=     -152.64461584     Delta=-3.20D-06
 NORM(A)=   0.10646326D+01
 Iteration Nr.   7
 **********************
 DD1Dir will call FoFMem   1 times, MxPair=        72
 NAB=    36 NAA=     0 NBB=     0.
 A-vector RMS=  2.6720497D-06 Max=  2.2314711D-05 conv= 1.00D-05.
 RLE energy=       -0.5375469754
 DE(Corr)= -0.53754600     E(CORR)=     -152.64461598     Delta=-1.44D-07
 NORM(A)=   0.10646350D+01
 Iteration Nr.   8
 **********************
 DD1Dir will call FoFMem   1 times, MxPair=        72
 NAB=    36 NAA=     0 NBB=     0.
 A-vector RMS=  5.5975895D-07 Max=  4.9319297D-06 conv= 1.00D-05.
 RLE energy=       -0.5375453907
 DE(Corr)= -0.53754556     E(CORR)=     -152.64461554     Delta= 4.39D-07
 NORM(A)=   0.10646351D+01
 Iteration Nr.   9
 **********************
 DD1Dir will call FoFMem   1 times, MxPair=        72
 NAB=    36 NAA=     0 NBB=     0.
 A-vector RMS=  1.4114965D-07 Max=  1.1127358D-06 conv= 1.00D-05.
 RLE energy=       -0.5375458175
 DE(Corr)= -0.53754583     E(CORR)=     -152.64461582     Delta=-2.75D-07
 NORM(A)=   0.10646353D+01
 Iteration Nr.  10
 **********************
 DD1Dir will call FoFMem   1 times, MxPair=        72
 NAB=    36 NAA=     0 NBB=     0.
 A-vector RMS=  5.3242638D-08 Max=  4.7458265D-07 conv= 1.00D-05.
 RLE energy=       -0.5375458544
 DE(Corr)= -0.53754582     E(CORR)=     -152.64461581     Delta= 1.03D-08
 NORM(A)=   0.10646354D+01
 CI/CC converged in   10 iterations to DelEn= 1.03D-08 Conv= 1.00D-07 ErrA1= 5.32D-08 Conv= 1.00D-05
 Wavefunction amplitudes converged. E(Corr)=     -152.64461581    
 Largest amplitude= 4.79D-02
 IPart=  2 IA=    7   11.05% done.
 IPart=  2 IA=   13   21.46% done.
 IPart=  2 IA=   19   31.21% done.
 IPart=  2 IA=   25   40.32% done.
 IPart=  2 IA=   32   50.13% done.
 IPart=  2 IA=   40   60.27% done.
 IPart=  3 IA=   49   70.30% done.
 IPart=  1 IA=   60   80.58% done.
 IPart=  3 IA=   74   90.51% done.
 Time for triples=       66.64 seconds.
 T4(CCSD)= -0.16041594D-01
 T5(CCSD)=  0.40423940D-03
 CCSD(T)= -0.15266025316D+03
 Discarding MO integrals.
 Leave Link  913 at Fri Aug 26 20:14:45 2022, MaxMem=   536870912 cpu:              97.1 elap:              24.5
 (Enter /usr/site/hpc/x86_64/glibc-2.17/broadwell/gaussian/g16_a.03/pgi-16.5/g16/l601.exe)
 Copying SCF densities to generalized density rwf, IOpCl= 0 IROHF=0.

 **********************************************************************

            Population analysis using the SCF density.

 **********************************************************************

 Orbital symmetries:
       Occupied  (A') (A') (A') (A') (A') (A') (A') (A') (A") (A")
       Virtual   (A') (A') (A') (A') (A') (A') (A') (A') (A') (A')
                 (A") (A") (A') (A') (A') (A') (A") (A") (A") (A")
                 (A') (A') (A') (A') (A') (A') (A') (A') (A") (A")
                 (A") (A") (A') (A') (A') (A') (A') (A') (A') (A')
                 (A') (A') (A") (A") (A') (A') (A") (A") (A') (A')
                 (A") (A") (A') (A') (A') (A') (A") (A") (A") (A")
                 (A') (A') (A') (A') (A") (A") (A') (A') (A') (A')
                 (A") (A") (A') (A') (A') (A') (A') (A') (A') (A')
                 (A") (A") (A') (A') (A") (A") (A") (A") (A') (A')
                 (A") (A") (A') (A') (A') (A') (A") (A") (A') (A')
                 (A') (A') (A') (A') (A') (A')
 The electronic state is 1-A'.
 Alpha  occ. eigenvalues --  -20.55414 -20.54864  -1.32710  -1.32157  -0.70118
 Alpha  occ. eigenvalues --   -0.69551  -0.56139  -0.55587  -0.49818  -0.49269
 Alpha virt. eigenvalues --    0.13931   0.15010   0.20233   0.20976   0.54360
 Alpha virt. eigenvalues --    0.54978   0.57338   0.57841   0.67185   0.69837
 Alpha virt. eigenvalues --    0.79063   0.79599   0.80395   0.80970   0.82777
 Alpha virt. eigenvalues --    0.83156   0.84913   0.85457   0.97375   0.97905
 Alpha virt. eigenvalues --    1.14689   1.15756   1.17271   1.17835   1.51763
 Alpha virt. eigenvalues --    1.52054   1.52358   1.52692   2.00803   2.01349
 Alpha virt. eigenvalues --    2.06860   2.07420   2.09504   2.10166   2.14996
 Alpha virt. eigenvalues --    2.15551   2.24566   2.26518   2.61604   2.62210
 Alpha virt. eigenvalues --    2.92954   2.93649   3.39467   3.40025   3.50022
 Alpha virt. eigenvalues --    3.50581   3.53213   3.53762   3.59591   3.60164
 Alpha virt. eigenvalues --    3.78770   3.79319   3.85529   3.86100   3.87738
 Alpha virt. eigenvalues --    3.88272   3.93668   3.94226   4.03128   4.03674
 Alpha virt. eigenvalues --    4.08284   4.08863   4.15338   4.15970   4.30213
 Alpha virt. eigenvalues --    4.30762   4.40045   4.40592   4.45657   4.46220
 Alpha virt. eigenvalues --    4.66622   4.67169   4.80956   4.81569   5.04241
 Alpha virt. eigenvalues --    5.04970   5.24186   5.24767   5.54154   5.54716
 Alpha virt. eigenvalues --    5.98035   5.98585   6.40491   6.41039   6.86283
 Alpha virt. eigenvalues --    6.86839   6.89760   6.90314   6.94690   6.95247
 Alpha virt. eigenvalues --    6.99236   6.99788   7.07996   7.08554   7.12658
 Alpha virt. eigenvalues --    7.13203   7.18404   7.18960   7.47290   7.47892
 Alpha virt. eigenvalues --    7.70434   7.70996   8.15164   8.15735  12.49417
 Alpha virt. eigenvalues --   12.49936
          Condensed to atoms (all electrons):
               1          2          3          4          5          6
     1  O    7.815671   0.344055   0.346931  -0.000000  -0.000001   0.000083
     2  H    0.344055   0.441271  -0.036548   0.000000   0.000000  -0.000005
     3  H    0.346931  -0.036548   0.434009   0.000001   0.000000  -0.000003
     4  O   -0.000000   0.000000   0.000001   7.816118   0.343458   0.346729
     5  H   -0.000001   0.000000   0.000000   0.343458   0.443790  -0.036715
     6  H    0.000083  -0.000005  -0.000003   0.346729  -0.036715   0.433174
 Mulliken charges:
               1
     1  O   -0.506738
     2  H    0.251226
     3  H    0.255611
     4  O   -0.506305
     5  H    0.249468
     6  H    0.256738
 Sum of Mulliken charges =   0.00000
 Mulliken charges with hydrogens summed into heavy atoms:
               1
     1  O    0.000099
     4  O   -0.000099
 Electronic spatial extent (au):  <R**2>=            501.4164
 Charge=             -0.0000 electrons
 Dipole moment (field-independent basis, Debye):
    X=             -1.6924    Y=             -1.0079    Z=              0.0000  Tot=              1.9698
 Quadrupole moment (field-independent basis, Debye-Ang):
   XX=             -9.3462   YY=              4.3680   ZZ=            -14.7118
   XY=             -3.5848   XZ=              0.0000   YZ=              0.0000
 Traceless Quadrupole moment (field-independent basis, Debye-Ang):
   XX=             -2.7829   YY=             10.9313   ZZ=             -8.1485
   XY=             -3.5848   XZ=              0.0000   YZ=              0.0000
 Octapole moment (field-independent basis, Debye-Ang**2):
  XXX=             -1.4201  YYY=             -6.1256  ZZZ=              0.0000  XYY=             -6.4189
  XXY=             -6.0825  XXZ=              0.0000  XZZ=             -0.2199  YZZ=             -0.1394
  YYZ=              0.0000  XYZ=              0.0000
 Hexadecapole moment (field-independent basis, Debye-Ang**3):
 XXXX=            -11.3763 YYYY=           -208.0253 ZZZZ=            -11.3356 XXXY=             -0.5023
 XXXZ=              0.0000 YYYX=            -12.9699 YYYZ=              0.0000 ZZZX=              0.0000
 ZZZY=              0.0000 XXYY=            -61.3080 XXZZ=             -4.4308 YYZZ=            -99.9556
 XXYZ=              0.0000 YYXZ=              0.0000 ZZXY=              1.1702
 N-N= 2.818678032575D+01 E-N=-4.178799743865D+02  KE= 1.518048377019D+02
 Symmetry A'   KE= 1.427673240874D+02
 Symmetry A"   KE= 9.037513614453D+00
 Leave Link  601 at Fri Aug 26 20:14:45 2022, MaxMem=   536870912 cpu:               0.2 elap:               0.1
 (Enter /usr/site/hpc/x86_64/glibc-2.17/broadwell/gaussian/g16_a.03/pgi-16.5/g16/l9999.exe)
 1\1\GINC-N050\SP\RCCSD(T)-FC\CC-pVTZ\H4O2\C7441284\26-Aug-2022\0\\#p C
 CSD(T)/cc-pVTZ\\H2O_H2O_3191\\0,1\O,0,0.,-0.009833,0.\H,0,-0.799571,-0
 .580965,0.\H,0,0.799571,-0.580965,0.\O,0,-0.008516,4.969609,0.\H,0,-0.
 103345,5.947624,0.\H,0,-0.902916,4.562726,0.\\Version=ES64L-G16RevA.03
 \State=1-A'\HF=-152.10707\MP2=-152.6330302\MP3=-152.6405925\MP4D=-152.
 6497039\MP4DQ=-152.6421449\MP4SDQ=-152.645205\CCSD=-152.6446158\CCSD(T
 )=-152.6602532\RMSD=5.978e-09\PG=CS [SG(H4O2)]\\@


 E PUR SI MUOVE    -- GALILEO GALILEI
 Job cpu time:       0 days  0 hours  1 minutes 49.2 seconds.
 Elapsed time:       0 days  0 hours  0 minutes 27.8 seconds.
 File lengths (MBytes):  RWF=    320 Int=      0 D2E=      0 Chk=      8 Scr=      8
 Normal termination of Gaussian 16 at Fri Aug 26 20:14:45 2022.
