 Entering Gaussian System, Link 0=g16
 Input=H2O_H2O_3314.com
 Output=H2O_H2O_3314.log
 Initial command:
 /usr/site/hpc/x86_64/glibc-2.17/broadwell/gaussian/g16_a.03/pgi-16.5/g16/l1.exe "/gpfs/gpfs1/scratch/c7441284/ForceFieldModel/FittingData/Gau-3803986.inp" -scrdir="/gpfs/gpfs1/scratch/c7441284/ForceFieldModel/FittingData/"
 Entering Link 1 = /usr/site/hpc/x86_64/glibc-2.17/broadwell/gaussian/g16_a.03/pgi-16.5/g16/l1.exe PID=   3803988.
  
 Copyright (c) 1988,1990,1992,1993,1995,1998,2003,2009,2016,
            Gaussian, Inc.  All Rights Reserved.
  
 This is part of the Gaussian(R) 16 program.  It is based on
 the Gaussian(R) 09 system (copyright 2009, Gaussian, Inc.),
 the Gaussian(R) 03 system (copyright 2003, Gaussian, Inc.),
 the Gaussian(R) 98 system (copyright 1998, Gaussian, Inc.),
 the Gaussian(R) 94 system (copyright 1995, Gaussian, Inc.),
 the Gaussian 92(TM) system (copyright 1992, Gaussian, Inc.),
 the Gaussian 90(TM) system (copyright 1990, Gaussian, Inc.),
 the Gaussian 88(TM) system (copyright 1988, Gaussian, Inc.),
 the Gaussian 86(TM) system (copyright 1986, Carnegie Mellon
 University), and the Gaussian 82(TM) system (copyright 1983,
 Carnegie Mellon University). Gaussian is a federally registered
 trademark of Gaussian, Inc.
  
 This software contains proprietary and confidential information,
 including trade secrets, belonging to Gaussian, Inc.
  
 This software is provided under written license and may be
 used, copied, transmitted, or stored only in accord with that
 written license.
  
 The following legend is applicable only to US Government
 contracts under FAR:
  
                    RESTRICTED RIGHTS LEGEND
  
 Use, reproduction and disclosure by the US Government is
 subject to restrictions as set forth in subparagraphs (a)
 and (c) of the Commercial Computer Software - Restricted
 Rights clause in FAR 52.227-19.
  
 Gaussian, Inc.
 340 Quinnipiac St., Bldg. 40, Wallingford CT 06492
  
  
 ---------------------------------------------------------------
 Warning -- This program may not be used in any manner that
 competes with the business of Gaussian, Inc. or will provide
 assistance to any competitor of Gaussian, Inc.  The licensee
 of this program is prohibited from giving any competitor of
 Gaussian, Inc. access to this program.  By using this program,
 the user acknowledges that Gaussian, Inc. is engaged in the
 business of creating and licensing software in the field of
 computational chemistry and represents and warrants to the
 licensee that it is not a competitor of Gaussian, Inc. and that
 it will not use this program in any manner prohibited above.
 ---------------------------------------------------------------
  

 Cite this work as:
 Gaussian 16, Revision A.03,
 M. J. Frisch, G. W. Trucks, H. B. Schlegel, G. E. Scuseria, 
 M. A. Robb, J. R. Cheeseman, G. Scalmani, V. Barone, 
 G. A. Petersson, H. Nakatsuji, X. Li, M. Caricato, A. V. Marenich, 
 J. Bloino, B. G. Janesko, R. Gomperts, B. Mennucci, H. P. Hratchian, 
 J. V. Ortiz, A. F. Izmaylov, J. L. Sonnenberg, D. Williams-Young, 
 F. Ding, F. Lipparini, F. Egidi, J. Goings, B. Peng, A. Petrone, 
 T. Henderson, D. Ranasinghe, V. G. Zakrzewski, J. Gao, N. Rega, 
 G. Zheng, W. Liang, M. Hada, M. Ehara, K. Toyota, R. Fukuda, 
 J. Hasegawa, M. Ishida, T. Nakajima, Y. Honda, O. Kitao, H. Nakai, 
 T. Vreven, K. Throssell, J. A. Montgomery, Jr., J. E. Peralta, 
 F. Ogliaro, M. J. Bearpark, J. J. Heyd, E. N. Brothers, K. N. Kudin, 
 V. N. Staroverov, T. A. Keith, R. Kobayashi, J. Normand, 
 K. Raghavachari, A. P. Rendell, J. C. Burant, S. S. Iyengar, 
 J. Tomasi, M. Cossi, J. M. Millam, M. Klene, C. Adamo, R. Cammi, 
 J. W. Ochterski, R. L. Martin, K. Morokuma, O. Farkas, 
 J. B. Foresman, and D. J. Fox, Gaussian, Inc., Wallingford CT, 2016.
 
 ******************************************
 Gaussian 16:  ES64L-G16RevA.03 25-Dec-2016
                26-Aug-2022 
 ******************************************
 %NProcShared=4
 Will use up to    4 processors via shared memory.
 %Mem=4GB
 %Chk=H2O_H2O_3314.chk
 ------------------
 #p CCSD(T)/cc-pVTZ
 ------------------
 1/38=1,172=1/1;
 2/12=2,17=6,18=5,40=1/2;
 3/5=16,6=1,11=9,25=1,30=1/1,2,3;
 4//1;
 5/5=2,38=5/2;
 8/6=4,9=120000,10=1/1,4;
 9/5=7,14=2/13;
 6/7=2,8=2,9=2,10=2/1;
 99/5=1,9=1/99;
 Leave Link    1 at Fri Aug 26 21:17:09 2022, MaxMem=   536870912 cpu:               0.3 elap:               0.1
 (Enter /usr/site/hpc/x86_64/glibc-2.17/broadwell/gaussian/g16_a.03/pgi-16.5/g16/l101.exe)
 ------------
 H2O_H2O_3314
 ------------
 Symbolic Z-matrix:
 Charge =  0 Multiplicity = 1
 O                     0.       -0.00983   0. 
 H                    -0.79957  -0.58097   0. 
 H                     0.79957  -0.58097   0. 
 O                    -0.0078    5.10364   0. 
 H                     0.02584   6.08566   0. 
 H                    -0.94766   4.81698   0. 
 
 ITRead=  0  0  0  0  0  0
 MicOpt= -1 -1 -1 -1 -1 -1
 NAtoms=      6 NQM=        6 NQMF=       0 NMMI=      0 NMMIF=      0
                NMic=       0 NMicF=      0.
                    Isotopes and Nuclear Properties:
 (Nuclear quadrupole moments (NQMom) in fm**2, nuclear magnetic moments (NMagM)
  in nuclear magnetons)

  Atom         1           2           3           4           5           6
 IAtWgt=          16           1           1          16           1           1
 AtmWgt=  15.9949146   1.0078250   1.0078250  15.9949146   1.0078250   1.0078250
 NucSpn=           0           1           1           0           1           1
 AtZEff=  -0.0000000  -0.0000000  -0.0000000  -0.0000000  -0.0000000  -0.0000000
 NQMom=    0.0000000   0.0000000   0.0000000   0.0000000   0.0000000   0.0000000
 NMagM=    0.0000000   2.7928460   2.7928460   0.0000000   2.7928460   2.7928460
 AtZNuc=   8.0000000   1.0000000   1.0000000   8.0000000   1.0000000   1.0000000
 Leave Link  101 at Fri Aug 26 21:17:09 2022, MaxMem=   536870912 cpu:               0.4 elap:               0.1
 (Enter /usr/site/hpc/x86_64/glibc-2.17/broadwell/gaussian/g16_a.03/pgi-16.5/g16/l202.exe)
                          Input orientation:                          
 ---------------------------------------------------------------------
 Center     Atomic      Atomic             Coordinates (Angstroms)
 Number     Number       Type             X           Y           Z
 ---------------------------------------------------------------------
      1          8           0        0.000000   -0.009833    0.000000
      2          1           0       -0.799571   -0.580965    0.000000
      3          1           0        0.799571   -0.580965    0.000000
      4          8           0       -0.007801    5.103638    0.000000
      5          1           0        0.025838    6.085663    0.000000
      6          1           0       -0.947659    4.816978    0.000000
 ---------------------------------------------------------------------
                    Distance matrix (angstroms):
                    1          2          3          4          5
     1  O    0.000000
     2  H    0.982601   0.000000
     3  H    0.982601   1.599142   0.000000
     4  O    5.113477   5.739478   5.741651   0.000000
     5  H    6.095551   6.717531   6.711378   0.982601   0.000000
     6  H    4.918959   5.399974   5.673676   0.982602   1.599143
                    6
     6  H    0.000000
 Stoichiometry    H4O2
 Framework group  CS[SG(H4O2)]
 Deg. of freedom     9
 Full point group                 CS      NOp   2
 Largest Abelian subgroup         CS      NOp   2
 Largest concise Abelian subgroup C1      NOp   1
                         Standard orientation:                         
 ---------------------------------------------------------------------
 Center     Atomic      Atomic             Coordinates (Angstroms)
 Number     Number       Type             X           Y           Z
 ---------------------------------------------------------------------
      1          8           0        0.045345   -2.534463    0.000000
      2          1           0       -0.755096   -3.104374    0.000000
      3          1           0        0.844044   -3.106814    0.000000
      4          8           0        0.045345    2.579014    0.000000
      5          1           0        0.080482    3.560987    0.000000
      6          1           0       -0.894949    2.293788    0.000000
 ---------------------------------------------------------------------
 Rotational constants (GHZ):         236.0683655           2.0488319           2.0312032
 Leave Link  202 at Fri Aug 26 21:17:09 2022, MaxMem=   536870912 cpu:               0.1 elap:               0.0
 (Enter /usr/site/hpc/x86_64/glibc-2.17/broadwell/gaussian/g16_a.03/pgi-16.5/g16/l301.exe)
 Standard basis: CC-pVTZ (5D, 7F)
 Ernie: Thresh=  0.10000D-02 Tol=  0.10000D-05 Strict=F.
 Ernie:  6 primitive shells out of 84 were deleted.
 There are    92 symmetry adapted cartesian basis functions of A'  symmetry.
 There are    38 symmetry adapted cartesian basis functions of A"  symmetry.
 There are    80 symmetry adapted basis functions of A'  symmetry.
 There are    36 symmetry adapted basis functions of A"  symmetry.
   116 basis functions,   172 primitive gaussians,   130 cartesian basis functions
    10 alpha electrons       10 beta electrons
       nuclear repulsion energy        27.8974315051 Hartrees.
 IExCor=    0 DFT=F Ex=HF Corr=None ExCW=0 ScaHFX=  1.000000
 ScaDFX=  1.000000  1.000000  1.000000  1.000000 ScalE2=  1.000000  1.000000
 IRadAn=      5 IRanWt=     -1 IRanGd=            0 ICorTp=0 IEmpDi=  4
 NAtoms=    6 NActive=    6 NUniq=    6 SFac= 1.00D+00 NAtFMM=   60 NAOKFM=F Big=F
 Integral buffers will be    131072 words long.
 Raffenetti 1 integral format.
 Two-electron integral symmetry is turned on.
 Leave Link  301 at Fri Aug 26 21:17:09 2022, MaxMem=   536870912 cpu:               0.2 elap:               0.1
 (Enter /usr/site/hpc/x86_64/glibc-2.17/broadwell/gaussian/g16_a.03/pgi-16.5/g16/l302.exe)
 NPDir=0 NMtPBC=     1 NCelOv=     1 NCel=       1 NClECP=     1 NCelD=      1
         NCelK=      1 NCelE2=     1 NClLst=     1 CellRange=     0.0.
 One-electron integrals computed using PRISM.
 One-electron integral symmetry used in STVInt
 NBasis=   116 RedAO= T EigKep=  2.66D-03  NBF=    80    36
 NBsUse=   116 1.00D-06 EigRej= -1.00D+00 NBFU=    80    36
 Leave Link  302 at Fri Aug 26 21:17:09 2022, MaxMem=   536870912 cpu:               0.4 elap:               0.1
 (Enter /usr/site/hpc/x86_64/glibc-2.17/broadwell/gaussian/g16_a.03/pgi-16.5/g16/l303.exe)
 DipDrv:  MaxL=1.
 Leave Link  303 at Fri Aug 26 21:17:09 2022, MaxMem=   536870912 cpu:               0.1 elap:               0.0
 (Enter /usr/site/hpc/x86_64/glibc-2.17/broadwell/gaussian/g16_a.03/pgi-16.5/g16/l401.exe)
 ExpMin= 1.03D-01 ExpMax= 1.53D+04 ExpMxC= 5.22D+02 IAcc=3 IRadAn=         5 AccDes= 0.00D+00
 Harris functional with IExCor=  205 and IRadAn=       5 diagonalized for initial guess.
 HarFok:  IExCor=  205 AccDes= 0.00D+00 IRadAn=         5 IDoV= 1 UseB2=F ITyADJ=14
 ICtDFT=  3500011 ScaDFX=  1.000000  1.000000  1.000000  1.000000
 FoFCou: FMM=F IPFlag=           0 FMFlag=      100000 FMFlg1=           0
         NFxFlg=           0 DoJE=T BraDBF=F KetDBF=T FulRan=T
         wScrn=  0.000000 ICntrl=       500 IOpCl=  0 I1Cent=   200000004 NGrid=           0
         NMat0=    1 NMatS0=      1 NMatT0=    0 NMatD0=    1 NMtDS0=    0 NMtDT0=    0
 Petite list used in FoFCou.
 Harris En= -152.298681488104    
 JPrj=0 DoOrth=F DoCkMO=F.
 Initial guess orbital symmetries:
       Occupied  (A') (A') (A') (A') (A') (A') (A') (A') (A") (A")
       Virtual   (A') (A') (A') (A') (A') (A') (A') (A') (A') (A')
                 (A") (A") (A') (A') (A') (A') (A") (A") (A") (A")
                 (A') (A') (A') (A') (A') (A') (A') (A') (A") (A")
                 (A") (A") (A') (A') (A') (A') (A') (A') (A') (A')
                 (A') (A') (A") (A") (A') (A') (A") (A") (A") (A")
                 (A') (A') (A') (A') (A') (A') (A") (A") (A') (A')
                 (A') (A') (A") (A") (A") (A") (A') (A') (A') (A')
                 (A") (A") (A') (A') (A') (A') (A') (A') (A') (A')
                 (A") (A") (A') (A') (A") (A") (A") (A") (A') (A')
                 (A") (A") (A') (A') (A') (A') (A") (A") (A') (A')
                 (A') (A') (A') (A') (A') (A')
 The electronic state of the initial guess is 1-A'.
 Leave Link  401 at Fri Aug 26 21:17:09 2022, MaxMem=   536870912 cpu:               0.9 elap:               0.2
 (Enter /usr/site/hpc/x86_64/glibc-2.17/broadwell/gaussian/g16_a.03/pgi-16.5/g16/l502.exe)
 Keep R1 ints in memory in symmetry-blocked form, NReq=34823457.
 FoFCou: FMM=F IPFlag=           0 FMFlag=           0 FMFlg1=           0
         NFxFlg=           0 DoJE=F BraDBF=F KetDBF=F FulRan=T
         wScrn=  0.000000 ICntrl=       600 IOpCl=  0 I1Cent=           0 NGrid=           0
         NMat0=    1 NMatS0=   6786 NMatT0=    0 NMatD0=    1 NMtDS0=    0 NMtDT0=    0
 Petite list used in FoFCou.
 Closed shell SCF:
 Using DIIS extrapolation, IDIIS=  1040.
 NGot=   536870912 LenX=   525040673 LenY=   525023332
 Requested convergence on RMS density matrix=1.00D-08 within 128 cycles.
 Requested convergence on MAX density matrix=1.00D-06.
 Requested convergence on             energy=1.00D-06.
 No special actions if energy rises.

 Cycle   1  Pass 1  IDiag  1:
 E= -151.925798300959    
 DIIS: error= 6.60D-02 at cycle   1 NSaved=   1.
 NSaved= 1 IEnMin= 1 EnMin= -151.925798300959     IErMin= 1 ErrMin= 6.60D-02
 ErrMax= 6.60D-02  0.00D+00 EMaxC= 1.00D-01 BMatC= 4.01D-01 BMatP= 4.01D-01
 IDIUse=3 WtCom= 3.40D-01 WtEn= 6.60D-01
 Coeff-Com:  0.100D+01
 Coeff-En:   0.100D+01
 Coeff:      0.100D+01
 Gap=     0.517 Goal=   None    Shift=    0.000
 GapD=    0.517 DampG=2.000 DampE=0.500 DampFc=1.0000 IDamp=-1.
 RMSDP=2.52D-03 MaxDP=6.63D-02              OVMax= 1.28D-01

 Cycle   2  Pass 1  IDiag  1:
 E= -152.037818811253     Delta-E=       -0.112020510294 Rises=F Damp=F
 DIIS: error= 4.16D-02 at cycle   2 NSaved=   2.
 NSaved= 2 IEnMin= 2 EnMin= -152.037818811253     IErMin= 2 ErrMin= 4.16D-02
 ErrMax= 4.16D-02  0.00D+00 EMaxC= 1.00D-01 BMatC= 1.14D-01 BMatP= 4.01D-01
 IDIUse=3 WtCom= 5.84D-01 WtEn= 4.16D-01
 Coeff-Com:  0.320D+00 0.680D+00
 Coeff-En:   0.168D+00 0.832D+00
 Coeff:      0.257D+00 0.743D+00
 Gap=     0.658 Goal=   None    Shift=    0.000
 RMSDP=1.33D-03 MaxDP=3.95D-02 DE=-1.12D-01 OVMax= 5.74D-02

 Cycle   3  Pass 1  IDiag  1:
 E= -152.103100142727     Delta-E=       -0.065281331473 Rises=F Damp=F
 DIIS: error= 8.98D-03 at cycle   3 NSaved=   3.
 NSaved= 3 IEnMin= 3 EnMin= -152.103100142727     IErMin= 3 ErrMin= 8.98D-03
 ErrMax= 8.98D-03  0.00D+00 EMaxC= 1.00D-01 BMatC= 6.00D-03 BMatP= 1.14D-01
 IDIUse=3 WtCom= 9.10D-01 WtEn= 8.98D-02
 Coeff-Com: -0.305D-01 0.155D+00 0.875D+00
 Coeff-En:   0.000D+00 0.000D+00 0.100D+01
 Coeff:     -0.278D-01 0.141D+00 0.887D+00
 Gap=     0.631 Goal=   None    Shift=    0.000
 RMSDP=2.45D-04 MaxDP=5.68D-03 DE=-6.53D-02 OVMax= 1.34D-02

 Cycle   4  Pass 1  IDiag  1:
 E= -152.106843664935     Delta-E=       -0.003743522208 Rises=F Damp=F
 DIIS: error= 8.62D-04 at cycle   4 NSaved=   4.
 NSaved= 4 IEnMin= 4 EnMin= -152.106843664935     IErMin= 4 ErrMin= 8.62D-04
 ErrMax= 8.62D-04  0.00D+00 EMaxC= 1.00D-01 BMatC= 3.80D-05 BMatP= 6.00D-03
 IDIUse=3 WtCom= 9.91D-01 WtEn= 8.62D-03
 Coeff-Com:  0.679D-02-0.612D-01-0.239D+00 0.129D+01
 Coeff-En:   0.000D+00 0.000D+00 0.000D+00 0.100D+01
 Coeff:      0.674D-02-0.606D-01-0.237D+00 0.129D+01
 Gap=     0.633 Goal=   None    Shift=    0.000
 RMSDP=5.19D-05 MaxDP=1.04D-03 DE=-3.74D-03 OVMax= 2.25D-03

 Cycle   5  Pass 1  IDiag  1:
 E= -152.106894698087     Delta-E=       -0.000051033152 Rises=F Damp=F
 DIIS: error= 1.95D-04 at cycle   5 NSaved=   5.
 NSaved= 5 IEnMin= 5 EnMin= -152.106894698087     IErMin= 5 ErrMin= 1.95D-04
 ErrMax= 1.95D-04  0.00D+00 EMaxC= 1.00D-01 BMatC= 1.38D-06 BMatP= 3.80D-05
 IDIUse=3 WtCom= 9.98D-01 WtEn= 1.95D-03
 Coeff-Com:  0.569D-03 0.249D-03-0.373D-02-0.216D+00 0.122D+01
 Coeff-En:   0.000D+00 0.000D+00 0.000D+00 0.000D+00 0.100D+01
 Coeff:      0.568D-03 0.249D-03-0.373D-02-0.215D+00 0.122D+01
 Gap=     0.634 Goal=   None    Shift=    0.000
 RMSDP=1.41D-05 MaxDP=2.88D-04 DE=-5.10D-05 OVMax= 6.90D-04

 Cycle   6  Pass 1  IDiag  1:
 E= -152.106897558681     Delta-E=       -0.000002860594 Rises=F Damp=F
 DIIS: error= 2.90D-05 at cycle   6 NSaved=   6.
 NSaved= 6 IEnMin= 6 EnMin= -152.106897558681     IErMin= 6 ErrMin= 2.90D-05
 ErrMax= 2.90D-05  0.00D+00 EMaxC= 1.00D-01 BMatC= 3.49D-08 BMatP= 1.38D-06
 IDIUse=1 WtCom= 1.00D+00 WtEn= 0.00D+00
 Coeff-Com: -0.278D-03 0.162D-02 0.696D-02 0.393D-03-0.261D+00 0.125D+01
 Coeff:     -0.278D-03 0.162D-02 0.696D-02 0.393D-03-0.261D+00 0.125D+01
 Gap=     0.634 Goal=   None    Shift=    0.000
 RMSDP=3.02D-06 MaxDP=6.65D-05 DE=-2.86D-06 OVMax= 1.54D-04

 Cycle   7  Pass 1  IDiag  1:
 E= -152.106897657299     Delta-E=       -0.000000098618 Rises=F Damp=F
 DIIS: error= 5.41D-06 at cycle   7 NSaved=   7.
 NSaved= 7 IEnMin= 7 EnMin= -152.106897657299     IErMin= 7 ErrMin= 5.41D-06
 ErrMax= 5.41D-06  0.00D+00 EMaxC= 1.00D-01 BMatC= 1.83D-09 BMatP= 3.49D-08
 IDIUse=1 WtCom= 1.00D+00 WtEn= 0.00D+00
 Coeff-Com:  0.291D-04-0.386D-03-0.154D-02 0.139D-01-0.153D-01-0.217D+00
 Coeff-Com:  0.122D+01
 Coeff:      0.291D-04-0.386D-03-0.154D-02 0.139D-01-0.153D-01-0.217D+00
 Coeff:      0.122D+01
 Gap=     0.634 Goal=   None    Shift=    0.000
 RMSDP=4.43D-07 MaxDP=9.25D-06 DE=-9.86D-08 OVMax= 3.04D-05

 Cycle   8  Pass 1  IDiag  1:
 E= -152.106897661150     Delta-E=       -0.000000003851 Rises=F Damp=F
 DIIS: error= 1.62D-06 at cycle   8 NSaved=   8.
 NSaved= 8 IEnMin= 8 EnMin= -152.106897661150     IErMin= 8 ErrMin= 1.62D-06
 ErrMax= 1.62D-06  0.00D+00 EMaxC= 1.00D-01 BMatC= 1.14D-10 BMatP= 1.83D-09
 IDIUse=1 WtCom= 1.00D+00 WtEn= 0.00D+00
 Coeff-Com:  0.951D-05-0.144D-04-0.489D-04-0.300D-02 0.179D-01-0.257D-01
 Coeff-Com: -0.219D+00 0.123D+01
 Coeff:      0.951D-05-0.144D-04-0.489D-04-0.300D-02 0.179D-01-0.257D-01
 Coeff:     -0.219D+00 0.123D+01
 Gap=     0.634 Goal=   None    Shift=    0.000
 RMSDP=1.07D-07 MaxDP=2.51D-06 DE=-3.85D-09 OVMax= 6.84D-06

 Cycle   9  Pass 1  IDiag  1:
 E= -152.106897661376     Delta-E=       -0.000000000226 Rises=F Damp=F
 DIIS: error= 4.65D-07 at cycle   9 NSaved=   9.
 NSaved= 9 IEnMin= 9 EnMin= -152.106897661376     IErMin= 9 ErrMin= 4.65D-07
 ErrMax= 4.65D-07  0.00D+00 EMaxC= 1.00D-01 BMatC= 1.81D-11 BMatP= 1.14D-10
 IDIUse=1 WtCom= 1.00D+00 WtEn= 0.00D+00
 Coeff-Com:  0.803D-06 0.290D-04 0.120D-03-0.231D-02 0.803D-02 0.813D-02
 Coeff-Com: -0.173D+00 0.400D+00 0.759D+00
 Coeff:      0.803D-06 0.290D-04 0.120D-03-0.231D-02 0.803D-02 0.813D-02
 Coeff:     -0.173D+00 0.400D+00 0.759D+00
 Gap=     0.634 Goal=   None    Shift=    0.000
 RMSDP=2.31D-08 MaxDP=5.12D-07 DE=-2.26D-10 OVMax= 1.54D-06

 Cycle  10  Pass 1  IDiag  1:
 E= -152.106897661393     Delta-E=       -0.000000000017 Rises=F Damp=F
 DIIS: error= 1.02D-07 at cycle  10 NSaved=  10.
 NSaved=10 IEnMin=10 EnMin= -152.106897661393     IErMin=10 ErrMin= 1.02D-07
 ErrMax= 1.02D-07  0.00D+00 EMaxC= 1.00D-01 BMatC= 5.17D-13 BMatP= 1.81D-11
 IDIUse=1 WtCom= 1.00D+00 WtEn= 0.00D+00
 Coeff-Com: -0.627D-06-0.416D-05-0.202D-04 0.553D-03-0.203D-02-0.177D-02
 Coeff-Com:  0.503D-01-0.163D+00-0.153D+00 0.127D+01
 Coeff:     -0.627D-06-0.416D-05-0.202D-04 0.553D-03-0.203D-02-0.177D-02
 Coeff:      0.503D-01-0.163D+00-0.153D+00 0.127D+01
 Gap=     0.634 Goal=   None    Shift=    0.000
 RMSDP=7.39D-09 MaxDP=2.11D-07 DE=-1.73D-11 OVMax= 4.48D-07

 SCF Done:  E(RHF) =  -152.106897661     A.U. after   10 cycles
            NFock= 10  Conv=0.74D-08     -V/T= 2.0020
 KE= 1.518051327704D+02 PE=-4.173057745798D+02 EE= 8.549631264292D+01
 Leave Link  502 at Fri Aug 26 21:17:11 2022, MaxMem=   536870912 cpu:               4.6 elap:               1.3
 (Enter /usr/site/hpc/x86_64/glibc-2.17/broadwell/gaussian/g16_a.03/pgi-16.5/g16/l801.exe)
 Windowed orbitals will be sorted by symmetry type.
 ExpMin= 1.03D-01 ExpMax= 1.53D+04 ExpMxC= 5.22D+02 IAcc=3 IRadAn=         5 AccDes= 0.00D+00
 HarFok:  IExCor=  205 AccDes= 0.00D+00 IRadAn=         5 IDoV=-2 UseB2=F ITyADJ=14
 ICtDFT= 12500011 ScaDFX=  1.000000  1.000000  1.000000  1.000000
 Largest valence mixing into a core orbital is  1.12D-04
 Largest core mixing into a valence orbital is  1.77D-05
 Range of M.O.s used for correlation:     3   116
 NBasis=   116 NAE=    10 NBE=    10 NFC=     2 NFV=     0
 NROrb=    114 NOA=     8 NOB=     8 NVA=   106 NVB=   106
 Leave Link  801 at Fri Aug 26 21:17:11 2022, MaxMem=   536870912 cpu:               0.4 elap:               0.1
 (Enter /usr/site/hpc/x86_64/glibc-2.17/broadwell/gaussian/g16_a.03/pgi-16.5/g16/l804.exe)
 Closed-shell transformation, MDV=   536870912 ITran=4 ISComp=2.
 Unit  1 TFree=        834515 TCopy=        406125.
 Semi-Direct transformation.
 ModeAB=           4 MOrb=             8 LenV=     536377542
 LASXX=      2873146 LTotXX=     2873146 LenRXX=     5831278
 LTotAB=     2958132 MaxLAS=     5353440 LenRXY=           0
 NonZer=     8704424 LenScr=    13107200 LnRSAI=     5353440
 LnScr1=     8388608 LExtra=           0 Total=     32680526
 MaxDsk=          -1 SrtSym=           T ITran=            4
 DoSDTr:  NPSUse=  4
 JobTyp=0 Pass  1:  I=   1 to   8.
 (rs|ai) integrals will be sorted in core.
 Complete sort for first half transformation.
 First half transformation complete.
 Complete sort for second half transformation.
 Second half transformation complete.
 Spin components of T(2) and E(2):
     alpha-alpha T2 =       0.1556626684D-01 E2=     -0.6380639418D-01
     alpha-beta  T2 =       0.9195008246D-01 E2=     -0.3983480191D+00
     beta-beta   T2 =       0.1556626684D-01 E2=     -0.6380639418D-01
 ANorm=    0.1059755923D+01
 E2 =    -0.5259608075D+00 EUMP2 =    -0.15263285846887D+03
 Leave Link  804 at Fri Aug 26 21:17:12 2022, MaxMem=   536870912 cpu:               3.4 elap:               0.9
 (Enter /usr/site/hpc/x86_64/glibc-2.17/broadwell/gaussian/g16_a.03/pgi-16.5/g16/l913.exe)
 CIDS:  MDV=   536870912.
 Frozen-core window:  NFC=   2 NFV=   0.
 IFCWin=0 IBDFC=1 NFBD=     0     0 NFCmp=     0     0 NFFFC=     0     0
 Using DD3R+UMP44R for 1st iteration.
 Using DD4RQ for 2nd and later iterations.
 Keep R2 and R3 ints in memory in symmetry-blocked form, NReq=35357534.
 FoFCou: FMM=F IPFlag=           0 FMFlag=           0 FMFlg1=           0
         NFxFlg=           0 DoJE=F BraDBF=F KetDBF=F FulRan=T
         wScrn=  0.000000 ICntrl=       600 IOpCl=  0 I1Cent=           0 NGrid=           0
         NMat0=    1 NMatS0=   6786 NMatT0=    0 NMatD0=    1 NMtDS0=    0 NMtDT0=    0
 Petite list used in FoFCou.
 CIDS: In Core Option IDoMem=           1.
 CCSD(T)
 =======
 Iterations=  50 Convergence= 0.100D-06
 Produce multiple copies of IABC intergrals
 Iteration Nr.   1
 **********************
 DD1Dir will call FoFMem   1 times, MxPair=        72
 NAB=    36 NAA=     0 NBB=     0.
 MP4(R+Q)=  0.75598639D-02
 Maximum subspace dimension=  5
 A-vector RMS=  1.7449483D-03 Max=  6.2116579D-03 conv= 1.00D-05.
 RLE energy=       -0.5258953480
 E3=       -0.75658035D-02        EUMP3=      -0.15264042427D+03
 E4(DQ)=   -0.15526854D-02        UMP4(DQ)=   -0.15264197696D+03
 E4(SDQ)=  -0.46134171D-02        UMP4(SDQ)=  -0.15264503769D+03
 VARIATIONAL ENERGIES WITH THE FIRST-ORDER WAVEFUNCTION:
 DE(Corr)= -0.52589535     E(Corr)=     -152.63279301    
 NORM(A)=   0.10601236D+01
 Iteration Nr.   2
 **********************
 DD1Dir will call FoFMem   1 times, MxPair=        72
 NAB=    36 NAA=     0 NBB=     0.
 A-vector RMS=  2.1217133D-04 Max=  2.3207551D-03 conv= 1.00D-05.
 RLE energy=       -0.5369664956
 DE(Corr)= -0.53580622     E(CORR)=     -152.64270389     Delta=-9.91D-03
 NORM(A)=   0.10638774D+01
 Iteration Nr.   3
 **********************
 DD1Dir will call FoFMem   1 times, MxPair=        72
 NAB=    36 NAA=     0 NBB=     0.
 A-vector RMS=  1.4184230D-04 Max=  8.2981426D-04 conv= 1.00D-05.
 RLE energy=       -0.5374628811
 DE(Corr)= -0.53687610     E(CORR)=     -152.64377377     Delta=-1.07D-03
 NORM(A)=   0.10645169D+01
 Iteration Nr.   4
 **********************
 DD1Dir will call FoFMem   1 times, MxPair=        72
 NAB=    36 NAA=     0 NBB=     0.
 A-vector RMS=  2.6034406D-05 Max=  1.4110323D-04 conv= 1.00D-05.
 RLE energy=       -0.5375460746
 DE(Corr)= -0.53751072     E(CORR)=     -152.64440839     Delta=-6.35D-04
 NORM(A)=   0.10646281D+01
 Iteration Nr.   5
 **********************
 DD1Dir will call FoFMem   1 times, MxPair=        72
 NAB=    36 NAA=     0 NBB=     0.
 A-vector RMS=  1.8906084D-05 Max=  1.5454978D-04 conv= 1.00D-05.
 RLE energy=       -0.5375545857
 DE(Corr)= -0.53754776     E(CORR)=     -152.64444542     Delta=-3.70D-05
 NORM(A)=   0.10646378D+01
 Iteration Nr.   6
 **********************
 DD1Dir will call FoFMem   1 times, MxPair=        72
 NAB=    36 NAA=     0 NBB=     0.
 A-vector RMS=  5.5837791D-06 Max=  4.1443109D-05 conv= 1.00D-05.
 RLE energy=       -0.5375453371
 DE(Corr)= -0.53755096     E(CORR)=     -152.64444862     Delta=-3.20D-06
 NORM(A)=   0.10646379D+01
 Iteration Nr.   7
 **********************
 DD1Dir will call FoFMem   1 times, MxPair=        72
 NAB=    36 NAA=     0 NBB=     0.
 A-vector RMS=  2.6749724D-06 Max=  2.2370504D-05 conv= 1.00D-05.
 RLE energy=       -0.5375521086
 DE(Corr)= -0.53755110     E(CORR)=     -152.64444876     Delta=-1.43D-07
 NORM(A)=   0.10646403D+01
 Iteration Nr.   8
 **********************
 DD1Dir will call FoFMem   1 times, MxPair=        72
 NAB=    36 NAA=     0 NBB=     0.
 A-vector RMS=  5.3914775D-07 Max=  4.6393092D-06 conv= 1.00D-05.
 RLE energy=       -0.5375504922
 DE(Corr)= -0.53755066     E(CORR)=     -152.64444832     Delta= 4.39D-07
 NORM(A)=   0.10646405D+01
 Iteration Nr.   9
 **********************
 DD1Dir will call FoFMem   1 times, MxPair=        72
 NAB=    36 NAA=     0 NBB=     0.
 A-vector RMS=  1.3110882D-07 Max=  1.0072522D-06 conv= 1.00D-05.
 RLE energy=       -0.5375509567
 DE(Corr)= -0.53755095     E(CORR)=     -152.64444861     Delta=-2.85D-07
 NORM(A)=   0.10646407D+01
 Iteration Nr.  10
 **********************
 DD1Dir will call FoFMem   1 times, MxPair=        72
 NAB=    36 NAA=     0 NBB=     0.
 A-vector RMS=  4.9472150D-08 Max=  4.3947075D-07 conv= 1.00D-05.
 RLE energy=       -0.5375509554
 DE(Corr)= -0.53755093     E(CORR)=     -152.64444859     Delta= 1.73D-08
 NORM(A)=   0.10646408D+01
 CI/CC converged in   10 iterations to DelEn= 1.73D-08 Conv= 1.00D-07 ErrA1= 4.95D-08 Conv= 1.00D-05
 Wavefunction amplitudes converged. E(Corr)=     -152.64444859    
 Largest amplitude= 4.79D-02
 IPart=  2 IA=    7   11.05% done.
 IPart=  2 IA=   13   21.46% done.
 IPart=  4 IA=   19   31.21% done.
 IPart=  3 IA=   25   40.32% done.
 IPart=  3 IA=   32   50.13% done.
 IPart=  3 IA=   40   60.27% done.
 IPart=  3 IA=   49   70.30% done.
 IPart=  2 IA=   60   80.58% done.
 IPart=  2 IA=   74   90.51% done.
 Time for triples=       86.41 seconds.
 T4(CCSD)= -0.16042536D-01
 T5(CCSD)=  0.40440290D-03
 CCSD(T)= -0.15266008672D+03
 Discarding MO integrals.
 Leave Link  913 at Fri Aug 26 21:17:43 2022, MaxMem=   536870912 cpu:             116.0 elap:              30.9
 (Enter /usr/site/hpc/x86_64/glibc-2.17/broadwell/gaussian/g16_a.03/pgi-16.5/g16/l601.exe)
 Copying SCF densities to generalized density rwf, IOpCl= 0 IROHF=0.

 **********************************************************************

            Population analysis using the SCF density.

 **********************************************************************

 Orbital symmetries:
       Occupied  (A') (A') (A') (A') (A') (A') (A') (A') (A") (A")
       Virtual   (A') (A') (A') (A') (A') (A') (A') (A') (A') (A')
                 (A") (A") (A') (A') (A') (A') (A") (A") (A") (A")
                 (A') (A') (A') (A') (A') (A') (A') (A') (A") (A")
                 (A") (A") (A') (A') (A') (A') (A') (A') (A') (A')
                 (A') (A') (A") (A") (A') (A') (A") (A") (A') (A')
                 (A") (A") (A') (A') (A') (A') (A") (A") (A") (A")
                 (A') (A') (A') (A') (A") (A") (A') (A') (A') (A')
                 (A") (A") (A') (A') (A') (A') (A') (A') (A') (A')
                 (A") (A") (A') (A') (A") (A") (A") (A") (A') (A')
                 (A") (A") (A') (A') (A') (A') (A") (A") (A') (A')
                 (A') (A') (A') (A') (A') (A')
 The electronic state is 1-A'.
 Alpha  occ. eigenvalues --  -20.55319 -20.54916  -1.32615  -1.32209  -0.70023
 Alpha  occ. eigenvalues --   -0.69607  -0.56037  -0.55632  -0.49722  -0.49319
 Alpha virt. eigenvalues --    0.14105   0.14887   0.20316   0.20854   0.54486
 Alpha virt. eigenvalues --    0.54970   0.57415   0.57805   0.67484   0.69450
 Alpha virt. eigenvalues --    0.79157   0.79552   0.80554   0.80996   0.82711
 Alpha virt. eigenvalues --    0.82947   0.84995   0.85396   0.97466   0.97855
 Alpha virt. eigenvalues --    1.14801   1.15641   1.17341   1.17770   1.51848
 Alpha virt. eigenvalues --    1.52131   1.52293   1.52592   2.00900   2.01301
 Alpha virt. eigenvalues --    2.06956   2.07367   2.09631   2.10087   2.15081
 Alpha virt. eigenvalues --    2.15496   2.24755   2.26239   2.61695   2.62125
 Alpha virt. eigenvalues --    2.93053   2.93537   3.39557   3.39967   3.50111
 Alpha virt. eigenvalues --    3.50521   3.53300   3.53703   3.59679   3.60096
 Alpha virt. eigenvalues --    3.78863   3.79266   3.85622   3.86039   3.87811
 Alpha virt. eigenvalues --    3.88207   3.93756   3.94166   4.03216   4.03618
 Alpha virt. eigenvalues --    4.08375   4.08788   4.15424   4.15893   4.30303
 Alpha virt. eigenvalues --    4.30707   4.40131   4.40538   4.45743   4.46156
 Alpha virt. eigenvalues --    4.66714   4.67116   4.81059   4.81493   5.04352
 Alpha virt. eigenvalues --    5.04871   5.24275   5.24712   5.54246   5.54659
 Alpha virt. eigenvalues --    5.98132   5.98535   6.40585   6.40987   6.86379
 Alpha virt. eigenvalues --    6.86786   6.89854   6.90261   6.94784   6.95192
 Alpha virt. eigenvalues --    6.99334   6.99739   7.08090   7.08502   7.12710
 Alpha virt. eigenvalues --    7.13158   7.18502   7.18910   7.47390   7.47825
 Alpha virt. eigenvalues --    7.70530   7.70943   8.15256   8.15673  12.49481
 Alpha virt. eigenvalues --   12.49876
          Condensed to atoms (all electrons):
               1          2          3          4          5          6
     1  O    7.814916   0.344270   0.346646   0.000000  -0.000000   0.000030
     2  H    0.344270   0.441257  -0.036601   0.000000   0.000000  -0.000002
     3  H    0.346646  -0.036601   0.435136   0.000000   0.000000  -0.000001
     4  O    0.000000   0.000000   0.000000   7.815125   0.343587   0.346726
     5  H   -0.000000   0.000000   0.000000   0.343587   0.443399  -0.036733
     6  H    0.000030  -0.000002  -0.000001   0.346726  -0.036733   0.434324
 Mulliken charges:
               1
     1  O   -0.505860
     2  H    0.251077
     3  H    0.254821
     4  O   -0.505439
     5  H    0.249747
     6  H    0.255656
 Sum of Mulliken charges =  -0.00000
 Mulliken charges with hydrogens summed into heavy atoms:
               1
     1  O    0.000037
     4  O   -0.000037
 Electronic spatial extent (au):  <R**2>=            527.5678
 Charge=             -0.0000 electrons
 Dipole moment (field-independent basis, Debye):
    X=             -1.5512    Y=             -0.7862    Z=              0.0000  Tot=              1.7391
 Quadrupole moment (field-independent basis, Debye-Ang):
   XX=             -9.0987   YY=              5.6486   ZZ=            -14.7113
   XY=             -3.2092   XZ=              0.0000   YZ=              0.0000
 Traceless Quadrupole moment (field-independent basis, Debye-Ang):
   XX=             -3.0449   YY=             11.7024   ZZ=             -8.6575
   XY=             -3.2092   XZ=              0.0000   YZ=              0.0000
 Octapole moment (field-independent basis, Debye-Ang**2):
  XXX=             -1.6542  YYY=             -4.2989  ZZZ=              0.0000  XYY=             -5.0268
  XXY=             -5.3934  XXZ=              0.0000  XZZ=             -0.2018  YZZ=             -0.1081
  YYZ=              0.0000  XYZ=              0.0000
 Hexadecapole moment (field-independent basis, Debye-Ang**3):
 XXXX=            -11.1557 YYYY=           -208.4685 ZZZZ=            -11.3346 XXXY=             -1.4617
 XXXZ=              0.0000 YYYX=             -6.6956 YYYZ=              0.0000 ZZZX=              0.0000
 ZZZY=              0.0000 XXYY=            -62.4501 XXZZ=             -4.4534 YYZZ=           -105.3517
 XXYZ=              0.0000 YYXZ=              0.0000 ZZXY=              1.0871
 N-N= 2.789743150507D+01 E-N=-4.173057732805D+02  KE= 1.518051327704D+02
 Symmetry A'   KE= 1.427674452619D+02
 Symmetry A"   KE= 9.037687508513D+00
 Leave Link  601 at Fri Aug 26 21:17:43 2022, MaxMem=   536870912 cpu:               0.2 elap:               0.1
 (Enter /usr/site/hpc/x86_64/glibc-2.17/broadwell/gaussian/g16_a.03/pgi-16.5/g16/l9999.exe)
 1\1\GINC-N050\SP\RCCSD(T)-FC\CC-pVTZ\H4O2\C7441284\26-Aug-2022\0\\#p C
 CSD(T)/cc-pVTZ\\H2O_H2O_3314\\0,1\O,0,0.,-0.009833,0.\H,0,-0.799571,-0
 .580965,0.\H,0,0.799571,-0.580965,0.\O,0,-0.007801,5.103638,0.\H,0,0.0
 25838,6.085663,0.\H,0,-0.947659,4.816978,0.\\Version=ES64L-G16RevA.03\
 State=1-A'\HF=-152.1068977\MP2=-152.6328585\MP3=-152.6404243\MP4D=-152
 .6495368\MP4DQ=-152.641977\MP4SDQ=-152.6450377\CCSD=-152.6444486\CCSD(
 T)=-152.6600867\RMSD=7.385e-09\PG=CS [SG(H4O2)]\\@


 THE BEST WAY TO CONVINCE A FOOL THAT HE IS WRONG 
 IS TO LET HIM HAVE HIS OWN WAY.

                                         JOSH BILLINGS
 Job cpu time:       0 days  0 hours  2 minutes  7.3 seconds.
 Elapsed time:       0 days  0 hours  0 minutes 34.0 seconds.
 File lengths (MBytes):  RWF=    320 Int=      0 D2E=      0 Chk=      8 Scr=      8
 Normal termination of Gaussian 16 at Fri Aug 26 21:17:43 2022.
