 Entering Gaussian System, Link 0=g16
 Input=H2O_H2O_1491.com
 Output=H2O_H2O_1491.log
 Initial command:
 /usr/site/hpc/x86_64/glibc-2.17/broadwell/gaussian/g16_a.03/pgi-16.5/g16/l1.exe "/gpfs/gpfs1/scratch/c7441284/ForceFieldModel/FittingData/Gau-3620961.inp" -scrdir="/gpfs/gpfs1/scratch/c7441284/ForceFieldModel/FittingData/"
 Entering Link 1 = /usr/site/hpc/x86_64/glibc-2.17/broadwell/gaussian/g16_a.03/pgi-16.5/g16/l1.exe PID=   3620962.
  
 Copyright (c) 1988,1990,1992,1993,1995,1998,2003,2009,2016,
            Gaussian, Inc.  All Rights Reserved.
  
 This is part of the Gaussian(R) 16 program.  It is based on
 the Gaussian(R) 09 system (copyright 2009, Gaussian, Inc.),
 the Gaussian(R) 03 system (copyright 2003, Gaussian, Inc.),
 the Gaussian(R) 98 system (copyright 1998, Gaussian, Inc.),
 the Gaussian(R) 94 system (copyright 1995, Gaussian, Inc.),
 the Gaussian 92(TM) system (copyright 1992, Gaussian, Inc.),
 the Gaussian 90(TM) system (copyright 1990, Gaussian, Inc.),
 the Gaussian 88(TM) system (copyright 1988, Gaussian, Inc.),
 the Gaussian 86(TM) system (copyright 1986, Carnegie Mellon
 University), and the Gaussian 82(TM) system (copyright 1983,
 Carnegie Mellon University). Gaussian is a federally registered
 trademark of Gaussian, Inc.
  
 This software contains proprietary and confidential information,
 including trade secrets, belonging to Gaussian, Inc.
  
 This software is provided under written license and may be
 used, copied, transmitted, or stored only in accord with that
 written license.
  
 The following legend is applicable only to US Government
 contracts under FAR:
  
                    RESTRICTED RIGHTS LEGEND
  
 Use, reproduction and disclosure by the US Government is
 subject to restrictions as set forth in subparagraphs (a)
 and (c) of the Commercial Computer Software - Restricted
 Rights clause in FAR 52.227-19.
  
 Gaussian, Inc.
 340 Quinnipiac St., Bldg. 40, Wallingford CT 06492
  
  
 ---------------------------------------------------------------
 Warning -- This program may not be used in any manner that
 competes with the business of Gaussian, Inc. or will provide
 assistance to any competitor of Gaussian, Inc.  The licensee
 of this program is prohibited from giving any competitor of
 Gaussian, Inc. access to this program.  By using this program,
 the user acknowledges that Gaussian, Inc. is engaged in the
 business of creating and licensing software in the field of
 computational chemistry and represents and warrants to the
 licensee that it is not a competitor of Gaussian, Inc. and that
 it will not use this program in any manner prohibited above.
 ---------------------------------------------------------------
  

 Cite this work as:
 Gaussian 16, Revision A.03,
 M. J. Frisch, G. W. Trucks, H. B. Schlegel, G. E. Scuseria, 
 M. A. Robb, J. R. Cheeseman, G. Scalmani, V. Barone, 
 G. A. Petersson, H. Nakatsuji, X. Li, M. Caricato, A. V. Marenich, 
 J. Bloino, B. G. Janesko, R. Gomperts, B. Mennucci, H. P. Hratchian, 
 J. V. Ortiz, A. F. Izmaylov, J. L. Sonnenberg, D. Williams-Young, 
 F. Ding, F. Lipparini, F. Egidi, J. Goings, B. Peng, A. Petrone, 
 T. Henderson, D. Ranasinghe, V. G. Zakrzewski, J. Gao, N. Rega, 
 G. Zheng, W. Liang, M. Hada, M. Ehara, K. Toyota, R. Fukuda, 
 J. Hasegawa, M. Ishida, T. Nakajima, Y. Honda, O. Kitao, H. Nakai, 
 T. Vreven, K. Throssell, J. A. Montgomery, Jr., J. E. Peralta, 
 F. Ogliaro, M. J. Bearpark, J. J. Heyd, E. N. Brothers, K. N. Kudin, 
 V. N. Staroverov, T. A. Keith, R. Kobayashi, J. Normand, 
 K. Raghavachari, A. P. Rendell, J. C. Burant, S. S. Iyengar, 
 J. Tomasi, M. Cossi, J. M. Millam, M. Klene, C. Adamo, R. Cammi, 
 J. W. Ochterski, R. L. Martin, K. Morokuma, O. Farkas, 
 J. B. Foresman, and D. J. Fox, Gaussian, Inc., Wallingford CT, 2016.
 
 ******************************************
 Gaussian 16:  ES64L-G16RevA.03 25-Dec-2016
                27-Aug-2022 
 ******************************************
 %NProcShared=4
 Will use up to    4 processors via shared memory.
 %Mem=4GB
 %Chk=H2O_H2O_1491.chk
 ------------------
 #p CCSD(T)/cc-pVTZ
 ------------------
 1/38=1,172=1/1;
 2/12=2,17=6,18=5,40=1/2;
 3/5=16,6=1,11=9,25=1,30=1/1,2,3;
 4//1;
 5/5=2,38=5/2;
 8/6=4,9=120000,10=1/1,4;
 9/5=7,14=2/13;
 6/7=2,8=2,9=2,10=2/1;
 99/5=1,9=1/99;
 Leave Link    1 at Sat Aug 27 05:04:38 2022, MaxMem=   536870912 cpu:               0.3 elap:               0.1
 (Enter /usr/site/hpc/x86_64/glibc-2.17/broadwell/gaussian/g16_a.03/pgi-16.5/g16/l101.exe)
 ------------
 H2O_H2O_1491
 ------------
 Symbolic Z-matrix:
 Charge =  0 Multiplicity = 1
 O                     0.       -0.00983   0. 
 H                    -0.79957  -0.58097   0. 
 H                     0.79957  -0.58097   0. 
 O                    -0.00852   3.16137   0. 
 H                    -0.10335   4.13938   0. 
 H                    -0.90292   2.75448   0. 
 
 ITRead=  0  0  0  0  0  0
 MicOpt= -1 -1 -1 -1 -1 -1
 NAtoms=      6 NQM=        6 NQMF=       0 NMMI=      0 NMMIF=      0
                NMic=       0 NMicF=      0.
                    Isotopes and Nuclear Properties:
 (Nuclear quadrupole moments (NQMom) in fm**2, nuclear magnetic moments (NMagM)
  in nuclear magnetons)

  Atom         1           2           3           4           5           6
 IAtWgt=          16           1           1          16           1           1
 AtmWgt=  15.9949146   1.0078250   1.0078250  15.9949146   1.0078250   1.0078250
 NucSpn=           0           1           1           0           1           1
 AtZEff=  -0.0000000  -0.0000000  -0.0000000  -0.0000000  -0.0000000  -0.0000000
 NQMom=    0.0000000   0.0000000   0.0000000   0.0000000   0.0000000   0.0000000
 NMagM=    0.0000000   2.7928460   2.7928460   0.0000000   2.7928460   2.7928460
 AtZNuc=   8.0000000   1.0000000   1.0000000   8.0000000   1.0000000   1.0000000
 Leave Link  101 at Sat Aug 27 05:04:38 2022, MaxMem=   536870912 cpu:               0.3 elap:               0.1
 (Enter /usr/site/hpc/x86_64/glibc-2.17/broadwell/gaussian/g16_a.03/pgi-16.5/g16/l202.exe)
                          Input orientation:                          
 ---------------------------------------------------------------------
 Center     Atomic      Atomic             Coordinates (Angstroms)
 Number     Number       Type             X           Y           Z
 ---------------------------------------------------------------------
      1          8           0        0.000000   -0.009833    0.000000
      2          1           0       -0.799571   -0.580965    0.000000
      3          1           0        0.799571   -0.580965    0.000000
      4          8           0       -0.008516    3.161366    0.000000
      5          1           0       -0.103345    4.139381    0.000000
      6          1           0       -0.902916    2.754482    0.000000
 ---------------------------------------------------------------------
                    Distance matrix (angstroms):
                    1          2          3          4          5
     1  O    0.000000
     2  H    0.982601   0.000000
     3  H    0.982601   1.599142   0.000000
     4  O    3.171210   3.825024   3.828583   0.000000
     5  H    4.150501   4.771415   4.805926   0.982602   0.000000
     6  H    2.908040   3.337048   3.744819   0.982602   1.599143
                    6
     6  H    0.000000
 Stoichiometry    H4O2
 Framework group  CS[SG(H4O2)]
 Deg. of freedom     9
 Full point group                 CS      NOp   2
 Largest Abelian subgroup         CS      NOp   2
 Largest concise Abelian subgroup C1      NOp   1
                         Standard orientation:                         
 ---------------------------------------------------------------------
 Center     Atomic      Atomic             Coordinates (Angstroms)
 Number     Number       Type             X           Y           Z
 ---------------------------------------------------------------------
      1          8           0        0.049538   -1.557181    0.000000
      2          1           0       -0.751564   -2.126164    0.000000
      3          1           0        0.847572   -2.130459    0.000000
      4          8           0        0.049538    1.614029    0.000000
      5          1           0       -0.042664    2.592295    0.000000
      6          1           0       -0.845951    1.209548    0.000000
 ---------------------------------------------------------------------
 Rotational constants (GHZ):         245.3790762           5.1652197           5.0587335
 Leave Link  202 at Sat Aug 27 05:04:38 2022, MaxMem=   536870912 cpu:               0.0 elap:               0.0
 (Enter /usr/site/hpc/x86_64/glibc-2.17/broadwell/gaussian/g16_a.03/pgi-16.5/g16/l301.exe)
 Standard basis: CC-pVTZ (5D, 7F)
 Ernie: Thresh=  0.10000D-02 Tol=  0.10000D-05 Strict=F.
 Ernie:  6 primitive shells out of 84 were deleted.
 There are    92 symmetry adapted cartesian basis functions of A'  symmetry.
 There are    38 symmetry adapted cartesian basis functions of A"  symmetry.
 There are    80 symmetry adapted basis functions of A'  symmetry.
 There are    36 symmetry adapted basis functions of A"  symmetry.
   116 basis functions,   172 primitive gaussians,   130 cartesian basis functions
    10 alpha electrons       10 beta electrons
       nuclear repulsion energy        33.7841105986 Hartrees.
 IExCor=    0 DFT=F Ex=HF Corr=None ExCW=0 ScaHFX=  1.000000
 ScaDFX=  1.000000  1.000000  1.000000  1.000000 ScalE2=  1.000000  1.000000
 IRadAn=      5 IRanWt=     -1 IRanGd=            0 ICorTp=0 IEmpDi=  4
 NAtoms=    6 NActive=    6 NUniq=    6 SFac= 1.00D+00 NAtFMM=   60 NAOKFM=F Big=F
 Integral buffers will be    131072 words long.
 Raffenetti 1 integral format.
 Two-electron integral symmetry is turned on.
 Leave Link  301 at Sat Aug 27 05:04:38 2022, MaxMem=   536870912 cpu:               0.2 elap:               0.1
 (Enter /usr/site/hpc/x86_64/glibc-2.17/broadwell/gaussian/g16_a.03/pgi-16.5/g16/l302.exe)
 NPDir=0 NMtPBC=     1 NCelOv=     1 NCel=       1 NClECP=     1 NCelD=      1
         NCelK=      1 NCelE2=     1 NClLst=     1 CellRange=     0.0.
 One-electron integrals computed using PRISM.
 One-electron integral symmetry used in STVInt
 NBasis=   116 RedAO= T EigKep=  2.18D-03  NBF=    80    36
 NBsUse=   116 1.00D-06 EigRej= -1.00D+00 NBFU=    80    36
 Leave Link  302 at Sat Aug 27 05:04:38 2022, MaxMem=   536870912 cpu:               0.4 elap:               0.1
 (Enter /usr/site/hpc/x86_64/glibc-2.17/broadwell/gaussian/g16_a.03/pgi-16.5/g16/l303.exe)
 DipDrv:  MaxL=1.
 Leave Link  303 at Sat Aug 27 05:04:38 2022, MaxMem=   536870912 cpu:               0.1 elap:               0.0
 (Enter /usr/site/hpc/x86_64/glibc-2.17/broadwell/gaussian/g16_a.03/pgi-16.5/g16/l401.exe)
 ExpMin= 1.03D-01 ExpMax= 1.53D+04 ExpMxC= 5.22D+02 IAcc=3 IRadAn=         5 AccDes= 0.00D+00
 Harris functional with IExCor=  205 and IRadAn=       5 diagonalized for initial guess.
 HarFok:  IExCor=  205 AccDes= 0.00D+00 IRadAn=         5 IDoV= 1 UseB2=F ITyADJ=14
 ICtDFT=  3500011 ScaDFX=  1.000000  1.000000  1.000000  1.000000
 FoFCou: FMM=F IPFlag=           0 FMFlag=      100000 FMFlg1=           0
         NFxFlg=           0 DoJE=T BraDBF=F KetDBF=T FulRan=T
         wScrn=  0.000000 ICntrl=       500 IOpCl=  0 I1Cent=   200000004 NGrid=           0
         NMat0=    1 NMatS0=      1 NMatT0=    0 NMatD0=    1 NMtDS0=    0 NMtDT0=    0
 Petite list used in FoFCou.
 Harris En= -152.299982321174    
 JPrj=0 DoOrth=F DoCkMO=F.
 Initial guess orbital symmetries:
       Occupied  (A') (A') (A') (A') (A') (A') (A') (A') (A") (A")
       Virtual   (A') (A') (A') (A') (A') (A') (A') (A') (A') (A")
                 (A") (A') (A') (A') (A") (A") (A') (A") (A") (A')
                 (A') (A') (A') (A') (A') (A') (A') (A') (A") (A")
                 (A") (A") (A') (A') (A') (A') (A') (A') (A') (A')
                 (A') (A') (A") (A") (A') (A') (A") (A") (A") (A")
                 (A') (A') (A') (A') (A') (A") (A") (A') (A') (A')
                 (A') (A") (A") (A') (A") (A") (A') (A') (A') (A')
                 (A") (A") (A') (A') (A') (A') (A') (A') (A') (A')
                 (A") (A") (A') (A') (A") (A") (A") (A") (A') (A')
                 (A") (A") (A') (A') (A') (A') (A") (A") (A') (A')
                 (A') (A') (A') (A') (A') (A')
 The electronic state of the initial guess is 1-A'.
 Leave Link  401 at Sat Aug 27 05:04:38 2022, MaxMem=   536870912 cpu:               0.7 elap:               0.2
 (Enter /usr/site/hpc/x86_64/glibc-2.17/broadwell/gaussian/g16_a.03/pgi-16.5/g16/l502.exe)
 Keep R1 ints in memory in symmetry-blocked form, NReq=34823457.
 FoFCou: FMM=F IPFlag=           0 FMFlag=           0 FMFlg1=           0
         NFxFlg=           0 DoJE=F BraDBF=F KetDBF=F FulRan=T
         wScrn=  0.000000 ICntrl=       600 IOpCl=  0 I1Cent=           0 NGrid=           0
         NMat0=    1 NMatS0=   6786 NMatT0=    0 NMatD0=    1 NMtDS0=    0 NMtDT0=    0
 Petite list used in FoFCou.
 Closed shell SCF:
 Using DIIS extrapolation, IDIIS=  1040.
 NGot=   536870912 LenX=   525040673 LenY=   525023332
 Requested convergence on RMS density matrix=1.00D-08 within 128 cycles.
 Requested convergence on MAX density matrix=1.00D-06.
 Requested convergence on             energy=1.00D-06.
 No special actions if energy rises.

 Cycle   1  Pass 1  IDiag  1:
 E= -151.924739961238    
 DIIS: error= 6.63D-02 at cycle   1 NSaved=   1.
 NSaved= 1 IEnMin= 1 EnMin= -151.924739961238     IErMin= 1 ErrMin= 6.63D-02
 ErrMax= 6.63D-02  0.00D+00 EMaxC= 1.00D-01 BMatC= 4.00D-01 BMatP= 4.00D-01
 IDIUse=3 WtCom= 3.37D-01 WtEn= 6.63D-01
 Coeff-Com:  0.100D+01
 Coeff-En:   0.100D+01
 Coeff:      0.100D+01
 Gap=     0.503 Goal=   None    Shift=    0.000
 GapD=    0.503 DampG=2.000 DampE=0.500 DampFc=1.0000 IDamp=-1.
 RMSDP=2.67D-03 MaxDP=6.63D-02              OVMax= 1.29D-01

 Cycle   2  Pass 1  IDiag  1:
 E= -152.036172876055     Delta-E=       -0.111432914817 Rises=F Damp=F
 DIIS: error= 4.17D-02 at cycle   2 NSaved=   2.
 NSaved= 2 IEnMin= 2 EnMin= -152.036172876055     IErMin= 2 ErrMin= 4.17D-02
 ErrMax= 4.17D-02  0.00D+00 EMaxC= 1.00D-01 BMatC= 1.14D-01 BMatP= 4.00D-01
 IDIUse=3 WtCom= 5.83D-01 WtEn= 4.17D-01
 Coeff-Com:  0.321D+00 0.679D+00
 Coeff-En:   0.171D+00 0.829D+00
 Coeff:      0.258D+00 0.742D+00
 Gap=     0.643 Goal=   None    Shift=    0.000
 RMSDP=1.44D-03 MaxDP=3.97D-02 DE=-1.11D-01 OVMax= 5.78D-02

 Cycle   3  Pass 1  IDiag  1:
 E= -152.102093837680     Delta-E=       -0.065920961625 Rises=F Damp=F
 DIIS: error= 9.11D-03 at cycle   3 NSaved=   3.
 NSaved= 3 IEnMin= 3 EnMin= -152.102093837680     IErMin= 3 ErrMin= 9.11D-03
 ErrMax= 9.11D-03  0.00D+00 EMaxC= 1.00D-01 BMatC= 6.09D-03 BMatP= 1.14D-01
 IDIUse=3 WtCom= 9.09D-01 WtEn= 9.11D-02
 Coeff-Com: -0.309D-01 0.156D+00 0.875D+00
 Coeff-En:   0.000D+00 0.000D+00 0.100D+01
 Coeff:     -0.281D-01 0.141D+00 0.887D+00
 Gap=     0.614 Goal=   None    Shift=    0.000
 RMSDP=2.62D-04 MaxDP=5.91D-03 DE=-6.59D-02 OVMax= 1.36D-02

 Cycle   4  Pass 1  IDiag  1:
 E= -152.105908009868     Delta-E=       -0.003814172188 Rises=F Damp=F
 DIIS: error= 8.68D-04 at cycle   4 NSaved=   4.
 NSaved= 4 IEnMin= 4 EnMin= -152.105908009868     IErMin= 4 ErrMin= 8.68D-04
 ErrMax= 8.68D-04  0.00D+00 EMaxC= 1.00D-01 BMatC= 3.96D-05 BMatP= 6.09D-03
 IDIUse=3 WtCom= 9.91D-01 WtEn= 8.68D-03
 Coeff-Com:  0.681D-02-0.614D-01-0.238D+00 0.129D+01
 Coeff-En:   0.000D+00 0.000D+00 0.000D+00 0.100D+01
 Coeff:      0.676D-02-0.608D-01-0.236D+00 0.129D+01
 Gap=     0.617 Goal=   None    Shift=    0.000
 RMSDP=5.40D-05 MaxDP=1.04D-03 DE=-3.81D-03 OVMax= 2.60D-03

 Cycle   5  Pass 1  IDiag  1:
 E= -152.105961571119     Delta-E=       -0.000053561250 Rises=F Damp=F
 DIIS: error= 1.97D-04 at cycle   5 NSaved=   5.
 NSaved= 5 IEnMin= 5 EnMin= -152.105961571119     IErMin= 5 ErrMin= 1.97D-04
 ErrMax= 1.97D-04  0.00D+00 EMaxC= 1.00D-01 BMatC= 1.43D-06 BMatP= 3.96D-05
 IDIUse=3 WtCom= 9.98D-01 WtEn= 1.97D-03
 Coeff-Com:  0.674D-03-0.583D-03-0.694D-02-0.196D+00 0.120D+01
 Coeff-En:   0.000D+00 0.000D+00 0.000D+00 0.000D+00 0.100D+01
 Coeff:      0.672D-03-0.582D-03-0.693D-02-0.195D+00 0.120D+01
 Gap=     0.618 Goal=   None    Shift=    0.000
 RMSDP=1.42D-05 MaxDP=2.98D-04 DE=-5.36D-05 OVMax= 7.27D-04

 Cycle   6  Pass 1  IDiag  1:
 E= -152.105964495532     Delta-E=       -0.000002924414 Rises=F Damp=F
 DIIS: error= 3.20D-05 at cycle   6 NSaved=   6.
 NSaved= 6 IEnMin= 6 EnMin= -152.105964495532     IErMin= 6 ErrMin= 3.20D-05
 ErrMax= 3.20D-05  0.00D+00 EMaxC= 1.00D-01 BMatC= 4.18D-08 BMatP= 1.43D-06
 IDIUse=1 WtCom= 1.00D+00 WtEn= 0.00D+00
 Coeff-Com: -0.277D-03 0.183D-02 0.765D-02-0.149D-01-0.200D+00 0.121D+01
 Coeff:     -0.277D-03 0.183D-02 0.765D-02-0.149D-01-0.200D+00 0.121D+01
 Gap=     0.618 Goal=   None    Shift=    0.000
 RMSDP=3.21D-06 MaxDP=7.47D-05 DE=-2.92D-06 OVMax= 1.62D-04

 Cycle   7  Pass 1  IDiag  1:
 E= -152.105964604371     Delta-E=       -0.000000108838 Rises=F Damp=F
 DIIS: error= 5.43D-06 at cycle   7 NSaved=   7.
 NSaved= 7 IEnMin= 7 EnMin= -152.105964604371     IErMin= 7 ErrMin= 5.43D-06
 ErrMax= 5.43D-06  0.00D+00 EMaxC= 1.00D-01 BMatC= 4.15D-09 BMatP= 4.18D-08
 IDIUse=1 WtCom= 1.00D+00 WtEn= 0.00D+00
 Coeff-Com: -0.634D-04 0.157D-03 0.819D-03 0.129D-01-0.975D-01 0.145D+00
 Coeff-Com:  0.939D+00
 Coeff:     -0.634D-04 0.157D-03 0.819D-03 0.129D-01-0.975D-01 0.145D+00
 Coeff:      0.939D+00
 Gap=     0.618 Goal=   None    Shift=    0.000
 RMSDP=5.41D-07 MaxDP=1.53D-05 DE=-1.09D-07 OVMax= 3.47D-05

 Cycle   8  Pass 1  IDiag  1:
 E= -152.105964610069     Delta-E=       -0.000000005698 Rises=F Damp=F
 DIIS: error= 2.81D-06 at cycle   8 NSaved=   8.
 NSaved= 8 IEnMin= 8 EnMin= -152.105964610069     IErMin= 8 ErrMin= 2.81D-06
 ErrMax= 2.81D-06  0.00D+00 EMaxC= 1.00D-01 BMatC= 5.92D-10 BMatP= 4.15D-09
 IDIUse=1 WtCom= 1.00D+00 WtEn= 0.00D+00
 Coeff-Com:  0.259D-04-0.235D-03-0.942D-03 0.529D-02 0.699D-02-0.131D+00
 Coeff-Com:  0.176D+00 0.944D+00
 Coeff:      0.259D-04-0.235D-03-0.942D-03 0.529D-02 0.699D-02-0.131D+00
 Coeff:      0.176D+00 0.944D+00
 Gap=     0.618 Goal=   None    Shift=    0.000
 RMSDP=1.82D-07 MaxDP=4.52D-06 DE=-5.70D-09 OVMax= 1.29D-05

 Cycle   9  Pass 1  IDiag  1:
 E= -152.105964610892     Delta-E=       -0.000000000824 Rises=F Damp=F
 DIIS: error= 6.29D-07 at cycle   9 NSaved=   9.
 NSaved= 9 IEnMin= 9 EnMin= -152.105964610892     IErMin= 9 ErrMin= 6.29D-07
 ErrMax= 6.29D-07  0.00D+00 EMaxC= 1.00D-01 BMatC= 3.22D-11 BMatP= 5.92D-10
 IDIUse=1 WtCom= 1.00D+00 WtEn= 0.00D+00
 Coeff-Com:  0.191D-05 0.256D-04 0.106D-03-0.247D-02 0.929D-02 0.768D-02
 Coeff-Com: -0.117D+00-0.144D+00 0.125D+01
 Coeff:      0.191D-05 0.256D-04 0.106D-03-0.247D-02 0.929D-02 0.768D-02
 Coeff:     -0.117D+00-0.144D+00 0.125D+01
 Gap=     0.618 Goal=   None    Shift=    0.000
 RMSDP=6.05D-08 MaxDP=1.26D-06 DE=-8.24D-10 OVMax= 3.31D-06

 Cycle  10  Pass 1  IDiag  1:
 E= -152.105964610957     Delta-E=       -0.000000000065 Rises=F Damp=F
 DIIS: error= 8.88D-08 at cycle  10 NSaved=  10.
 NSaved=10 IEnMin=10 EnMin= -152.105964610957     IErMin=10 ErrMin= 8.88D-08
 ErrMax= 8.88D-08  0.00D+00 EMaxC= 1.00D-01 BMatC= 6.37D-13 BMatP= 3.22D-11
 IDIUse=1 WtCom= 1.00D+00 WtEn= 0.00D+00
 Coeff-Com: -0.836D-06 0.417D-06-0.137D-05 0.318D-03-0.144D-02-0.512D-03
 Coeff-Com:  0.215D-01 0.161D-01-0.292D+00 0.126D+01
 Coeff:     -0.836D-06 0.417D-06-0.137D-05 0.318D-03-0.144D-02-0.512D-03
 Coeff:      0.215D-01 0.161D-01-0.292D+00 0.126D+01
 Gap=     0.618 Goal=   None    Shift=    0.000
 RMSDP=8.66D-09 MaxDP=1.84D-07 DE=-6.47D-11 OVMax= 5.12D-07

 SCF Done:  E(RHF) =  -152.105964611     A.U. after   10 cycles
            NFock= 10  Conv=0.87D-08     -V/T= 2.0020
 KE= 1.518059114324D+02 PE=-4.291999965909D+02 EE= 9.150400994887D+01
 Leave Link  502 at Sat Aug 27 05:04:39 2022, MaxMem=   536870912 cpu:               3.8 elap:               1.0
 (Enter /usr/site/hpc/x86_64/glibc-2.17/broadwell/gaussian/g16_a.03/pgi-16.5/g16/l801.exe)
 Windowed orbitals will be sorted by symmetry type.
 ExpMin= 1.03D-01 ExpMax= 1.53D+04 ExpMxC= 5.22D+02 IAcc=3 IRadAn=         5 AccDes= 0.00D+00
 HarFok:  IExCor=  205 AccDes= 0.00D+00 IRadAn=         5 IDoV=-2 UseB2=F ITyADJ=14
 ICtDFT= 12500011 ScaDFX=  1.000000  1.000000  1.000000  1.000000
 Largest valence mixing into a core orbital is  1.12D-04
 Largest core mixing into a valence orbital is  1.77D-05
 Range of M.O.s used for correlation:     3   116
 NBasis=   116 NAE=    10 NBE=    10 NFC=     2 NFV=     0
 NROrb=    114 NOA=     8 NOB=     8 NVA=   106 NVB=   106
 Leave Link  801 at Sat Aug 27 05:04:40 2022, MaxMem=   536870912 cpu:               0.3 elap:               0.1
 (Enter /usr/site/hpc/x86_64/glibc-2.17/broadwell/gaussian/g16_a.03/pgi-16.5/g16/l804.exe)
 Closed-shell transformation, MDV=   536870912 ITran=4 ISComp=2.
 Unit  1 TFree=        834515 TCopy=        406125.
 Semi-Direct transformation.
 ModeAB=           4 MOrb=             8 LenV=     536366115
 LASXX=      2873146 LTotXX=     2873146 LenRXX=     5831278
 LTotAB=     2958132 MaxLAS=     7241280 LenRXY=           0
 NonZer=     8704424 LenScr=    13107200 LnRSAI=     7241280
 LnScr1=    11010048 LExtra=           0 Total=     37189806
 MaxDsk=          -1 SrtSym=           T ITran=            4
 DoSDTr:  NPSUse=  4
 JobTyp=0 Pass  1:  I=   1 to   8.
 (rs|ai) integrals will be sorted in core.
 Complete sort for first half transformation.
 First half transformation complete.
 Complete sort for second half transformation.
 Second half transformation complete.
 Spin components of T(2) and E(2):
     alpha-alpha T2 =       0.1567111340D-01 E2=     -0.6402456940D-01
     alpha-beta  T2 =       0.9230334623D-01 E2=     -0.3989860707D+00
     beta-beta   T2 =       0.1567111340D-01 E2=     -0.6402456940D-01
 ANorm=    0.1060021496D+01
 E2 =    -0.5270352095D+00 EUMP2 =    -0.15263299982045D+03
 Leave Link  804 at Sat Aug 27 05:04:40 2022, MaxMem=   536870912 cpu:               3.7 elap:               0.9
 (Enter /usr/site/hpc/x86_64/glibc-2.17/broadwell/gaussian/g16_a.03/pgi-16.5/g16/l913.exe)
 CIDS:  MDV=   536870912.
 Frozen-core window:  NFC=   2 NFV=   0.
 IFCWin=0 IBDFC=1 NFBD=     0     0 NFCmp=     0     0 NFFFC=     0     0
 Using DD3R+UMP44R for 1st iteration.
 Using DD4RQ for 2nd and later iterations.
 Keep R2 and R3 ints in memory in symmetry-blocked form, NReq=35357534.
 FoFCou: FMM=F IPFlag=           0 FMFlag=           0 FMFlg1=           0
         NFxFlg=           0 DoJE=F BraDBF=F KetDBF=F FulRan=T
         wScrn=  0.000000 ICntrl=       600 IOpCl=  0 I1Cent=           0 NGrid=           0
         NMat0=    1 NMatS0=   6786 NMatT0=    0 NMatD0=    1 NMtDS0=    0 NMtDT0=    0
 Petite list used in FoFCou.
 CIDS: In Core Option IDoMem=           1.
 CCSD(T)
 =======
 Iterations=  50 Convergence= 0.100D-06
 Produce multiple copies of IABC intergrals
 Iteration Nr.   1
 **********************
 DD1Dir will call FoFMem   1 times, MxPair=        72
 NAB=    36 NAA=     0 NBB=     0.
 MP4(R+Q)=  0.76309158D-02
 Maximum subspace dimension=  5
 A-vector RMS=  1.7917402D-03 Max=  5.8448053D-03 conv= 1.00D-05.
 RLE energy=       -0.5266941427
 E3=       -0.73611102D-02        EUMP3=      -0.15264036093D+03
 E4(DQ)=   -0.15291028D-02        UMP4(DQ)=   -0.15264189003D+03
 E4(SDQ)=  -0.46523528D-02        UMP4(SDQ)=  -0.15264501328D+03
 VARIATIONAL ENERGIES WITH THE FIRST-ORDER WAVEFUNCTION:
 DE(Corr)= -0.52669393     E(Corr)=     -152.63265854    
 NORM(A)=   0.10603215D+01
 Iteration Nr.   2
 **********************
 DD1Dir will call FoFMem   1 times, MxPair=        72
 NAB=    36 NAA=     0 NBB=     0.
 A-vector RMS=  2.1098487D-04 Max=  1.4789918D-03 conv= 1.00D-05.
 RLE energy=       -0.5378396080
 DE(Corr)= -0.53669665     E(CORR)=     -152.64266126     Delta=-1.00D-02
 NORM(A)=   0.10641156D+01
 Iteration Nr.   3
 **********************
 DD1Dir will call FoFMem   1 times, MxPair=        72
 NAB=    36 NAA=     0 NBB=     0.
 A-vector RMS=  1.5231295D-04 Max=  1.1364747D-03 conv= 1.00D-05.
 RLE energy=       -0.5383419100
 DE(Corr)= -0.53774603     E(CORR)=     -152.64371064     Delta=-1.05D-03
 NORM(A)=   0.10647617D+01
 Iteration Nr.   4
 **********************
 DD1Dir will call FoFMem   1 times, MxPair=        72
 NAB=    36 NAA=     0 NBB=     0.
 A-vector RMS=  2.9902865D-05 Max=  1.5177610D-04 conv= 1.00D-05.
 RLE energy=       -0.5384231538
 DE(Corr)= -0.53838815     E(CORR)=     -152.64435276     Delta=-6.42D-04
 NORM(A)=   0.10648766D+01
 Iteration Nr.   5
 **********************
 DD1Dir will call FoFMem   1 times, MxPair=        72
 NAB=    36 NAA=     0 NBB=     0.
 A-vector RMS=  2.0056842D-05 Max=  2.0231258D-04 conv= 1.00D-05.
 RLE energy=       -0.5384343606
 DE(Corr)= -0.53842689     E(CORR)=     -152.64439150     Delta=-3.87D-05
 NORM(A)=   0.10648885D+01
 Iteration Nr.   6
 **********************
 DD1Dir will call FoFMem   1 times, MxPair=        72
 NAB=    36 NAA=     0 NBB=     0.
 A-vector RMS=  6.2010079D-06 Max=  5.8868077D-05 conv= 1.00D-05.
 RLE energy=       -0.5384252643
 DE(Corr)= -0.53843042     E(CORR)=     -152.64439503     Delta=-3.53D-06
 NORM(A)=   0.10648884D+01
 Iteration Nr.   7
 **********************
 DD1Dir will call FoFMem   1 times, MxPair=        72
 NAB=    36 NAA=     0 NBB=     0.
 A-vector RMS=  2.7747556D-06 Max=  2.8383973D-05 conv= 1.00D-05.
 RLE energy=       -0.5384304621
 DE(Corr)= -0.53843059     E(CORR)=     -152.64439520     Delta=-1.74D-07
 NORM(A)=   0.10648905D+01
 Iteration Nr.   8
 **********************
 DD1Dir will call FoFMem   1 times, MxPair=        72
 NAB=    36 NAA=     0 NBB=     0.
 A-vector RMS=  9.7838926D-07 Max=  1.0643349D-05 conv= 1.00D-05.
 RLE energy=       -0.5384298814
 DE(Corr)= -0.53843009     E(CORR)=     -152.64439470     Delta= 4.98D-07
 NORM(A)=   0.10648907D+01
 Iteration Nr.   9
 **********************
 DD1Dir will call FoFMem   1 times, MxPair=        72
 NAB=    36 NAA=     0 NBB=     0.
 A-vector RMS=  1.7660647D-07 Max=  1.9501593D-06 conv= 1.00D-05.
 RLE energy=       -0.5384301543
 DE(Corr)= -0.53843023     E(CORR)=     -152.64439484     Delta=-1.38D-07
 NORM(A)=   0.10648911D+01
 Iteration Nr.  10
 **********************
 DD1Dir will call FoFMem   1 times, MxPair=        72
 NAB=    36 NAA=     0 NBB=     0.
 A-vector RMS=  7.7593613D-08 Max=  7.6415437D-07 conv= 1.00D-05.
 RLE energy=       -0.5384303595
 DE(Corr)= -0.53843034     E(CORR)=     -152.64439495     Delta=-1.12D-07
 NORM(A)=   0.10648913D+01
 Iteration Nr.  11
 **********************
 DD1Dir will call FoFMem   1 times, MxPair=        72
 NAB=    36 NAA=     0 NBB=     0.
 A-vector RMS=  2.7373082D-08 Max=  2.7827212D-07 conv= 1.00D-05.
 RLE energy=       -0.5384304124
 DE(Corr)= -0.53843040     E(CORR)=     -152.64439501     Delta=-5.45D-08
 NORM(A)=   0.10648913D+01
 CI/CC converged in   11 iterations to DelEn=-5.45D-08 Conv= 1.00D-07 ErrA1= 2.74D-08 Conv= 1.00D-05
 Wavefunction amplitudes converged. E(Corr)=     -152.64439501    
 Largest amplitude= 3.04D-02
 IPart=  2 IA=    7   11.05% done.
 IPart=  2 IA=   13   21.46% done.
 IPart=  2 IA=   19   31.21% done.
 IPart=  3 IA=   25   40.32% done.
 IPart=  3 IA=   32   50.13% done.
 IPart=  3 IA=   40   60.27% done.
 IPart=  2 IA=   49   70.30% done.
 IPart=  1 IA=   60   80.58% done.
 IPart=  3 IA=   74   90.51% done.
 Time for triples=       46.46 seconds.
 T4(CCSD)= -0.16208238D-01
 T5(CCSD)=  0.41879476D-03
 CCSD(T)= -0.15266018445D+03
 Discarding MO integrals.
 Leave Link  913 at Sat Aug 27 05:04:58 2022, MaxMem=   536870912 cpu:              69.9 elap:              17.6
 (Enter /usr/site/hpc/x86_64/glibc-2.17/broadwell/gaussian/g16_a.03/pgi-16.5/g16/l601.exe)
 Copying SCF densities to generalized density rwf, IOpCl= 0 IROHF=0.

 **********************************************************************

            Population analysis using the SCF density.

 **********************************************************************

 Orbital symmetries:
       Occupied  (A') (A') (A') (A') (A') (A') (A') (A') (A") (A")
       Virtual   (A') (A') (A') (A') (A') (A') (A') (A') (A') (A')
                 (A') (A") (A') (A") (A") (A") (A') (A") (A") (A')
                 (A') (A') (A') (A') (A') (A') (A') (A') (A") (A")
                 (A") (A') (A") (A') (A') (A') (A') (A') (A') (A')
                 (A') (A') (A") (A") (A') (A') (A") (A") (A') (A')
                 (A") (A") (A') (A') (A') (A") (A") (A') (A") (A")
                 (A') (A') (A') (A') (A") (A") (A') (A') (A') (A')
                 (A") (A") (A') (A') (A') (A') (A') (A') (A') (A')
                 (A") (A") (A') (A') (A") (A") (A") (A") (A') (A')
                 (A") (A") (A') (A') (A') (A') (A") (A") (A') (A')
                 (A') (A') (A') (A') (A') (A')
 The electronic state is 1-A'.
 Alpha  occ. eigenvalues --  -20.55265 -20.53812  -1.32557  -1.31069  -0.69979
 Alpha  occ. eigenvalues --   -0.68465  -0.56017  -0.54290  -0.49672  -0.48177
 Alpha virt. eigenvalues --    0.13633   0.16707   0.20065   0.22947   0.54209
 Alpha virt. eigenvalues --    0.55414   0.57445   0.58395   0.65868   0.76184
 Alpha virt. eigenvalues --    0.77352   0.77427   0.79156   0.81848   0.85041
 Alpha virt. eigenvalues --    0.86533   0.88174   0.97499   0.99836   1.05990
 Alpha virt. eigenvalues --    1.13794   1.15199   1.19011   1.26060   1.51882
 Alpha virt. eigenvalues --    1.52270   1.53675   1.54904   2.00872   2.02554
 Alpha virt. eigenvalues --    2.07021   2.07761   2.08546   2.15425   2.17637
 Alpha virt. eigenvalues --    2.23564   2.30069   2.34803   2.61595   2.64741
 Alpha virt. eigenvalues --    2.93225   2.95428   3.39606   3.41112   3.50289
 Alpha virt. eigenvalues --    3.51708   3.53349   3.54807   3.59666   3.61610
 Alpha virt. eigenvalues --    3.78902   3.80376   3.84295   3.87430   3.90962
 Alpha virt. eigenvalues --    3.93802   3.95153   3.95294   4.03231   4.05228
 Alpha virt. eigenvalues --    4.08419   4.11405   4.15955   4.17553   4.30357
 Alpha virt. eigenvalues --    4.31830   4.41325   4.43197   4.45811   4.48927
 Alpha virt. eigenvalues --    4.66610   4.68509   4.83305   4.85439   5.04938
 Alpha virt. eigenvalues --    5.07309   5.25463   5.26020   5.55197   5.57960
 Alpha virt. eigenvalues --    5.98206   5.99663   6.40648   6.42274   6.86444
 Alpha virt. eigenvalues --    6.87928   6.89913   6.91392   6.95091   6.96804
 Alpha virt. eigenvalues --    6.99389   7.00910   7.08106   7.10949   7.15513
 Alpha virt. eigenvalues --    7.16664   7.18565   7.20077   7.47649   7.49710
 Alpha virt. eigenvalues --    7.71504   7.74397   8.15770   8.18313  12.47812
 Alpha virt. eigenvalues --   12.63990
          Condensed to atoms (all electrons):
               1          2          3          4          5          6
     1  O    7.824426   0.322242   0.335375  -0.000573  -0.000028   0.005345
     2  H    0.322242   0.468422  -0.029396   0.000187  -0.000010  -0.000640
     3  H    0.335375  -0.029396   0.442017   0.000352  -0.000010  -0.000381
     4  O   -0.000573   0.000187   0.000352   7.827719   0.325155   0.339421
     5  H   -0.000028  -0.000010  -0.000010   0.325155   0.473654  -0.032888
     6  H    0.005345  -0.000640  -0.000381   0.339421  -0.032888   0.435461
 Mulliken charges:
               1
     1  O   -0.486786
     2  H    0.239195
     3  H    0.252043
     4  O   -0.492262
     5  H    0.234128
     6  H    0.253683
 Sum of Mulliken charges =  -0.00000
 Mulliken charges with hydrogens summed into heavy atoms:
               1
     1  O    0.004452
     4  O   -0.004452
 Electronic spatial extent (au):  <R**2>=            231.3954
 Charge=             -0.0000 electrons
 Dipole moment (field-independent basis, Debye):
    X=             -1.6287    Y=             -1.0819    Z=              0.0000  Tot=              1.9553
 Quadrupole moment (field-independent basis, Debye-Ang):
   XX=             -9.3738   YY=             -1.2494   ZZ=            -14.7170
   XY=             -2.0862   XZ=              0.0000   YZ=              0.0000
 Traceless Quadrupole moment (field-independent basis, Debye-Ang):
   XX=             -0.9270   YY=              7.1973   ZZ=             -6.2703
   XY=             -2.0862   XZ=              0.0000   YZ=              0.0000
 Octapole moment (field-independent basis, Debye-Ang**2):
  XXX=             -1.3218  YYY=              0.1665  ZZZ=              0.0000  XYY=             -1.5995
  XXY=             -4.7155  XXZ=              0.0000  XZZ=             -0.1945  YZZ=             -0.1727
  YYZ=              0.0000  XYZ=              0.0000
 Hexadecapole moment (field-independent basis, Debye-Ang**3):
 XXXX=            -11.4850 YYYY=           -120.5072 ZZZZ=            -11.3530 XXXY=             -0.2823
 XXXZ=              0.0000 YYYX=             -1.5158 YYYZ=              0.0000 ZZZX=              0.0000
 ZZZY=              0.0000 XXYY=            -27.2032 XXZZ=             -4.4509 YYZZ=            -44.2703
 XXYZ=              0.0000 YYXZ=              0.0000 ZZXY=              0.7080
 N-N= 3.378411059862D+01 E-N=-4.291999955149D+02  KE= 1.518059114324D+02
 Symmetry A'   KE= 1.427677447517D+02
 Symmetry A"   KE= 9.038166680784D+00
 Leave Link  601 at Sat Aug 27 05:04:58 2022, MaxMem=   536870912 cpu:               0.1 elap:               0.0
 (Enter /usr/site/hpc/x86_64/glibc-2.17/broadwell/gaussian/g16_a.03/pgi-16.5/g16/l9999.exe)
 1\1\GINC-N003\SP\RCCSD(T)-FC\CC-pVTZ\H4O2\C7441284\27-Aug-2022\0\\#p C
 CSD(T)/cc-pVTZ\\H2O_H2O_1491\\0,1\O,0,0.,-0.009833,0.\H,0,-0.799571,-0
 .580965,0.\H,0,0.799571,-0.580965,0.\O,0,-0.008516,3.161366,0.\H,0,-0.
 103345,4.139381,0.\H,0,-0.902916,2.754482,0.\\Version=ES64L-G16RevA.03
 \State=1-A'\HF=-152.1059646\MP2=-152.6329998\MP3=-152.6403609\MP4D=-15
 2.6495209\MP4DQ=-152.64189\MP4SDQ=-152.6450133\CCSD=-152.644395\CCSD(T
 )=-152.6601844\RMSD=8.660e-09\PG=CS [SG(H4O2)]\\@


 OUR LITTLE SYSTEMS HAVE THEIR DAY,    
   THEY HAVE THEIR DAY AND CEASE TO BE.
   THEY ARE BUT BROKEN LIGHTS OF THEE, 
 AND THOU, OH LORD, ART MORE THAN THEY.
          -------------------          
 LET KNOWLEDGE GROW FROM MORE TO MORE, 
   BUT MORE OF REVERENCE IN US DWELL.  
   THAT MIND AND SOUL, ACCORDING WELL, 
 MAY MAKE ONE MUSIC AS BEFORE.....     
          -------------------          
                    LORD TENNYSON      
 Job cpu time:       0 days  0 hours  1 minutes 19.9 seconds.
 Elapsed time:       0 days  0 hours  0 minutes 20.4 seconds.
 File lengths (MBytes):  RWF=    356 Int=      0 D2E=      0 Chk=      8 Scr=      8
 Normal termination of Gaussian 16 at Sat Aug 27 05:04:58 2022.
