 Entering Gaussian System, Link 0=g16
 Input=H2O_H2O_4206.com
 Output=H2O_H2O_4206.log
 Initial command:
 /usr/site/hpc/x86_64/glibc-2.17/broadwell/gaussian/g16_a.03/pgi-16.5/g16/l1.exe "/gpfs/gpfs1/scratch/c7441284/ForceFieldModel/FittingData/Gau-3653075.inp" -scrdir="/gpfs/gpfs1/scratch/c7441284/ForceFieldModel/FittingData/"
 Entering Link 1 = /usr/site/hpc/x86_64/glibc-2.17/broadwell/gaussian/g16_a.03/pgi-16.5/g16/l1.exe PID=   3653076.
  
 Copyright (c) 1988,1990,1992,1993,1995,1998,2003,2009,2016,
            Gaussian, Inc.  All Rights Reserved.
  
 This is part of the Gaussian(R) 16 program.  It is based on
 the Gaussian(R) 09 system (copyright 2009, Gaussian, Inc.),
 the Gaussian(R) 03 system (copyright 2003, Gaussian, Inc.),
 the Gaussian(R) 98 system (copyright 1998, Gaussian, Inc.),
 the Gaussian(R) 94 system (copyright 1995, Gaussian, Inc.),
 the Gaussian 92(TM) system (copyright 1992, Gaussian, Inc.),
 the Gaussian 90(TM) system (copyright 1990, Gaussian, Inc.),
 the Gaussian 88(TM) system (copyright 1988, Gaussian, Inc.),
 the Gaussian 86(TM) system (copyright 1986, Carnegie Mellon
 University), and the Gaussian 82(TM) system (copyright 1983,
 Carnegie Mellon University). Gaussian is a federally registered
 trademark of Gaussian, Inc.
  
 This software contains proprietary and confidential information,
 including trade secrets, belonging to Gaussian, Inc.
  
 This software is provided under written license and may be
 used, copied, transmitted, or stored only in accord with that
 written license.
  
 The following legend is applicable only to US Government
 contracts under FAR:
  
                    RESTRICTED RIGHTS LEGEND
  
 Use, reproduction and disclosure by the US Government is
 subject to restrictions as set forth in subparagraphs (a)
 and (c) of the Commercial Computer Software - Restricted
 Rights clause in FAR 52.227-19.
  
 Gaussian, Inc.
 340 Quinnipiac St., Bldg. 40, Wallingford CT 06492
  
  
 ---------------------------------------------------------------
 Warning -- This program may not be used in any manner that
 competes with the business of Gaussian, Inc. or will provide
 assistance to any competitor of Gaussian, Inc.  The licensee
 of this program is prohibited from giving any competitor of
 Gaussian, Inc. access to this program.  By using this program,
 the user acknowledges that Gaussian, Inc. is engaged in the
 business of creating and licensing software in the field of
 computational chemistry and represents and warrants to the
 licensee that it is not a competitor of Gaussian, Inc. and that
 it will not use this program in any manner prohibited above.
 ---------------------------------------------------------------
  

 Cite this work as:
 Gaussian 16, Revision A.03,
 M. J. Frisch, G. W. Trucks, H. B. Schlegel, G. E. Scuseria, 
 M. A. Robb, J. R. Cheeseman, G. Scalmani, V. Barone, 
 G. A. Petersson, H. Nakatsuji, X. Li, M. Caricato, A. V. Marenich, 
 J. Bloino, B. G. Janesko, R. Gomperts, B. Mennucci, H. P. Hratchian, 
 J. V. Ortiz, A. F. Izmaylov, J. L. Sonnenberg, D. Williams-Young, 
 F. Ding, F. Lipparini, F. Egidi, J. Goings, B. Peng, A. Petrone, 
 T. Henderson, D. Ranasinghe, V. G. Zakrzewski, J. Gao, N. Rega, 
 G. Zheng, W. Liang, M. Hada, M. Ehara, K. Toyota, R. Fukuda, 
 J. Hasegawa, M. Ishida, T. Nakajima, Y. Honda, O. Kitao, H. Nakai, 
 T. Vreven, K. Throssell, J. A. Montgomery, Jr., J. E. Peralta, 
 F. Ogliaro, M. J. Bearpark, J. J. Heyd, E. N. Brothers, K. N. Kudin, 
 V. N. Staroverov, T. A. Keith, R. Kobayashi, J. Normand, 
 K. Raghavachari, A. P. Rendell, J. C. Burant, S. S. Iyengar, 
 J. Tomasi, M. Cossi, J. M. Millam, M. Klene, C. Adamo, R. Cammi, 
 J. W. Ochterski, R. L. Martin, K. Morokuma, O. Farkas, 
 J. B. Foresman, and D. J. Fox, Gaussian, Inc., Wallingford CT, 2016.
 
 ******************************************
 Gaussian 16:  ES64L-G16RevA.03 25-Dec-2016
                27-Aug-2022 
 ******************************************
 %NProcShared=4
 Will use up to    4 processors via shared memory.
 %Mem=4GB
 %Chk=H2O_H2O_4206.chk
 ------------------
 #p CCSD(T)/cc-pVTZ
 ------------------
 1/38=1,172=1/1;
 2/12=2,17=6,18=5,40=1/2;
 3/5=16,6=1,11=9,25=1,30=1/1,2,3;
 4//1;
 5/5=2,38=5/2;
 8/6=4,9=120000,10=1/1,4;
 9/5=7,14=2/13;
 6/7=2,8=2,9=2,10=2/1;
 99/5=1,9=1/99;
 Leave Link    1 at Sat Aug 27 05:59:00 2022, MaxMem=   536870912 cpu:               0.2 elap:               0.1
 (Enter /usr/site/hpc/x86_64/glibc-2.17/broadwell/gaussian/g16_a.03/pgi-16.5/g16/l101.exe)
 ------------
 H2O_H2O_4206
 ------------
 Symbolic Z-matrix:
 Charge =  0 Multiplicity = 1
 O                     0.       -0.00983   0. 
 H                    -0.79957  -0.58097   0. 
 H                     0.79957  -0.58097   0. 
 O                    -0.00376   6.06404   0. 
 H                     0.51638   6.89768   0. 
 H                    -0.96103   6.28572   0. 
 
 ITRead=  0  0  0  0  0  0
 MicOpt= -1 -1 -1 -1 -1 -1
 NAtoms=      6 NQM=        6 NQMF=       0 NMMI=      0 NMMIF=      0
                NMic=       0 NMicF=      0.
                    Isotopes and Nuclear Properties:
 (Nuclear quadrupole moments (NQMom) in fm**2, nuclear magnetic moments (NMagM)
  in nuclear magnetons)

  Atom         1           2           3           4           5           6
 IAtWgt=          16           1           1          16           1           1
 AtmWgt=  15.9949146   1.0078250   1.0078250  15.9949146   1.0078250   1.0078250
 NucSpn=           0           1           1           0           1           1
 AtZEff=  -0.0000000  -0.0000000  -0.0000000  -0.0000000  -0.0000000  -0.0000000
 NQMom=    0.0000000   0.0000000   0.0000000   0.0000000   0.0000000   0.0000000
 NMagM=    0.0000000   2.7928460   2.7928460   0.0000000   2.7928460   2.7928460
 AtZNuc=   8.0000000   1.0000000   1.0000000   8.0000000   1.0000000   1.0000000
 Leave Link  101 at Sat Aug 27 05:59:00 2022, MaxMem=   536870912 cpu:               0.3 elap:               0.1
 (Enter /usr/site/hpc/x86_64/glibc-2.17/broadwell/gaussian/g16_a.03/pgi-16.5/g16/l202.exe)
                          Input orientation:                          
 ---------------------------------------------------------------------
 Center     Atomic      Atomic             Coordinates (Angstroms)
 Number     Number       Type             X           Y           Z
 ---------------------------------------------------------------------
      1          8           0        0.000000   -0.009833    0.000000
      2          1           0       -0.799571   -0.580965    0.000000
      3          1           0        0.799571   -0.580965    0.000000
      4          8           0       -0.003763    6.064042    0.000000
      5          1           0        0.516382    6.897682    0.000000
      6          1           0       -0.961033    6.285716    0.000000
 ---------------------------------------------------------------------
                    Distance matrix (angstroms):
                    1          2          3          4          5
     1  O    0.000000
     2  H    0.982601   0.000000
     3  H    0.982601   1.599142   0.000000
     4  O    6.073876   6.692490   6.693390   0.000000
     5  H    6.926790   7.593543   7.484007   0.982602   0.000000
     6  H    6.368479   6.868579   7.088796   0.982601   1.599143
                    6
     6  H    0.000000
 Stoichiometry    H4O2
 Framework group  CS[SG(H4O2)]
 Deg. of freedom     9
 Full point group                 CS      NOp   2
 Largest Abelian subgroup         CS      NOp   2
 Largest concise Abelian subgroup C1      NOp   1
                         Standard orientation:                         
 ---------------------------------------------------------------------
 Center     Atomic      Atomic             Coordinates (Angstroms)
 Number     Number       Type             X           Y           Z
 ---------------------------------------------------------------------
      1          8           0        0.021859   -3.032604    0.000000
      2          1           0       -0.778066   -3.603241    0.000000
      3          1           0        0.821076   -3.604231    0.000000
      4          8           0        0.021859    3.041272    0.000000
      5          1           0        0.542520    3.874590    0.000000
      6          1           0       -0.935274    3.263539    0.000000
 ---------------------------------------------------------------------
 Rotational constants (GHZ):         204.1000582           1.4560584           1.4457444
 Leave Link  202 at Sat Aug 27 05:59:00 2022, MaxMem=   536870912 cpu:               0.0 elap:               0.0
 (Enter /usr/site/hpc/x86_64/glibc-2.17/broadwell/gaussian/g16_a.03/pgi-16.5/g16/l301.exe)
 Standard basis: CC-pVTZ (5D, 7F)
 Ernie: Thresh=  0.10000D-02 Tol=  0.10000D-05 Strict=F.
 Ernie:  6 primitive shells out of 84 were deleted.
 There are    92 symmetry adapted cartesian basis functions of A'  symmetry.
 There are    38 symmetry adapted cartesian basis functions of A"  symmetry.
 There are    80 symmetry adapted basis functions of A'  symmetry.
 There are    36 symmetry adapted basis functions of A"  symmetry.
   116 basis functions,   172 primitive gaussians,   130 cartesian basis functions
    10 alpha electrons       10 beta electrons
       nuclear repulsion energy        26.3042765923 Hartrees.
 IExCor=    0 DFT=F Ex=HF Corr=None ExCW=0 ScaHFX=  1.000000
 ScaDFX=  1.000000  1.000000  1.000000  1.000000 ScalE2=  1.000000  1.000000
 IRadAn=      5 IRanWt=     -1 IRanGd=            0 ICorTp=0 IEmpDi=  4
 NAtoms=    6 NActive=    6 NUniq=    6 SFac= 1.00D+00 NAtFMM=   60 NAOKFM=F Big=F
 Integral buffers will be    131072 words long.
 Raffenetti 1 integral format.
 Two-electron integral symmetry is turned on.
 Leave Link  301 at Sat Aug 27 05:59:00 2022, MaxMem=   536870912 cpu:               0.2 elap:               0.1
 (Enter /usr/site/hpc/x86_64/glibc-2.17/broadwell/gaussian/g16_a.03/pgi-16.5/g16/l302.exe)
 NPDir=0 NMtPBC=     1 NCelOv=     1 NCel=       1 NClECP=     1 NCelD=      1
         NCelK=      1 NCelE2=     1 NClLst=     1 CellRange=     0.0.
 One-electron integrals computed using PRISM.
 One-electron integral symmetry used in STVInt
 NBasis=   116 RedAO= T EigKep=  2.69D-03  NBF=    80    36
 NBsUse=   116 1.00D-06 EigRej= -1.00D+00 NBFU=    80    36
 Leave Link  302 at Sat Aug 27 05:59:00 2022, MaxMem=   536870912 cpu:               0.3 elap:               0.1
 (Enter /usr/site/hpc/x86_64/glibc-2.17/broadwell/gaussian/g16_a.03/pgi-16.5/g16/l303.exe)
 DipDrv:  MaxL=1.
 Leave Link  303 at Sat Aug 27 05:59:00 2022, MaxMem=   536870912 cpu:               0.1 elap:               0.0
 (Enter /usr/site/hpc/x86_64/glibc-2.17/broadwell/gaussian/g16_a.03/pgi-16.5/g16/l401.exe)
 ExpMin= 1.03D-01 ExpMax= 1.53D+04 ExpMxC= 5.22D+02 IAcc=3 IRadAn=         5 AccDes= 0.00D+00
 Harris functional with IExCor=  205 and IRadAn=       5 diagonalized for initial guess.
 HarFok:  IExCor=  205 AccDes= 0.00D+00 IRadAn=         5 IDoV= 1 UseB2=F ITyADJ=14
 ICtDFT=  3500011 ScaDFX=  1.000000  1.000000  1.000000  1.000000
 FoFCou: FMM=F IPFlag=           0 FMFlag=      100000 FMFlg1=           0
         NFxFlg=           0 DoJE=T BraDBF=F KetDBF=T FulRan=T
         wScrn=  0.000000 ICntrl=       500 IOpCl=  0 I1Cent=   200000004 NGrid=           0
         NMat0=    1 NMatS0=      1 NMatT0=    0 NMatD0=    1 NMtDS0=    0 NMtDT0=    0
 Petite list used in FoFCou.
 Harris En= -152.298684842680    
 JPrj=0 DoOrth=F DoCkMO=F.
 Initial guess orbital symmetries:
       Occupied  (A') (A') (A') (A') (A') (A') (A') (A') (A") (A")
       Virtual   (A') (A') (A') (A') (A') (A') (A') (A') (A') (A')
                 (A") (A") (A') (A') (A') (A') (A") (A") (A") (A")
                 (A') (A') (A') (A') (A') (A') (A') (A') (A") (A")
                 (A") (A") (A') (A') (A') (A') (A') (A') (A') (A')
                 (A') (A') (A") (A") (A') (A') (A") (A") (A") (A")
                 (A') (A') (A') (A') (A') (A') (A") (A") (A') (A')
                 (A') (A') (A") (A") (A") (A") (A') (A') (A') (A')
                 (A") (A") (A') (A') (A') (A') (A') (A') (A') (A')
                 (A") (A") (A') (A') (A") (A") (A") (A") (A') (A')
                 (A") (A") (A') (A') (A') (A') (A") (A") (A') (A')
                 (A') (A') (A') (A') (A') (A')
 The electronic state of the initial guess is 1-A'.
 Leave Link  401 at Sat Aug 27 05:59:00 2022, MaxMem=   536870912 cpu:               0.7 elap:               0.2
 (Enter /usr/site/hpc/x86_64/glibc-2.17/broadwell/gaussian/g16_a.03/pgi-16.5/g16/l502.exe)
 Keep R1 ints in memory in symmetry-blocked form, NReq=34823457.
 FoFCou: FMM=F IPFlag=           0 FMFlag=           0 FMFlg1=           0
         NFxFlg=           0 DoJE=F BraDBF=F KetDBF=F FulRan=T
         wScrn=  0.000000 ICntrl=       600 IOpCl=  0 I1Cent=           0 NGrid=           0
         NMat0=    1 NMatS0=   6786 NMatT0=    0 NMatD0=    1 NMtDS0=    0 NMtDT0=    0
 Petite list used in FoFCou.
 Closed shell SCF:
 Using DIIS extrapolation, IDIIS=  1040.
 NGot=   536870912 LenX=   525040673 LenY=   525023332
 Requested convergence on RMS density matrix=1.00D-08 within 128 cycles.
 Requested convergence on MAX density matrix=1.00D-06.
 Requested convergence on             energy=1.00D-06.
 No special actions if energy rises.

 Cycle   1  Pass 1  IDiag  1:
 E= -151.925699723031    
 DIIS: error= 5.45D-02 at cycle   1 NSaved=   1.
 NSaved= 1 IEnMin= 1 EnMin= -151.925699723031     IErMin= 1 ErrMin= 5.45D-02
 ErrMax= 5.45D-02  0.00D+00 EMaxC= 1.00D-01 BMatC= 4.01D-01 BMatP= 4.01D-01
 IDIUse=3 WtCom= 4.55D-01 WtEn= 5.45D-01
 Coeff-Com:  0.100D+01
 Coeff-En:   0.100D+01
 Coeff:      0.100D+01
 Gap=     0.521 Goal=   None    Shift=    0.000
 GapD=    0.521 DampG=2.000 DampE=0.500 DampFc=1.0000 IDamp=-1.
 RMSDP=2.51D-03 MaxDP=6.62D-02              OVMax= 1.28D-01

 Cycle   2  Pass 1  IDiag  1:
 E= -152.037753669290     Delta-E=       -0.112053946259 Rises=F Damp=F
 DIIS: error= 3.56D-02 at cycle   2 NSaved=   2.
 NSaved= 2 IEnMin= 2 EnMin= -152.037753669290     IErMin= 2 ErrMin= 3.56D-02
 ErrMax= 3.56D-02  0.00D+00 EMaxC= 1.00D-01 BMatC= 1.14D-01 BMatP= 4.01D-01
 IDIUse=3 WtCom= 6.44D-01 WtEn= 3.56D-01
 Coeff-Com:  0.320D+00 0.680D+00
 Coeff-En:   0.168D+00 0.832D+00
 Coeff:      0.266D+00 0.734D+00
 Gap=     0.662 Goal=   None    Shift=    0.000
 RMSDP=1.31D-03 MaxDP=3.91D-02 DE=-1.12D-01 OVMax= 5.67D-02

 Cycle   3  Pass 1  IDiag  1:
 E= -152.103450026264     Delta-E=       -0.065696356974 Rises=F Damp=F
 DIIS: error= 7.99D-03 at cycle   3 NSaved=   3.
 NSaved= 3 IEnMin= 3 EnMin= -152.103450026264     IErMin= 3 ErrMin= 7.99D-03
 ErrMax= 7.99D-03  0.00D+00 EMaxC= 1.00D-01 BMatC= 5.24D-03 BMatP= 1.14D-01
 IDIUse=3 WtCom= 9.20D-01 WtEn= 7.99D-02
 Coeff-Com: -0.303D-01 0.144D+00 0.886D+00
 Coeff-En:   0.000D+00 0.000D+00 0.100D+01
 Coeff:     -0.279D-01 0.133D+00 0.895D+00
 Gap=     0.636 Goal=   None    Shift=    0.000
 RMSDP=2.28D-04 MaxDP=5.18D-03 DE=-6.57D-02 OVMax= 1.27D-02

 Cycle   4  Pass 1  IDiag  1:
 E= -152.106753436957     Delta-E=       -0.003303410693 Rises=F Damp=F
 DIIS: error= 7.55D-04 at cycle   4 NSaved=   4.
 NSaved= 4 IEnMin= 4 EnMin= -152.106753436957     IErMin= 4 ErrMin= 7.55D-04
 ErrMax= 7.55D-04  0.00D+00 EMaxC= 1.00D-01 BMatC= 3.28D-05 BMatP= 5.24D-03
 IDIUse=3 WtCom= 9.92D-01 WtEn= 7.55D-03
 Coeff-Com:  0.707D-02-0.583D-01-0.256D+00 0.131D+01
 Coeff-En:   0.000D+00 0.000D+00 0.000D+00 0.100D+01
 Coeff:      0.702D-02-0.578D-01-0.254D+00 0.130D+01
 Gap=     0.639 Goal=   None    Shift=    0.000
 RMSDP=5.18D-05 MaxDP=9.85D-04 DE=-3.30D-03 OVMax= 2.29D-03

 Cycle   5  Pass 1  IDiag  1:
 E= -152.106801955303     Delta-E=       -0.000048518345 Rises=F Damp=F
 DIIS: error= 1.80D-04 at cycle   5 NSaved=   5.
 NSaved= 5 IEnMin= 5 EnMin= -152.106801955303     IErMin= 5 ErrMin= 1.80D-04
 ErrMax= 1.80D-04  0.00D+00 EMaxC= 1.00D-01 BMatC= 1.30D-06 BMatP= 3.28D-05
 IDIUse=3 WtCom= 9.98D-01 WtEn= 1.80D-03
 Coeff-Com:  0.539D-03 0.729D-04-0.262D-02-0.208D+00 0.121D+01
 Coeff-En:   0.000D+00 0.000D+00 0.000D+00 0.000D+00 0.100D+01
 Coeff:      0.538D-03 0.728D-04-0.262D-02-0.207D+00 0.121D+01
 Gap=     0.640 Goal=   None    Shift=    0.000
 RMSDP=1.37D-05 MaxDP=2.80D-04 DE=-4.85D-05 OVMax= 6.72D-04

 Cycle   6  Pass 1  IDiag  1:
 E= -152.106804678761     Delta-E=       -0.000002723458 Rises=F Damp=F
 DIIS: error= 2.89D-05 at cycle   6 NSaved=   6.
 NSaved= 6 IEnMin= 6 EnMin= -152.106804678761     IErMin= 6 ErrMin= 2.89D-05
 ErrMax= 2.89D-05  0.00D+00 EMaxC= 1.00D-01 BMatC= 3.47D-08 BMatP= 1.30D-06
 IDIUse=1 WtCom= 1.00D+00 WtEn= 0.00D+00
 Coeff-Com: -0.287D-03 0.162D-02 0.745D-02-0.269D-02-0.260D+00 0.125D+01
 Coeff:     -0.287D-03 0.162D-02 0.745D-02-0.269D-02-0.260D+00 0.125D+01
 Gap=     0.640 Goal=   None    Shift=    0.000
 RMSDP=3.03D-06 MaxDP=6.56D-05 DE=-2.72D-06 OVMax= 1.54D-04

 Cycle   7  Pass 1  IDiag  1:
 E= -152.106804777105     Delta-E=       -0.000000098344 Rises=F Damp=F
 DIIS: error= 5.40D-06 at cycle   7 NSaved=   7.
 NSaved= 7 IEnMin= 7 EnMin= -152.106804777105     IErMin= 7 ErrMin= 5.40D-06
 ErrMax= 5.40D-06  0.00D+00 EMaxC= 1.00D-01 BMatC= 1.79D-09 BMatP= 3.47D-08
 IDIUse=1 WtCom= 1.00D+00 WtEn= 0.00D+00
 Coeff-Com:  0.375D-04-0.398D-03-0.185D-02 0.140D-01-0.991D-02-0.238D+00
 Coeff-Com:  0.124D+01
 Coeff:      0.375D-04-0.398D-03-0.185D-02 0.140D-01-0.991D-02-0.238D+00
 Coeff:      0.124D+01
 Gap=     0.640 Goal=   None    Shift=    0.000
 RMSDP=4.40D-07 MaxDP=9.64D-06 DE=-9.83D-08 OVMax= 2.95D-05

 Cycle   8  Pass 1  IDiag  1:
 E= -152.106804780918     Delta-E=       -0.000000003813 Rises=F Damp=F
 DIIS: error= 1.62D-06 at cycle   8 NSaved=   8.
 NSaved= 8 IEnMin= 8 EnMin= -152.106804780918     IErMin= 8 ErrMin= 1.62D-06
 ErrMax= 1.62D-06  0.00D+00 EMaxC= 1.00D-01 BMatC= 9.38D-11 BMatP= 1.79D-09
 IDIUse=1 WtCom= 1.00D+00 WtEn= 0.00D+00
 Coeff-Com:  0.256D-05 0.500D-04 0.285D-03-0.517D-02 0.188D-01 0.148D-01
 Coeff-Com: -0.415D+00 0.139D+01
 Coeff:      0.256D-05 0.500D-04 0.285D-03-0.517D-02 0.188D-01 0.148D-01
 Coeff:     -0.415D+00 0.139D+01
 Gap=     0.640 Goal=   None    Shift=    0.000
 RMSDP=1.14D-07 MaxDP=2.37D-06 DE=-3.81D-09 OVMax= 6.46D-06

 Cycle   9  Pass 1  IDiag  1:
 E= -152.106804781133     Delta-E=       -0.000000000216 Rises=F Damp=F
 DIIS: error= 2.05D-07 at cycle   9 NSaved=   9.
 NSaved= 9 IEnMin= 9 EnMin= -152.106804781133     IErMin= 9 ErrMin= 2.05D-07
 ErrMax= 2.05D-07  0.00D+00 EMaxC= 1.00D-01 BMatC= 2.82D-12 BMatP= 9.38D-11
 IDIUse=1 WtCom= 1.00D+00 WtEn= 0.00D+00
 Coeff-Com: -0.458D-06 0.130D-04 0.624D-04-0.800D-03 0.255D-02 0.360D-02
 Coeff-Com: -0.528D-01 0.921D-01 0.955D+00
 Coeff:     -0.458D-06 0.130D-04 0.624D-04-0.800D-03 0.255D-02 0.360D-02
 Coeff:     -0.528D-01 0.921D-01 0.955D+00
 Gap=     0.640 Goal=   None    Shift=    0.000
 RMSDP=1.19D-08 MaxDP=3.51D-07 DE=-2.16D-10 OVMax= 7.72D-07

 Cycle  10  Pass 1  IDiag  1:
 E= -152.106804781137     Delta-E=       -0.000000000004 Rises=F Damp=F
 DIIS: error= 9.46D-08 at cycle  10 NSaved=  10.
 NSaved=10 IEnMin=10 EnMin= -152.106804781137     IErMin=10 ErrMin= 9.46D-08
 ErrMax= 9.46D-08  0.00D+00 EMaxC= 1.00D-01 BMatC= 5.60D-13 BMatP= 2.82D-12
 IDIUse=1 WtCom= 1.00D+00 WtEn= 0.00D+00
 Coeff-Com: -0.422D-06-0.460D-05-0.296D-04 0.568D-03-0.199D-02-0.231D-02
 Coeff-Com:  0.526D-01-0.194D+00 0.227D+00 0.919D+00
 Coeff:     -0.422D-06-0.460D-05-0.296D-04 0.568D-03-0.199D-02-0.231D-02
 Coeff:      0.526D-01-0.194D+00 0.227D+00 0.919D+00
 Gap=     0.640 Goal=   None    Shift=    0.000
 RMSDP=5.29D-09 MaxDP=1.73D-07 DE=-4.09D-12 OVMax= 3.43D-07

 SCF Done:  E(RHF) =  -152.106804781     A.U. after   10 cycles
            NFock= 10  Conv=0.53D-08     -V/T= 2.0020
 KE= 1.518053226152D+02 PE=-4.141082807411D+02 EE= 8.389187675247D+01
 Leave Link  502 at Sat Aug 27 05:59:01 2022, MaxMem=   536870912 cpu:               3.4 elap:               0.9
 (Enter /usr/site/hpc/x86_64/glibc-2.17/broadwell/gaussian/g16_a.03/pgi-16.5/g16/l801.exe)
 Windowed orbitals will be sorted by symmetry type.
 ExpMin= 1.03D-01 ExpMax= 1.53D+04 ExpMxC= 5.22D+02 IAcc=3 IRadAn=         5 AccDes= 0.00D+00
 HarFok:  IExCor=  205 AccDes= 0.00D+00 IRadAn=         5 IDoV=-2 UseB2=F ITyADJ=14
 ICtDFT= 12500011 ScaDFX=  1.000000  1.000000  1.000000  1.000000
 Largest valence mixing into a core orbital is  1.12D-04
 Largest core mixing into a valence orbital is  1.77D-05
 Range of M.O.s used for correlation:     3   116
 NBasis=   116 NAE=    10 NBE=    10 NFC=     2 NFV=     0
 NROrb=    114 NOA=     8 NOB=     8 NVA=   106 NVB=   106
 Leave Link  801 at Sat Aug 27 05:59:01 2022, MaxMem=   536870912 cpu:               0.3 elap:               0.1
 (Enter /usr/site/hpc/x86_64/glibc-2.17/broadwell/gaussian/g16_a.03/pgi-16.5/g16/l804.exe)
 Closed-shell transformation, MDV=   536870912 ITran=4 ISComp=2.
 Unit  1 TFree=        834515 TCopy=        406125.
 Semi-Direct transformation.
 ModeAB=           4 MOrb=             8 LenV=     536381456
 LASXX=      2873146 LTotXX=     2873146 LenRXX=     5831278
 LTotAB=     2958132 MaxLAS=     4848192 LenRXY=           0
 NonZer=     8704424 LenScr=    13107200 LnRSAI=     4848192
 LnScr1=     7340032 LExtra=           0 Total=     31126702
 MaxDsk=          -1 SrtSym=           T ITran=            4
 DoSDTr:  NPSUse=  4
 JobTyp=0 Pass  1:  I=   1 to   8.
 (rs|ai) integrals will be sorted in core.
 Complete sort for first half transformation.
 First half transformation complete.
 Complete sort for second half transformation.
 Second half transformation complete.
 Spin components of T(2) and E(2):
     alpha-alpha T2 =       0.1556377589D-01 E2=     -0.6379996213D-01
     alpha-beta  T2 =       0.9194471957D-01 E2=     -0.3983350622D+00
     beta-beta   T2 =       0.1556377589D-01 E2=     -0.6379996213D-01
 ANorm=    0.1059751042D+01
 E2 =    -0.5259349865D+00 EUMP2 =    -0.15263273976762D+03
 Leave Link  804 at Sat Aug 27 05:59:02 2022, MaxMem=   536870912 cpu:               2.8 elap:               0.7
 (Enter /usr/site/hpc/x86_64/glibc-2.17/broadwell/gaussian/g16_a.03/pgi-16.5/g16/l913.exe)
 CIDS:  MDV=   536870912.
 Frozen-core window:  NFC=   2 NFV=   0.
 IFCWin=0 IBDFC=1 NFBD=     0     0 NFCmp=     0     0 NFFFC=     0     0
 Using DD3R+UMP44R for 1st iteration.
 Using DD4RQ for 2nd and later iterations.
 Keep R2 and R3 ints in memory in symmetry-blocked form, NReq=35357534.
 FoFCou: FMM=F IPFlag=           0 FMFlag=           0 FMFlg1=           0
         NFxFlg=           0 DoJE=F BraDBF=F KetDBF=F FulRan=T
         wScrn=  0.000000 ICntrl=       600 IOpCl=  0 I1Cent=           0 NGrid=           0
         NMat0=    1 NMatS0=   6786 NMatT0=    0 NMatD0=    1 NMtDS0=    0 NMtDT0=    0
 Petite list used in FoFCou.
 CIDS: In Core Option IDoMem=           1.
 CCSD(T)
 =======
 Iterations=  50 Convergence= 0.100D-06
 Produce multiple copies of IABC intergrals
 Iteration Nr.   1
 **********************
 DD1Dir will call FoFMem   1 times, MxPair=        72
 NAB=    36 NAA=     0 NBB=     0.
 MP4(R+Q)=  0.75589315D-02
 Maximum subspace dimension=  5
 A-vector RMS=  1.7446350D-03 Max=  6.2144989D-03 conv= 1.00D-05.
 RLE energy=       -0.5258767465
 E3=       -0.75720748D-02        EUMP3=      -0.15264031184D+03
 E4(DQ)=   -0.15533403D-02        UMP4(DQ)=   -0.15264186518D+03
 E4(SDQ)=  -0.46136121D-02        UMP4(SDQ)=  -0.15264492545D+03
 VARIATIONAL ENERGIES WITH THE FIRST-ORDER WAVEFUNCTION:
 DE(Corr)= -0.52587675     E(Corr)=     -152.63268153    
 NORM(A)=   0.10601209D+01
 Iteration Nr.   2
 **********************
 DD1Dir will call FoFMem   1 times, MxPair=        72
 NAB=    36 NAA=     0 NBB=     0.
 A-vector RMS=  2.1221882D-04 Max=  2.3230932D-03 conv= 1.00D-05.
 RLE energy=       -0.5369477324
 DE(Corr)= -0.53578705     E(CORR)=     -152.64259183     Delta=-9.91D-03
 NORM(A)=   0.10638748D+01
 Iteration Nr.   3
 **********************
 DD1Dir will call FoFMem   1 times, MxPair=        72
 NAB=    36 NAA=     0 NBB=     0.
 A-vector RMS=  1.4184119D-04 Max=  8.5974183D-04 conv= 1.00D-05.
 RLE energy=       -0.5374441505
 DE(Corr)= -0.53685736     E(CORR)=     -152.64366214     Delta=-1.07D-03
 NORM(A)=   0.10645144D+01
 Iteration Nr.   4
 **********************
 DD1Dir will call FoFMem   1 times, MxPair=        72
 NAB=    36 NAA=     0 NBB=     0.
 A-vector RMS=  2.5953881D-05 Max=  1.4211457D-04 conv= 1.00D-05.
 RLE energy=       -0.5375273978
 DE(Corr)= -0.53749202     E(CORR)=     -152.64429680     Delta=-6.35D-04
 NORM(A)=   0.10646257D+01
 Iteration Nr.   5
 **********************
 DD1Dir will call FoFMem   1 times, MxPair=        72
 NAB=    36 NAA=     0 NBB=     0.
 A-vector RMS=  1.8923166D-05 Max=  1.6027358D-04 conv= 1.00D-05.
 RLE energy=       -0.5375358685
 DE(Corr)= -0.53752905     E(CORR)=     -152.64433383     Delta=-3.70D-05
 NORM(A)=   0.10646354D+01
 Iteration Nr.   6
 **********************
 DD1Dir will call FoFMem   1 times, MxPair=        72
 NAB=    36 NAA=     0 NBB=     0.
 A-vector RMS=  5.5745797D-06 Max=  4.1477424D-05 conv= 1.00D-05.
 RLE energy=       -0.5375266023
 DE(Corr)= -0.53753224     E(CORR)=     -152.64433702     Delta=-3.20D-06
 NORM(A)=   0.10646355D+01
 Iteration Nr.   7
 **********************
 DD1Dir will call FoFMem   1 times, MxPair=        72
 NAB=    36 NAA=     0 NBB=     0.
 A-vector RMS=  2.6747368D-06 Max=  2.3111657D-05 conv= 1.00D-05.
 RLE energy=       -0.5375334242
 DE(Corr)= -0.53753238     E(CORR)=     -152.64433717     Delta=-1.42D-07
 NORM(A)=   0.10646379D+01
 Iteration Nr.   8
 **********************
 DD1Dir will call FoFMem   1 times, MxPair=        72
 NAB=    36 NAA=     0 NBB=     0.
 A-vector RMS=  5.1253708D-07 Max=  4.0820117D-06 conv= 1.00D-05.
 RLE energy=       -0.5375317780
 DE(Corr)= -0.53753195     E(CORR)=     -152.64433673     Delta= 4.38D-07
 NORM(A)=   0.10646381D+01
 Iteration Nr.   9
 **********************
 DD1Dir will call FoFMem   1 times, MxPair=        72
 NAB=    36 NAA=     0 NBB=     0.
 A-vector RMS=  1.0979139D-07 Max=  8.3089963D-07 conv= 1.00D-05.
 RLE energy=       -0.5375322855
 DE(Corr)= -0.53753224     E(CORR)=     -152.64433702     Delta=-2.94D-07
 NORM(A)=   0.10646383D+01
 Iteration Nr.  10
 **********************
 DD1Dir will call FoFMem   1 times, MxPair=        72
 NAB=    36 NAA=     0 NBB=     0.
 A-vector RMS=  3.3310398D-08 Max=  2.5782716D-07 conv= 1.00D-05.
 RLE energy=       -0.5375322291
 DE(Corr)= -0.53753222     E(CORR)=     -152.64433700     Delta= 2.37D-08
 NORM(A)=   0.10646384D+01
 CI/CC converged in   10 iterations to DelEn= 2.37D-08 Conv= 1.00D-07 ErrA1= 3.33D-08 Conv= 1.00D-05
 Wavefunction amplitudes converged. E(Corr)=     -152.64433700    
 Largest amplitude= 4.79D-02
 IPart=  3 IA=    7   11.05% done.
 IPart=  2 IA=   13   21.46% done.
 IPart=  2 IA=   19   31.21% done.
 IPart=  2 IA=   25   40.32% done.
 IPart=  2 IA=   32   50.13% done.
 IPart=  4 IA=   40   60.27% done.
 IPart=  2 IA=   49   70.30% done.
 IPart=  2 IA=   60   80.58% done.
 IPart=  1 IA=   74   90.51% done.
 Time for triples=       45.06 seconds.
 T4(CCSD)= -0.16039806D-01
 T5(CCSD)=  0.40425161D-03
 CCSD(T)= -0.15265997255D+03
 Discarding MO integrals.
 Leave Link  913 at Sat Aug 27 05:59:18 2022, MaxMem=   536870912 cpu:              65.1 elap:              16.4
 (Enter /usr/site/hpc/x86_64/glibc-2.17/broadwell/gaussian/g16_a.03/pgi-16.5/g16/l601.exe)
 Copying SCF densities to generalized density rwf, IOpCl= 0 IROHF=0.

 **********************************************************************

            Population analysis using the SCF density.

 **********************************************************************

 Orbital symmetries:
       Occupied  (A') (A') (A') (A') (A') (A') (A') (A') (A") (A")
       Virtual   (A') (A') (A') (A') (A') (A') (A') (A') (A') (A')
                 (A") (A") (A') (A') (A') (A') (A") (A") (A") (A")
                 (A') (A') (A') (A') (A') (A') (A') (A') (A") (A")
                 (A") (A") (A') (A') (A') (A') (A') (A') (A') (A')
                 (A') (A') (A") (A") (A') (A') (A") (A") (A') (A')
                 (A") (A") (A') (A') (A') (A') (A") (A") (A") (A")
                 (A') (A') (A') (A') (A") (A") (A') (A') (A') (A')
                 (A") (A") (A') (A') (A') (A') (A') (A') (A') (A')
                 (A") (A") (A') (A') (A") (A") (A") (A") (A') (A')
                 (A") (A") (A') (A') (A') (A') (A") (A") (A') (A')
                 (A') (A') (A') (A') (A') (A')
 The electronic state is 1-A'.
 Alpha  occ. eigenvalues --  -20.55200 -20.55146  -1.32496  -1.32441  -0.69903
 Alpha  occ. eigenvalues --   -0.69847  -0.55915  -0.55861  -0.49603  -0.49548
 Alpha virt. eigenvalues --    0.14415   0.14493   0.20468   0.20530   0.54665
 Alpha virt. eigenvalues --    0.54727   0.57531   0.57586   0.68279   0.68419
 Alpha virt. eigenvalues --    0.79276   0.79330   0.80720   0.80780   0.82649
 Alpha virt. eigenvalues --    0.82702   0.85107   0.85162   0.97582   0.97635
 Alpha virt. eigenvalues --    1.15099   1.15197   1.17446   1.17503   1.51976
 Alpha virt. eigenvalues --    1.52030   1.52265   1.52320   2.01020   2.01074
 Alpha virt. eigenvalues --    2.07076   2.07131   2.09768   2.09828   2.15198
 Alpha virt. eigenvalues --    2.15253   2.25321   2.25438   2.61813   2.61868
 Alpha virt. eigenvalues --    2.93189   2.93246   3.39673   3.39728   3.50227
 Alpha virt. eigenvalues --    3.50282   3.53414   3.53469   3.59795   3.59850
 Alpha virt. eigenvalues --    3.78981   3.79035   3.85741   3.85797   3.87914
 Alpha virt. eigenvalues --    3.87968   3.93872   3.93927   4.03332   4.03386
 Alpha virt. eigenvalues --    4.08491   4.08545   4.15561   4.15620   4.30419
 Alpha virt. eigenvalues --    4.30474   4.40245   4.40300   4.45858   4.45913
 Alpha virt. eigenvalues --    4.66832   4.66886   4.81187   4.81242   5.04515
 Alpha virt. eigenvalues --    5.04574   5.24404   5.24461   5.54363   5.54419
 Alpha virt. eigenvalues --    5.98252   5.98306   6.40703   6.40757   6.86499
 Alpha virt. eigenvalues --    6.86553   6.89973   6.90028   6.94902   6.94957
 Alpha virt. eigenvalues --    6.99455   6.99509   7.08209   7.08265   7.12836
 Alpha virt. eigenvalues --    7.12892   7.18623   7.18677   7.47518   7.47574
 Alpha virt. eigenvalues --    7.70651   7.70706   8.15375   8.15429  12.49584
 Alpha virt. eigenvalues --   12.49638
          Condensed to atoms (all electrons):
               1          2          3          4          5          6
     1  O    7.814453   0.345128   0.345731   0.000000  -0.000000   0.000000
     2  H    0.345128   0.439410  -0.036639   0.000000  -0.000000  -0.000000
     3  H    0.345731  -0.036639   0.437698   0.000000  -0.000000  -0.000000
     4  O    0.000000   0.000000   0.000000   7.814439   0.344856   0.345957
     5  H   -0.000000  -0.000000  -0.000000   0.344856   0.439969  -0.036662
     6  H    0.000000  -0.000000  -0.000000   0.345957  -0.036662   0.437290
 Mulliken charges:
               1
     1  O   -0.505312
     2  H    0.252101
     3  H    0.253211
     4  O   -0.505252
     5  H    0.251837
     6  H    0.253415
 Sum of Mulliken charges =  -0.00000
 Mulliken charges with hydrogens summed into heavy atoms:
               1
     1  O    0.000000
     4  O   -0.000000
 Electronic spatial extent (au):  <R**2>=            728.4638
 Charge=             -0.0000 electrons
 Dipole moment (field-independent basis, Debye):
    X=             -0.7505    Y=             -0.1515    Z=              0.0000  Tot=              0.7657
 Quadrupole moment (field-independent basis, Debye-Ang):
   XX=             -8.1047   YY=             11.6276   ZZ=            -14.7107
   XY=             -1.6562   XZ=              0.0000   YZ=              0.0000
 Traceless Quadrupole moment (field-independent basis, Debye-Ang):
   XX=             -4.3755   YY=             15.3569   ZZ=            -10.9814
   XY=             -1.6562   XZ=              0.0000   YZ=              0.0000
 Octapole moment (field-independent basis, Debye-Ang**2):
  XXX=             -1.4791  YYY=             -0.9828  ZZZ=              0.0000  XYY=             -1.7881
  XXY=             -1.5444  XXZ=              0.0000  XZZ=             -0.0982  YZZ=             -0.0204
  YYZ=              0.0000  XYZ=              0.0000
 Hexadecapole moment (field-independent basis, Debye-Ang**3):
 XXXX=            -11.0684 YYYY=           -228.1037 ZZZZ=            -11.3333 XXXY=             -3.3174
 XXXZ=              0.0000 YYYX=              5.6546 YYYZ=              0.0000 ZZZX=              0.0000
 ZZZY=              0.0000 XXYY=            -69.2150 XXZZ=             -4.5427 YYZZ=           -146.7824
 XXYZ=              0.0000 YYXZ=              0.0000 ZZXY=              0.6100
 N-N= 2.630427659229D+01 E-N=-4.141082800080D+02  KE= 1.518053226152D+02
 Symmetry A'   KE= 1.427673756378D+02
 Symmetry A"   KE= 9.037946977324D+00
 Leave Link  601 at Sat Aug 27 05:59:18 2022, MaxMem=   536870912 cpu:               0.1 elap:               0.0
 (Enter /usr/site/hpc/x86_64/glibc-2.17/broadwell/gaussian/g16_a.03/pgi-16.5/g16/l9999.exe)
 1\1\GINC-N003\SP\RCCSD(T)-FC\CC-pVTZ\H4O2\C7441284\27-Aug-2022\0\\#p C
 CSD(T)/cc-pVTZ\\H2O_H2O_4206\\0,1\O,0,0.,-0.009833,0.\H,0,-0.799571,-0
 .580965,0.\H,0,0.799571,-0.580965,0.\O,0,-0.003763,6.064042,0.\H,0,0.5
 16382,6.897682,0.\H,0,-0.961033,6.285716,0.\\Version=ES64L-G16RevA.03\
 State=1-A'\HF=-152.1068048\MP2=-152.6327398\MP3=-152.6403118\MP4D=-152
 .6494241\MP4DQ=-152.6418652\MP4SDQ=-152.6449255\CCSD=-152.644337\CCSD(
 T)=-152.6599726\RMSD=5.290e-09\PG=CS [SG(H4O2)]\\@


 I WISH TO HAVE NO CONNECTION WITH ANY SHIP THAT DOES NOT SAIL FAST,
 FOR I INTEND TO GO IN HARM'S WAY.
     -- JOHN PAUL JONES, USN 1747-1792
 Job cpu time:       0 days  0 hours  1 minutes 13.7 seconds.
 Elapsed time:       0 days  0 hours  0 minutes 18.8 seconds.
 File lengths (MBytes):  RWF=    568 Int=      0 D2E=      0 Chk=      8 Scr=      8
 Normal termination of Gaussian 16 at Sat Aug 27 05:59:18 2022.
