 Entering Gaussian System, Link 0=g16
 Input=H2O_H2O_2108.com
 Output=H2O_H2O_2108.log
 Initial command:
 /usr/site/hpc/x86_64/glibc-2.17/broadwell/gaussian/g16_a.03/pgi-16.5/g16/l1.exe "/gpfs/gpfs1/scratch/c7441284/ForceFieldModel/FittingData/Gau-3747564.inp" -scrdir="/gpfs/gpfs1/scratch/c7441284/ForceFieldModel/FittingData/"
 Entering Link 1 = /usr/site/hpc/x86_64/glibc-2.17/broadwell/gaussian/g16_a.03/pgi-16.5/g16/l1.exe PID=   3747565.
  
 Copyright (c) 1988,1990,1992,1993,1995,1998,2003,2009,2016,
            Gaussian, Inc.  All Rights Reserved.
  
 This is part of the Gaussian(R) 16 program.  It is based on
 the Gaussian(R) 09 system (copyright 2009, Gaussian, Inc.),
 the Gaussian(R) 03 system (copyright 2003, Gaussian, Inc.),
 the Gaussian(R) 98 system (copyright 1998, Gaussian, Inc.),
 the Gaussian(R) 94 system (copyright 1995, Gaussian, Inc.),
 the Gaussian 92(TM) system (copyright 1992, Gaussian, Inc.),
 the Gaussian 90(TM) system (copyright 1990, Gaussian, Inc.),
 the Gaussian 88(TM) system (copyright 1988, Gaussian, Inc.),
 the Gaussian 86(TM) system (copyright 1986, Carnegie Mellon
 University), and the Gaussian 82(TM) system (copyright 1983,
 Carnegie Mellon University). Gaussian is a federally registered
 trademark of Gaussian, Inc.
  
 This software contains proprietary and confidential information,
 including trade secrets, belonging to Gaussian, Inc.
  
 This software is provided under written license and may be
 used, copied, transmitted, or stored only in accord with that
 written license.
  
 The following legend is applicable only to US Government
 contracts under FAR:
  
                    RESTRICTED RIGHTS LEGEND
  
 Use, reproduction and disclosure by the US Government is
 subject to restrictions as set forth in subparagraphs (a)
 and (c) of the Commercial Computer Software - Restricted
 Rights clause in FAR 52.227-19.
  
 Gaussian, Inc.
 340 Quinnipiac St., Bldg. 40, Wallingford CT 06492
  
  
 ---------------------------------------------------------------
 Warning -- This program may not be used in any manner that
 competes with the business of Gaussian, Inc. or will provide
 assistance to any competitor of Gaussian, Inc.  The licensee
 of this program is prohibited from giving any competitor of
 Gaussian, Inc. access to this program.  By using this program,
 the user acknowledges that Gaussian, Inc. is engaged in the
 business of creating and licensing software in the field of
 computational chemistry and represents and warrants to the
 licensee that it is not a competitor of Gaussian, Inc. and that
 it will not use this program in any manner prohibited above.
 ---------------------------------------------------------------
  

 Cite this work as:
 Gaussian 16, Revision A.03,
 M. J. Frisch, G. W. Trucks, H. B. Schlegel, G. E. Scuseria, 
 M. A. Robb, J. R. Cheeseman, G. Scalmani, V. Barone, 
 G. A. Petersson, H. Nakatsuji, X. Li, M. Caricato, A. V. Marenich, 
 J. Bloino, B. G. Janesko, R. Gomperts, B. Mennucci, H. P. Hratchian, 
 J. V. Ortiz, A. F. Izmaylov, J. L. Sonnenberg, D. Williams-Young, 
 F. Ding, F. Lipparini, F. Egidi, J. Goings, B. Peng, A. Petrone, 
 T. Henderson, D. Ranasinghe, V. G. Zakrzewski, J. Gao, N. Rega, 
 G. Zheng, W. Liang, M. Hada, M. Ehara, K. Toyota, R. Fukuda, 
 J. Hasegawa, M. Ishida, T. Nakajima, Y. Honda, O. Kitao, H. Nakai, 
 T. Vreven, K. Throssell, J. A. Montgomery, Jr., J. E. Peralta, 
 F. Ogliaro, M. J. Bearpark, J. J. Heyd, E. N. Brothers, K. N. Kudin, 
 V. N. Staroverov, T. A. Keith, R. Kobayashi, J. Normand, 
 K. Raghavachari, A. P. Rendell, J. C. Burant, S. S. Iyengar, 
 J. Tomasi, M. Cossi, J. M. Millam, M. Klene, C. Adamo, R. Cammi, 
 J. W. Ochterski, R. L. Martin, K. Morokuma, O. Farkas, 
 J. B. Foresman, and D. J. Fox, Gaussian, Inc., Wallingford CT, 2016.
 
 ******************************************
 Gaussian 16:  ES64L-G16RevA.03 25-Dec-2016
                27-Aug-2022 
 ******************************************
 %NProcShared=4
 Will use up to    4 processors via shared memory.
 %Mem=4GB
 %Chk=H2O_H2O_2108.chk
 ------------------
 #p CCSD(T)/cc-pVTZ
 ------------------
 1/38=1,172=1/1;
 2/12=2,17=6,18=5,40=1/2;
 3/5=16,6=1,11=9,25=1,30=1/1,2,3;
 4//1;
 5/5=2,38=5/2;
 8/6=4,9=120000,10=1/1,4;
 9/5=7,14=2/13;
 6/7=2,8=2,9=2,10=2/1;
 99/5=1,9=1/99;
 Leave Link    1 at Sat Aug 27 08:37:44 2022, MaxMem=   536870912 cpu:               0.2 elap:               0.1
 (Enter /usr/site/hpc/x86_64/glibc-2.17/broadwell/gaussian/g16_a.03/pgi-16.5/g16/l101.exe)
 ------------
 H2O_H2O_2108
 ------------
 Symbolic Z-matrix:
 Charge =  0 Multiplicity = 1
 O                     0.       -0.00983   0. 
 H                    -0.79957  -0.58097   0. 
 H                     0.79957  -0.58097   0. 
 O                    -0.00492   3.82976   0. 
 H                     0.40197   4.72416   0. 
 H                    -0.98293   3.92459   0. 
 
 ITRead=  0  0  0  0  0  0
 MicOpt= -1 -1 -1 -1 -1 -1
 NAtoms=      6 NQM=        6 NQMF=       0 NMMI=      0 NMMIF=      0
                NMic=       0 NMicF=      0.
                    Isotopes and Nuclear Properties:
 (Nuclear quadrupole moments (NQMom) in fm**2, nuclear magnetic moments (NMagM)
  in nuclear magnetons)

  Atom         1           2           3           4           5           6
 IAtWgt=          16           1           1          16           1           1
 AtmWgt=  15.9949146   1.0078250   1.0078250  15.9949146   1.0078250   1.0078250
 NucSpn=           0           1           1           0           1           1
 AtZEff=  -0.0000000  -0.0000000  -0.0000000  -0.0000000  -0.0000000  -0.0000000
 NQMom=    0.0000000   0.0000000   0.0000000   0.0000000   0.0000000   0.0000000
 NMagM=    0.0000000   2.7928460   2.7928460   0.0000000   2.7928460   2.7928460
 AtZNuc=   8.0000000   1.0000000   1.0000000   8.0000000   1.0000000   1.0000000
 Leave Link  101 at Sat Aug 27 08:37:45 2022, MaxMem=   536870912 cpu:               0.3 elap:               0.1
 (Enter /usr/site/hpc/x86_64/glibc-2.17/broadwell/gaussian/g16_a.03/pgi-16.5/g16/l202.exe)
                          Input orientation:                          
 ---------------------------------------------------------------------
 Center     Atomic      Atomic             Coordinates (Angstroms)
 Number     Number       Type             X           Y           Z
 ---------------------------------------------------------------------
      1          8           0        0.000000   -0.009833    0.000000
      2          1           0       -0.799571   -0.580965    0.000000
      3          1           0        0.799571   -0.580965    0.000000
      4          8           0       -0.004917    3.829760    0.000000
      5          1           0        0.401967    4.724161    0.000000
      6          1           0       -0.982932    3.924589    0.000000
 ---------------------------------------------------------------------
                    Distance matrix (angstroms):
                    1          2          3          4          5
     1  O    0.000000
     2  H    0.982601   0.000000
     3  H    0.982601   1.599142   0.000000
     4  O    3.839596   4.481737   4.483491   0.000000
     5  H    4.751029   5.439490   5.320005   0.982603   0.000000
     6  H    4.055346   4.509284   4.845341   0.982602   1.599144
                    6
     6  H    0.000000
 Stoichiometry    H4O2
 Framework group  CS[SG(H4O2)]
 Deg. of freedom     9
 Full point group                 CS      NOp   2
 Largest Abelian subgroup         CS      NOp   2
 Largest concise Abelian subgroup C1      NOp   1
                         Standard orientation:                         
 ---------------------------------------------------------------------
 Center     Atomic      Atomic             Coordinates (Angstroms)
 Number     Number       Type             X           Y           Z
 ---------------------------------------------------------------------
      1          8           0        0.028566   -1.912183    0.000000
      2          1           0       -0.771735   -2.482291    0.000000
      3          1           0        0.827405   -2.484338    0.000000
      4          8           0        0.028566    1.927413    0.000000
      5          1           0        0.436595    2.821292    0.000000
      6          1           0       -0.949326    2.023495    0.000000
 ---------------------------------------------------------------------
 Rotational constants (GHZ):         210.0445900           3.5468272           3.4879297
 Leave Link  202 at Sat Aug 27 08:37:45 2022, MaxMem=   536870912 cpu:               0.0 elap:               0.0
 (Enter /usr/site/hpc/x86_64/glibc-2.17/broadwell/gaussian/g16_a.03/pgi-16.5/g16/l301.exe)
 Standard basis: CC-pVTZ (5D, 7F)
 Ernie: Thresh=  0.10000D-02 Tol=  0.10000D-05 Strict=F.
 Ernie:  6 primitive shells out of 84 were deleted.
 There are    92 symmetry adapted cartesian basis functions of A'  symmetry.
 There are    38 symmetry adapted cartesian basis functions of A"  symmetry.
 There are    80 symmetry adapted basis functions of A'  symmetry.
 There are    36 symmetry adapted basis functions of A"  symmetry.
   116 basis functions,   172 primitive gaussians,   130 cartesian basis functions
    10 alpha electrons       10 beta electrons
       nuclear repulsion energy        30.9629772770 Hartrees.
 IExCor=    0 DFT=F Ex=HF Corr=None ExCW=0 ScaHFX=  1.000000
 ScaDFX=  1.000000  1.000000  1.000000  1.000000 ScalE2=  1.000000  1.000000
 IRadAn=      5 IRanWt=     -1 IRanGd=            0 ICorTp=0 IEmpDi=  4
 NAtoms=    6 NActive=    6 NUniq=    6 SFac= 1.00D+00 NAtFMM=   60 NAOKFM=F Big=F
 Integral buffers will be    131072 words long.
 Raffenetti 1 integral format.
 Two-electron integral symmetry is turned on.
 Leave Link  301 at Sat Aug 27 08:37:45 2022, MaxMem=   536870912 cpu:               0.2 elap:               0.1
 (Enter /usr/site/hpc/x86_64/glibc-2.17/broadwell/gaussian/g16_a.03/pgi-16.5/g16/l302.exe)
 NPDir=0 NMtPBC=     1 NCelOv=     1 NCel=       1 NClECP=     1 NCelD=      1
         NCelK=      1 NCelE2=     1 NClLst=     1 CellRange=     0.0.
 One-electron integrals computed using PRISM.
 One-electron integral symmetry used in STVInt
 NBasis=   116 RedAO= T EigKep=  2.42D-03  NBF=    80    36
 NBsUse=   116 1.00D-06 EigRej= -1.00D+00 NBFU=    80    36
 Leave Link  302 at Sat Aug 27 08:37:45 2022, MaxMem=   536870912 cpu:               0.3 elap:               0.1
 (Enter /usr/site/hpc/x86_64/glibc-2.17/broadwell/gaussian/g16_a.03/pgi-16.5/g16/l303.exe)
 DipDrv:  MaxL=1.
 Leave Link  303 at Sat Aug 27 08:37:45 2022, MaxMem=   536870912 cpu:               0.1 elap:               0.0
 (Enter /usr/site/hpc/x86_64/glibc-2.17/broadwell/gaussian/g16_a.03/pgi-16.5/g16/l401.exe)
 ExpMin= 1.03D-01 ExpMax= 1.53D+04 ExpMxC= 5.22D+02 IAcc=3 IRadAn=         5 AccDes= 0.00D+00
 Harris functional with IExCor=  205 and IRadAn=       5 diagonalized for initial guess.
 HarFok:  IExCor=  205 AccDes= 0.00D+00 IRadAn=         5 IDoV= 1 UseB2=F ITyADJ=14
 ICtDFT=  3500011 ScaDFX=  1.000000  1.000000  1.000000  1.000000
 FoFCou: FMM=F IPFlag=           0 FMFlag=      100000 FMFlg1=           0
         NFxFlg=           0 DoJE=T BraDBF=F KetDBF=T FulRan=T
         wScrn=  0.000000 ICntrl=       500 IOpCl=  0 I1Cent=   200000004 NGrid=           0
         NMat0=    1 NMatS0=      1 NMatT0=    0 NMatD0=    1 NMtDS0=    0 NMtDT0=    0
 Petite list used in FoFCou.
 Harris En= -152.298992720198    
 JPrj=0 DoOrth=F DoCkMO=F.
 Initial guess orbital symmetries:
       Occupied  (A') (A') (A') (A') (A') (A') (A') (A') (A") (A")
       Virtual   (A') (A') (A') (A') (A') (A') (A') (A') (A') (A")
                 (A') (A") (A') (A') (A') (A") (A") (A') (A") (A")
                 (A') (A') (A') (A') (A') (A') (A') (A') (A") (A")
                 (A") (A") (A') (A') (A') (A') (A') (A') (A') (A')
                 (A') (A') (A") (A") (A') (A') (A") (A") (A") (A")
                 (A') (A') (A') (A') (A') (A') (A") (A") (A') (A')
                 (A') (A') (A") (A") (A") (A") (A') (A') (A') (A')
                 (A") (A") (A') (A') (A') (A') (A') (A') (A') (A')
                 (A") (A") (A') (A') (A") (A") (A") (A") (A') (A')
                 (A") (A") (A') (A') (A') (A') (A") (A") (A') (A')
                 (A') (A') (A') (A') (A') (A')
 The electronic state of the initial guess is 1-A'.
 Leave Link  401 at Sat Aug 27 08:37:45 2022, MaxMem=   536870912 cpu:               0.7 elap:               0.2
 (Enter /usr/site/hpc/x86_64/glibc-2.17/broadwell/gaussian/g16_a.03/pgi-16.5/g16/l502.exe)
 Keep R1 ints in memory in symmetry-blocked form, NReq=34823457.
 FoFCou: FMM=F IPFlag=           0 FMFlag=           0 FMFlg1=           0
         NFxFlg=           0 DoJE=F BraDBF=F KetDBF=F FulRan=T
         wScrn=  0.000000 ICntrl=       600 IOpCl=  0 I1Cent=           0 NGrid=           0
         NMat0=    1 NMatS0=   6786 NMatT0=    0 NMatD0=    1 NMtDS0=    0 NMtDT0=    0
 Petite list used in FoFCou.
 Closed shell SCF:
 Using DIIS extrapolation, IDIIS=  1040.
 NGot=   536870912 LenX=   525040673 LenY=   525023332
 Requested convergence on RMS density matrix=1.00D-08 within 128 cycles.
 Requested convergence on MAX density matrix=1.00D-06.
 Requested convergence on             energy=1.00D-06.
 No special actions if energy rises.

 Cycle   1  Pass 1  IDiag  1:
 E= -151.922802992991    
 DIIS: error= 6.60D-02 at cycle   1 NSaved=   1.
 NSaved= 1 IEnMin= 1 EnMin= -151.922802992991     IErMin= 1 ErrMin= 6.60D-02
 ErrMax= 6.60D-02  0.00D+00 EMaxC= 1.00D-01 BMatC= 4.02D-01 BMatP= 4.02D-01
 IDIUse=3 WtCom= 3.40D-01 WtEn= 6.60D-01
 Coeff-Com:  0.100D+01
 Coeff-En:   0.100D+01
 Coeff:      0.100D+01
 Gap=     0.507 Goal=   None    Shift=    0.000
 GapD=    0.507 DampG=2.000 DampE=0.500 DampFc=1.0000 IDamp=-1.
 RMSDP=2.58D-03 MaxDP=6.57D-02              OVMax= 1.29D-01

 Cycle   2  Pass 1  IDiag  1:
 E= -152.035128879804     Delta-E=       -0.112325886814 Rises=F Damp=F
 DIIS: error= 4.18D-02 at cycle   2 NSaved=   2.
 NSaved= 2 IEnMin= 2 EnMin= -152.035128879804     IErMin= 2 ErrMin= 4.18D-02
 ErrMax= 4.18D-02  0.00D+00 EMaxC= 1.00D-01 BMatC= 1.15D-01 BMatP= 4.02D-01
 IDIUse=3 WtCom= 5.82D-01 WtEn= 4.18D-01
 Coeff-Com:  0.322D+00 0.678D+00
 Coeff-En:   0.171D+00 0.829D+00
 Coeff:      0.259D+00 0.741D+00
 Gap=     0.653 Goal=   None    Shift=    0.000
 RMSDP=1.38D-03 MaxDP=3.94D-02 DE=-1.12D-01 OVMax= 5.78D-02

 Cycle   3  Pass 1  IDiag  1:
 E= -152.101475234728     Delta-E=       -0.066346354923 Rises=F Damp=F
 DIIS: error= 9.02D-03 at cycle   3 NSaved=   3.
 NSaved= 3 IEnMin= 3 EnMin= -152.101475234728     IErMin= 3 ErrMin= 9.02D-03
 ErrMax= 9.02D-03  0.00D+00 EMaxC= 1.00D-01 BMatC= 6.05D-03 BMatP= 1.15D-01
 IDIUse=3 WtCom= 9.10D-01 WtEn= 9.02D-02
 Coeff-Com: -0.308D-01 0.155D+00 0.876D+00
 Coeff-En:   0.000D+00 0.000D+00 0.100D+01
 Coeff:     -0.280D-01 0.141D+00 0.887D+00
 Gap=     0.625 Goal=   None    Shift=    0.000
 RMSDP=2.54D-04 MaxDP=5.66D-03 DE=-6.63D-02 OVMax= 1.36D-02

 Cycle   4  Pass 1  IDiag  1:
 E= -152.105268551040     Delta-E=       -0.003793316312 Rises=F Damp=F
 DIIS: error= 8.70D-04 at cycle   4 NSaved=   4.
 NSaved= 4 IEnMin= 4 EnMin= -152.105268551040     IErMin= 4 ErrMin= 8.70D-04
 ErrMax= 8.70D-04  0.00D+00 EMaxC= 1.00D-01 BMatC= 3.93D-05 BMatP= 6.05D-03
 IDIUse=3 WtCom= 9.91D-01 WtEn= 8.70D-03
 Coeff-Com:  0.678D-02-0.611D-01-0.238D+00 0.129D+01
 Coeff-En:   0.000D+00 0.000D+00 0.000D+00 0.100D+01
 Coeff:      0.672D-02-0.605D-01-0.236D+00 0.129D+01
 Gap=     0.628 Goal=   None    Shift=    0.000
 RMSDP=5.38D-05 MaxDP=1.03D-03 DE=-3.79D-03 OVMax= 2.42D-03

 Cycle   5  Pass 1  IDiag  1:
 E= -152.105321608068     Delta-E=       -0.000053057029 Rises=F Damp=F
 DIIS: error= 1.98D-04 at cycle   5 NSaved=   5.
 NSaved= 5 IEnMin= 5 EnMin= -152.105321608068     IErMin= 5 ErrMin= 1.98D-04
 ErrMax= 1.98D-04  0.00D+00 EMaxC= 1.00D-01 BMatC= 1.42D-06 BMatP= 3.93D-05
 IDIUse=3 WtCom= 9.98D-01 WtEn= 1.98D-03
 Coeff-Com:  0.649D-03-0.352D-03-0.613D-02-0.202D+00 0.121D+01
 Coeff-En:   0.000D+00 0.000D+00 0.000D+00 0.000D+00 0.100D+01
 Coeff:      0.648D-03-0.351D-03-0.612D-02-0.201D+00 0.121D+01
 Gap=     0.628 Goal=   None    Shift=    0.000
 RMSDP=1.40D-05 MaxDP=2.88D-04 DE=-5.31D-05 OVMax= 7.01D-04

 Cycle   6  Pass 1  IDiag  1:
 E= -152.105324550853     Delta-E=       -0.000002942785 Rises=F Damp=F
 DIIS: error= 3.12D-05 at cycle   6 NSaved=   6.
 NSaved= 6 IEnMin= 6 EnMin= -152.105324550853     IErMin= 6 ErrMin= 3.12D-05
 ErrMax= 3.12D-05  0.00D+00 EMaxC= 1.00D-01 BMatC= 3.90D-08 BMatP= 1.42D-06
 IDIUse=1 WtCom= 1.00D+00 WtEn= 0.00D+00
 Coeff-Com: -0.296D-03 0.176D-02 0.760D-02-0.385D-02-0.258D+00 0.125D+01
 Coeff:     -0.296D-03 0.176D-02 0.760D-02-0.385D-02-0.258D+00 0.125D+01
 Gap=     0.628 Goal=   None    Shift=    0.000
 RMSDP=3.10D-06 MaxDP=6.99D-05 DE=-2.94D-06 OVMax= 1.63D-04

 Cycle   7  Pass 1  IDiag  1:
 E= -152.105324659320     Delta-E=       -0.000000108467 Rises=F Damp=F
 DIIS: error= 5.66D-06 at cycle   7 NSaved=   7.
 NSaved= 7 IEnMin= 7 EnMin= -152.105324659320     IErMin= 7 ErrMin= 5.66D-06
 ErrMax= 5.66D-06  0.00D+00 EMaxC= 1.00D-01 BMatC= 2.14D-09 BMatP= 3.90D-08
 IDIUse=1 WtCom= 1.00D+00 WtEn= 0.00D+00
 Coeff-Com:  0.241D-04-0.369D-03-0.147D-02 0.147D-01-0.220D-01-0.198D+00
 Coeff-Com:  0.121D+01
 Coeff:      0.241D-04-0.369D-03-0.147D-02 0.147D-01-0.220D-01-0.198D+00
 Coeff:      0.121D+01
 Gap=     0.628 Goal=   None    Shift=    0.000
 RMSDP=4.78D-07 MaxDP=1.10D-05 DE=-1.08D-07 OVMax= 3.14D-05

 Cycle   8  Pass 1  IDiag  1:
 E= -152.105324663667     Delta-E=       -0.000000004347 Rises=F Damp=F
 DIIS: error= 1.69D-06 at cycle   8 NSaved=   8.
 NSaved= 8 IEnMin= 8 EnMin= -152.105324663667     IErMin= 8 ErrMin= 1.69D-06
 ErrMax= 1.69D-06  0.00D+00 EMaxC= 1.00D-01 BMatC= 1.68D-10 BMatP= 2.14D-09
 IDIUse=1 WtCom= 1.00D+00 WtEn= 0.00D+00
 Coeff-Com:  0.166D-04-0.100D-03-0.401D-03 0.283D-04 0.148D-01-0.687D-01
 Coeff-Com:  0.987D-02 0.104D+01
 Coeff:      0.166D-04-0.100D-03-0.401D-03 0.283D-04 0.148D-01-0.687D-01
 Coeff:      0.987D-02 0.104D+01
 Gap=     0.628 Goal=   None    Shift=    0.000
 RMSDP=1.05D-07 MaxDP=2.43D-06 DE=-4.35D-09 OVMax= 6.57D-06

 Cycle   9  Pass 1  IDiag  1:
 E= -152.105324663935     Delta-E=       -0.000000000268 Rises=F Damp=F
 DIIS: error= 6.24D-07 at cycle   9 NSaved=   9.
 NSaved= 9 IEnMin= 9 EnMin= -152.105324663935     IErMin= 9 ErrMin= 6.24D-07
 ErrMax= 6.24D-07  0.00D+00 EMaxC= 1.00D-01 BMatC= 3.16D-11 BMatP= 1.68D-10
 IDIUse=1 WtCom= 1.00D+00 WtEn= 0.00D+00
 Coeff-Com:  0.111D-05 0.297D-04 0.124D-03-0.246D-02 0.851D-02 0.936D-02
 Coeff-Com: -0.178D+00 0.289D+00 0.873D+00
 Coeff:      0.111D-05 0.297D-04 0.124D-03-0.246D-02 0.851D-02 0.936D-02
 Coeff:     -0.178D+00 0.289D+00 0.873D+00
 Gap=     0.628 Goal=   None    Shift=    0.000
 RMSDP=3.72D-08 MaxDP=8.51D-07 DE=-2.68D-10 OVMax= 2.37D-06

 Cycle  10  Pass 1  IDiag  1:
 E= -152.105324663971     Delta-E=       -0.000000000036 Rises=F Damp=F
 DIIS: error= 1.13D-07 at cycle  10 NSaved=  10.
 NSaved=10 IEnMin=10 EnMin= -152.105324663971     IErMin=10 ErrMin= 1.13D-07
 ErrMax= 1.13D-07  0.00D+00 EMaxC= 1.00D-01 BMatC= 5.81D-13 BMatP= 3.16D-11
 IDIUse=1 WtCom= 1.00D+00 WtEn= 0.00D+00
 Coeff-Com: -0.710D-06-0.374D-05-0.192D-04 0.554D-03-0.202D-02-0.210D-02
 Coeff-Com:  0.494D-01-0.118D+00-0.245D+00 0.132D+01
 Coeff:     -0.710D-06-0.374D-05-0.192D-04 0.554D-03-0.202D-02-0.210D-02
 Coeff:      0.494D-01-0.118D+00-0.245D+00 0.132D+01
 Gap=     0.628 Goal=   None    Shift=    0.000
 RMSDP=8.55D-09 MaxDP=2.16D-07 DE=-3.58D-11 OVMax= 5.14D-07

 SCF Done:  E(RHF) =  -152.105324664     A.U. after   10 cycles
            NFock= 10  Conv=0.85D-08     -V/T= 2.0020
 KE= 1.518057892438D+02 PE=-4.235481211120D+02 EE= 8.867402992715D+01
 Leave Link  502 at Sat Aug 27 08:37:46 2022, MaxMem=   536870912 cpu:               3.5 elap:               1.0
 (Enter /usr/site/hpc/x86_64/glibc-2.17/broadwell/gaussian/g16_a.03/pgi-16.5/g16/l801.exe)
 Windowed orbitals will be sorted by symmetry type.
 ExpMin= 1.03D-01 ExpMax= 1.53D+04 ExpMxC= 5.22D+02 IAcc=3 IRadAn=         5 AccDes= 0.00D+00
 HarFok:  IExCor=  205 AccDes= 0.00D+00 IRadAn=         5 IDoV=-2 UseB2=F ITyADJ=14
 ICtDFT= 12500011 ScaDFX=  1.000000  1.000000  1.000000  1.000000
 Largest valence mixing into a core orbital is  1.12D-04
 Largest core mixing into a valence orbital is  1.77D-05
 Range of M.O.s used for correlation:     3   116
 NBasis=   116 NAE=    10 NBE=    10 NFC=     2 NFV=     0
 NROrb=    114 NOA=     8 NOB=     8 NVA=   106 NVB=   106
 Leave Link  801 at Sat Aug 27 08:37:46 2022, MaxMem=   536870912 cpu:               0.3 elap:               0.1
 (Enter /usr/site/hpc/x86_64/glibc-2.17/broadwell/gaussian/g16_a.03/pgi-16.5/g16/l804.exe)
 Closed-shell transformation, MDV=   536870912 ITran=4 ISComp=2.
 Unit  1 TFree=        834515 TCopy=        406125.
 Semi-Direct transformation.
 ModeAB=           4 MOrb=             8 LenV=     536370814
 LASXX=      2873146 LTotXX=     2873146 LenRXX=     5831278
 LTotAB=     2958132 MaxLAS=     6478848 LenRXY=           0
 NonZer=     8704424 LenScr=    13107200 LnRSAI=     6478848
 LnScr1=     9961472 LExtra=           0 Total=     35378798
 MaxDsk=          -1 SrtSym=           T ITran=            4
 DoSDTr:  NPSUse=  4
 JobTyp=0 Pass  1:  I=   1 to   8.
 (rs|ai) integrals will be sorted in core.
 Complete sort for first half transformation.
 First half transformation complete.
 Complete sort for second half transformation.
 Second half transformation complete.
 Spin components of T(2) and E(2):
     alpha-alpha T2 =       0.1560819213D-01 E2=     -0.6387107505D-01
     alpha-beta  T2 =       0.9214281523D-01 E2=     -0.3986244911D+00
     beta-beta   T2 =       0.1560819213D-01 E2=     -0.6387107505D-01
 ANorm=    0.1059886409D+01
 E2 =    -0.5263666412D+00 EUMP2 =    -0.15263169130518D+03
 Leave Link  804 at Sat Aug 27 08:37:47 2022, MaxMem=   536870912 cpu:               3.4 elap:               0.9
 (Enter /usr/site/hpc/x86_64/glibc-2.17/broadwell/gaussian/g16_a.03/pgi-16.5/g16/l913.exe)
 CIDS:  MDV=   536870912.
 Frozen-core window:  NFC=   2 NFV=   0.
 IFCWin=0 IBDFC=1 NFBD=     0     0 NFCmp=     0     0 NFFFC=     0     0
 Using DD3R+UMP44R for 1st iteration.
 Using DD4RQ for 2nd and later iterations.
 Keep R2 and R3 ints in memory in symmetry-blocked form, NReq=35357534.
 FoFCou: FMM=F IPFlag=           0 FMFlag=           0 FMFlg1=           0
         NFxFlg=           0 DoJE=F BraDBF=F KetDBF=F FulRan=T
         wScrn=  0.000000 ICntrl=       600 IOpCl=  0 I1Cent=           0 NGrid=           0
         NMat0=    1 NMatS0=   6786 NMatT0=    0 NMatD0=    1 NMtDS0=    0 NMtDT0=    0
 Petite list used in FoFCou.
 CIDS: In Core Option IDoMem=           1.
 CCSD(T)
 =======
 Iterations=  50 Convergence= 0.100D-06
 Produce multiple copies of IABC intergrals
 Iteration Nr.   1
 **********************
 DD1Dir will call FoFMem   1 times, MxPair=        72
 NAB=    36 NAA=     0 NBB=     0.
 MP4(R+Q)=  0.75889968D-02
 Maximum subspace dimension=  5
 A-vector RMS=  1.7614723D-03 Max=  5.4639636D-03 conv= 1.00D-05.
 RLE energy=       -0.5262053874
 E3=       -0.74995291D-02        EUMP3=      -0.15263919083D+03
 E4(DQ)=   -0.15543937D-02        UMP4(DQ)=   -0.15264074523D+03
 E4(SDQ)=  -0.46418878D-02        UMP4(SDQ)=  -0.15264383272D+03
 VARIATIONAL ENERGIES WITH THE FIRST-ORDER WAVEFUNCTION:
 DE(Corr)= -0.52620535     E(Corr)=     -152.63153001    
 NORM(A)=   0.10602326D+01
 Iteration Nr.   2
 **********************
 DD1Dir will call FoFMem   1 times, MxPair=        72
 NAB=    36 NAA=     0 NBB=     0.
 A-vector RMS=  2.1210525D-04 Max=  1.3996017D-03 conv= 1.00D-05.
 RLE energy=       -0.5373188748
 DE(Corr)= -0.53616275     E(CORR)=     -152.64148742     Delta=-9.96D-03
 NORM(A)=   0.10640089D+01
 Iteration Nr.   3
 **********************
 DD1Dir will call FoFMem   1 times, MxPair=        72
 NAB=    36 NAA=     0 NBB=     0.
 A-vector RMS=  1.4510000D-04 Max=  1.0856529D-03 conv= 1.00D-05.
 RLE energy=       -0.5378182921
 DE(Corr)= -0.53722718     E(CORR)=     -152.64255184     Delta=-1.06D-03
 NORM(A)=   0.10646521D+01
 Iteration Nr.   4
 **********************
 DD1Dir will call FoFMem   1 times, MxPair=        72
 NAB=    36 NAA=     0 NBB=     0.
 A-vector RMS=  2.7591228D-05 Max=  1.4316428D-04 conv= 1.00D-05.
 RLE energy=       -0.5379010984
 DE(Corr)= -0.53786573     E(CORR)=     -152.64319040     Delta=-6.39D-04
 NORM(A)=   0.10647652D+01
 Iteration Nr.   5
 **********************
 DD1Dir will call FoFMem   1 times, MxPair=        72
 NAB=    36 NAA=     0 NBB=     0.
 A-vector RMS=  1.9536261D-05 Max=  2.0394504D-04 conv= 1.00D-05.
 RLE energy=       -0.5379105255
 DE(Corr)= -0.53790343     E(CORR)=     -152.64322810     Delta=-3.77D-05
 NORM(A)=   0.10647756D+01
 Iteration Nr.   6
 **********************
 DD1Dir will call FoFMem   1 times, MxPair=        72
 NAB=    36 NAA=     0 NBB=     0.
 A-vector RMS=  5.9144012D-06 Max=  5.8141336D-05 conv= 1.00D-05.
 RLE energy=       -0.5379011634
 DE(Corr)= -0.53790674     E(CORR)=     -152.64323140     Delta=-3.31D-06
 NORM(A)=   0.10647758D+01
 Iteration Nr.   7
 **********************
 DD1Dir will call FoFMem   1 times, MxPair=        72
 NAB=    36 NAA=     0 NBB=     0.
 A-vector RMS=  2.7892236D-06 Max=  3.0708271D-05 conv= 1.00D-05.
 RLE energy=       -0.5379074905
 DE(Corr)= -0.53790689     E(CORR)=     -152.64323156     Delta=-1.54D-07
 NORM(A)=   0.10647781D+01
 Iteration Nr.   8
 **********************
 DD1Dir will call FoFMem   1 times, MxPair=        72
 NAB=    36 NAA=     0 NBB=     0.
 A-vector RMS=  7.9485463D-07 Max=  9.7247924D-06 conv= 1.00D-05.
 RLE energy=       -0.5379062366
 DE(Corr)= -0.53790642     E(CORR)=     -152.64323108     Delta= 4.77D-07
 NORM(A)=   0.10647782D+01
 Iteration Nr.   9
 **********************
 DD1Dir will call FoFMem   1 times, MxPair=        72
 NAB=    36 NAA=     0 NBB=     0.
 A-vector RMS=  1.9148872D-07 Max=  2.2414647D-06 conv= 1.00D-05.
 RLE energy=       -0.5379065428
 DE(Corr)= -0.53790662     E(CORR)=     -152.64323129     Delta=-2.04D-07
 NORM(A)=   0.10647785D+01
 Iteration Nr.  10
 **********************
 DD1Dir will call FoFMem   1 times, MxPair=        72
 NAB=    36 NAA=     0 NBB=     0.
 A-vector RMS=  6.6659366D-08 Max=  5.6316908D-07 conv= 1.00D-05.
 RLE energy=       -0.5379066999
 DE(Corr)= -0.53790668     E(CORR)=     -152.64323134     Delta=-5.56D-08
 NORM(A)=   0.10647786D+01
 CI/CC converged in   10 iterations to DelEn=-5.56D-08 Conv= 1.00D-07 ErrA1= 6.67D-08 Conv= 1.00D-05
 Wavefunction amplitudes converged. E(Corr)=     -152.64323134    
 Largest amplitude= 2.88D-02
 IPart=  3 IA=    7   11.05% done.
 IPart=  3 IA=   13   21.46% done.
 IPart=  1 IA=   19   31.21% done.
 IPart=  3 IA=   25   40.32% done.
 IPart=  3 IA=   32   50.13% done.
 IPart=  2 IA=   40   60.27% done.
 IPart=  3 IA=   49   70.30% done.
 IPart=  2 IA=   60   80.58% done.
 IPart=  3 IA=   74   90.51% done.
 Time for triples=       45.45 seconds.
 T4(CCSD)= -0.16107106D-01
 T5(CCSD)=  0.41045809D-03
 CCSD(T)= -0.15265892799D+03
 Discarding MO integrals.
 Leave Link  913 at Sat Aug 27 08:38:03 2022, MaxMem=   536870912 cpu:              65.5 elap:              16.5
 (Enter /usr/site/hpc/x86_64/glibc-2.17/broadwell/gaussian/g16_a.03/pgi-16.5/g16/l601.exe)
 Copying SCF densities to generalized density rwf, IOpCl= 0 IROHF=0.

 **********************************************************************

            Population analysis using the SCF density.

 **********************************************************************

 Orbital symmetries:
       Occupied  (A') (A') (A') (A') (A') (A') (A') (A') (A") (A")
       Virtual   (A') (A') (A') (A') (A') (A') (A') (A') (A') (A')
                 (A") (A') (A") (A') (A') (A") (A") (A') (A") (A")
                 (A') (A') (A') (A') (A') (A') (A') (A') (A") (A")
                 (A") (A") (A') (A') (A') (A') (A') (A') (A') (A')
                 (A') (A') (A") (A") (A') (A') (A") (A") (A') (A')
                 (A") (A") (A') (A') (A') (A') (A") (A") (A") (A")
                 (A') (A') (A') (A') (A") (A") (A') (A') (A') (A')
                 (A") (A") (A') (A') (A') (A') (A') (A') (A') (A')
                 (A") (A") (A') (A') (A") (A") (A") (A") (A') (A')
                 (A") (A") (A') (A') (A') (A') (A") (A") (A') (A')
                 (A') (A') (A') (A') (A') (A')
 The electronic state is 1-A'.
 Alpha  occ. eigenvalues --  -20.54707 -20.54455  -1.31988  -1.31731  -0.69407
 Alpha  occ. eigenvalues --   -0.69138  -0.55445  -0.54923  -0.49091  -0.48828
 Alpha virt. eigenvalues --    0.14013   0.15816   0.20498   0.21341   0.53653
 Alpha virt. eigenvalues --    0.55888   0.57874   0.58225   0.62724   0.75361
 Alpha virt. eigenvalues --    0.79316   0.80036   0.80469   0.81053   0.82779
 Alpha virt. eigenvalues --    0.85509   0.85755   0.91604   0.97521   0.98924
 Alpha virt. eigenvalues --    1.15023   1.16899   1.17729   1.19462   1.52270
 Alpha virt. eigenvalues --    1.52571   1.52817   1.53094   2.01510   2.01873
 Alpha virt. eigenvalues --    2.07589   2.07853   2.08346   2.12092   2.15757
 Alpha virt. eigenvalues --    2.16599   2.24026   2.34659   2.62245   2.62650
 Alpha virt. eigenvalues --    2.93521   2.94248   3.40133   3.40391   3.50686
 Alpha virt. eigenvalues --    3.50938   3.53854   3.54105   3.60225   3.60561
 Alpha virt. eigenvalues --    3.79466   3.79730   3.85915   3.86263   3.88033
 Alpha virt. eigenvalues --    3.90653   3.94317   3.94572   4.03271   4.04580
 Alpha virt. eigenvalues --    4.08963   4.09240   4.16061   4.16364   4.30893
 Alpha virt. eigenvalues --    4.31144   4.40393   4.41935   4.46297   4.46667
 Alpha virt. eigenvalues --    4.67300   4.67583   4.81448   4.82723   5.04935
 Alpha virt. eigenvalues --    5.05741   5.24520   5.25728   5.54585   5.55986
 Alpha virt. eigenvalues --    5.98781   5.99031   6.41208   6.41459   6.87009
 Alpha virt. eigenvalues --    6.87266   6.90468   6.90725   6.95362   6.95691
 Alpha virt. eigenvalues --    6.99975   7.00264   7.08369   7.09158   7.12363
 Alpha virt. eigenvalues --    7.16834   7.19155   7.19415   7.48085   7.48455
 Alpha virt. eigenvalues --    7.70947   7.72154   8.15696   8.16675  12.48760
 Alpha virt. eigenvalues --   12.52980
          Condensed to atoms (all electrons):
               1          2          3          4          5          6
     1  O    7.814568   0.337062   0.341332   0.000603   0.000026   0.000298
     2  H    0.337062   0.453068  -0.034744   0.000050  -0.000004  -0.000032
     3  H    0.341332  -0.034744   0.443757   0.000066  -0.000005  -0.000020
     4  O    0.000603   0.000050   0.000066   7.813928   0.335033   0.344151
     5  H    0.000026  -0.000004  -0.000005   0.335033   0.456797  -0.035403
     6  H    0.000298  -0.000032  -0.000020   0.344151  -0.035403   0.441054
 Mulliken charges:
               1
     1  O   -0.493889
     2  H    0.244600
     3  H    0.249613
     4  O   -0.493831
     5  H    0.243555
     6  H    0.249951
 Sum of Mulliken charges =  -0.00000
 Mulliken charges with hydrogens summed into heavy atoms:
               1
     1  O    0.000325
     4  O   -0.000325
 Electronic spatial extent (au):  <R**2>=            321.3504
 Charge=             -0.0000 electrons
 Dipole moment (field-independent basis, Debye):
    X=             -0.9621    Y=             -0.2782    Z=              0.0000  Tot=              1.0015
 Quadrupole moment (field-independent basis, Debye-Ang):
   XX=             -8.3452   YY=              2.6737   ZZ=            -14.7102
   XY=             -1.1472   XZ=              0.0000   YZ=              0.0000
 Traceless Quadrupole moment (field-independent basis, Debye-Ang):
   XX=             -1.5513   YY=              9.4676   ZZ=             -7.9163
   XY=             -1.1472   XZ=              0.0000   YZ=              0.0000
 Octapole moment (field-independent basis, Debye-Ang**2):
  XXX=             -1.7096  YYY=              0.5857  ZZZ=              0.0000  XYY=              0.5975
  XXY=             -2.0092  XXZ=              0.0000  XZZ=             -0.1216  YZZ=             -0.0411
  YYZ=              0.0000  XYZ=              0.0000
 Hexadecapole moment (field-independent basis, Debye-Ang**3):
 XXXX=            -11.0602 YYYY=           -163.4844 ZZZZ=            -11.3333 XXXY=             -2.4060
 XXXZ=              0.0000 YYYX=              7.8572 YYYZ=              0.0000 ZZZX=              0.0000
 ZZZY=              0.0000 XXYY=            -30.2803 XXZZ=             -4.5349 YYZZ=            -62.7906
 XXYZ=              0.0000 YYXZ=              0.0000 ZZXY=              0.4722
 N-N= 3.096297727705D+01 E-N=-4.235481195965D+02  KE= 1.518057892438D+02
 Symmetry A'   KE= 1.427664892820D+02
 Symmetry A"   KE= 9.039299961763D+00
 Leave Link  601 at Sat Aug 27 08:38:03 2022, MaxMem=   536870912 cpu:               0.1 elap:               0.0
 (Enter /usr/site/hpc/x86_64/glibc-2.17/broadwell/gaussian/g16_a.03/pgi-16.5/g16/l9999.exe)
 1\1\GINC-N003\SP\RCCSD(T)-FC\CC-pVTZ\H4O2\C7441284\27-Aug-2022\0\\#p C
 CSD(T)/cc-pVTZ\\H2O_H2O_2108\\0,1\O,0,0.,-0.009833,0.\H,0,-0.799571,-0
 .580965,0.\H,0,0.799571,-0.580965,0.\O,0,-0.004917,3.82976,0.\H,0,0.40
 1967,4.724161,0.\H,0,-0.982932,3.924589,0.\\Version=ES64L-G16RevA.03\S
 tate=1-A'\HF=-152.1053247\MP2=-152.6316913\MP3=-152.6391908\MP4D=-152.
 6483342\MP4DQ=-152.6407452\MP4SDQ=-152.6438327\CCSD=-152.6432313\CCSD(
 T)=-152.658928\RMSD=8.545e-09\PG=CS [SG(H4O2)]\\@


                                                                                    A
                                                                                  AA
                                                                                 AAA
                                                                                AAAA
                                                                               AAAAA
                                                                              AAAAAA   KKKKKKKK
                                                                             AAAAAAA   KKKKKKKK
                                                                            AAAAAAAA   KKKKKKKK
                                       ZZZZZZZZZZZZZZZZZZZZ                AAAA  AAA   KKKKKKKK
                                       ZZZZZZZZZZZZZZZZZZZ                AAAA   AAA   KKKKKKKK          K
                                       ZZZZZZZZZZZZZZZZZZ                AAAA    AAA   KKKKKKKK         KKK
                                       ZZZZZZZZZZZZZZZZZ                AAAA     AAA   KKKKKKKK        KKKKK
                                       ZZZZZZZZZZZZZZZZ                AAAA      AAA   KKKKKKKK       KKKKKKK
                                                ZZZZZZ                AAAA       AAA   KKKKKKKK      KKKKKKK
                                               ZZZZZZ                AAAA        AAA   KKKKKKKK     KKKKKKK
                                              ZZZZZZ                AAAA         AAA   KKKKKKKK    KKKKKKK
                                             ZZZZZZ                AAAA          AAA   KKKKKKKK   KKKKKKK
                                            ZZZZZZ                AAAAAAAAAAAAAAAAAA   KKKKKKKK  KKKKKKK
                                           ZZZZZZ                AAAAAAAAAAAAAAAAAAA   KKKKKKKK KKKKKKK
                                          ZZZZZZ                AAAAAAAAAAAAAAAAAAAA   KKKKKKKKKKKKKKK
                                         ZZZZZZ                AAAAAAAAAAAAAAAAAAAAA   KKKKKKKKKKKKKK
                                        ZZZZZZ                AAAAAA        AAAAAAAA   KKKKKKKKKKKKK
                                       ZZZZZZ                AAAAAA         AAAAAAAA   KKKKKKKKKKKK
                                      ZZZZZZ                AAAAAA          AAAAAAAA   KKKKKKKKKKK
                                     ZZZZZZ                AAAAAA           AAAAAAAA   KKKKKKKKKKKK
                                    ZZZZZZ                AAAAAA            AAAAAAAA   KKKKKKKKKKKKK
                                   ZZZZZZ                AAAAAA             AAAAAAAA   KKKKKKKKKKKKKK
                                  ZZZZZZ                AAAAAA              AAAAAAAA   KKKKKKKKKKKKKKK
                                 ZZZZZZ                AAAAAA               AAAAAAAA   KKKKK KKKKKKKKKK
                                ZZZZZZ                AAAAAA                AAAAAAAA   KKKKK  KKKKKKKKKK
                               ZZZZZZ                AAAAAA                            KKKKK   KKKKKKKKKK
                              ZZZZZZ                AAAAAA                             KKKKK    KKKKKKKKKK
                             ZZZZZZ                                                    KKKKK     KKKKKKKKKK
                            ZZZZZZ                                                     KKKKK      KKKKKKKKKK
                           ZZZZZZ                                                      KKKKK       KKKKKKKKKK
                          ZZZZZZ                                                       KKKKK        KKKKKKKKKK
                         ZZZZZZZZZZZZZZZZZZZZZZZZZZZZZZZZZZZZZZZZ                      KKKKK         KKKKKKKKKK
                        ZZZZZZZZZZZZZZZZZZZZZZZZZZZZZZZZZZZZZZZZZ                      KKKKK          KKKKKKKKKK
                       ZZZZZZZZZZZZZZZZZZZZZZZZZZZZZZZZZZZZZZZZZZ                      KKKKK           KKKKKKKKKK
                       ZZZZZZZZZZZZZZZZZZZZZZZZZZZZZZZZZZZZZZZZZZ                      KKKKK            KKKKKKKKKK
                       ZZZZZZZZZZZZZZZZZZZZZZZZZZZZZZZZZZZZZZZZZZ                      KKKKK             KKKKKKKKKK
                       ZZZZZZZZZZZZZZZZZZZZZZZZZZZZZZZZZZZZZZZZZZ                      KKKKK              KKKKKKKKKK
                       ZZZZZZZZZZZZZZZZZZZZZZZZZZZZZZZZZZZZZZZZZZ                      KKKKK               KKKKKKKKKK
                       ZZZZZZZZZZZZZZZZZZZZZZZZZZZZZZZZZZZZZZZZZZ                      KKKKK                KKKKKKKKKK
                       ZZZZZZZZZZZZZZZZZZZZZZZZZZZZZZZZZZZZZZZZZZ                      KKKKK
                                                                                       KKKKK
                                                                                          (J.P.)
 Job cpu time:       0 days  0 hours  1 minutes 14.9 seconds.
 Elapsed time:       0 days  0 hours  0 minutes 19.1 seconds.
 File lengths (MBytes):  RWF=    340 Int=      0 D2E=      0 Chk=      8 Scr=      8
 Normal termination of Gaussian 16 at Sat Aug 27 08:38:04 2022.
