 Entering Gaussian System, Link 0=g16
 Input=H2O_H2O_1718.com
 Output=H2O_H2O_1718.log
 Initial command:
 /usr/site/hpc/x86_64/glibc-2.17/broadwell/gaussian/g16_a.03/pgi-16.5/g16/l1.exe "/gpfs/gpfs1/scratch/c7441284/ForceFieldModel/FittingData/Gau-3667369.inp" -scrdir="/gpfs/gpfs1/scratch/c7441284/ForceFieldModel/FittingData/"
 Entering Link 1 = /usr/site/hpc/x86_64/glibc-2.17/broadwell/gaussian/g16_a.03/pgi-16.5/g16/l1.exe PID=   3667370.
  
 Copyright (c) 1988,1990,1992,1993,1995,1998,2003,2009,2016,
            Gaussian, Inc.  All Rights Reserved.
  
 This is part of the Gaussian(R) 16 program.  It is based on
 the Gaussian(R) 09 system (copyright 2009, Gaussian, Inc.),
 the Gaussian(R) 03 system (copyright 2003, Gaussian, Inc.),
 the Gaussian(R) 98 system (copyright 1998, Gaussian, Inc.),
 the Gaussian(R) 94 system (copyright 1995, Gaussian, Inc.),
 the Gaussian 92(TM) system (copyright 1992, Gaussian, Inc.),
 the Gaussian 90(TM) system (copyright 1990, Gaussian, Inc.),
 the Gaussian 88(TM) system (copyright 1988, Gaussian, Inc.),
 the Gaussian 86(TM) system (copyright 1986, Carnegie Mellon
 University), and the Gaussian 82(TM) system (copyright 1983,
 Carnegie Mellon University). Gaussian is a federally registered
 trademark of Gaussian, Inc.
  
 This software contains proprietary and confidential information,
 including trade secrets, belonging to Gaussian, Inc.
  
 This software is provided under written license and may be
 used, copied, transmitted, or stored only in accord with that
 written license.
  
 The following legend is applicable only to US Government
 contracts under FAR:
  
                    RESTRICTED RIGHTS LEGEND
  
 Use, reproduction and disclosure by the US Government is
 subject to restrictions as set forth in subparagraphs (a)
 and (c) of the Commercial Computer Software - Restricted
 Rights clause in FAR 52.227-19.
  
 Gaussian, Inc.
 340 Quinnipiac St., Bldg. 40, Wallingford CT 06492
  
  
 ---------------------------------------------------------------
 Warning -- This program may not be used in any manner that
 competes with the business of Gaussian, Inc. or will provide
 assistance to any competitor of Gaussian, Inc.  The licensee
 of this program is prohibited from giving any competitor of
 Gaussian, Inc. access to this program.  By using this program,
 the user acknowledges that Gaussian, Inc. is engaged in the
 business of creating and licensing software in the field of
 computational chemistry and represents and warrants to the
 licensee that it is not a competitor of Gaussian, Inc. and that
 it will not use this program in any manner prohibited above.
 ---------------------------------------------------------------
  

 Cite this work as:
 Gaussian 16, Revision A.03,
 M. J. Frisch, G. W. Trucks, H. B. Schlegel, G. E. Scuseria, 
 M. A. Robb, J. R. Cheeseman, G. Scalmani, V. Barone, 
 G. A. Petersson, H. Nakatsuji, X. Li, M. Caricato, A. V. Marenich, 
 J. Bloino, B. G. Janesko, R. Gomperts, B. Mennucci, H. P. Hratchian, 
 J. V. Ortiz, A. F. Izmaylov, J. L. Sonnenberg, D. Williams-Young, 
 F. Ding, F. Lipparini, F. Egidi, J. Goings, B. Peng, A. Petrone, 
 T. Henderson, D. Ranasinghe, V. G. Zakrzewski, J. Gao, N. Rega, 
 G. Zheng, W. Liang, M. Hada, M. Ehara, K. Toyota, R. Fukuda, 
 J. Hasegawa, M. Ishida, T. Nakajima, Y. Honda, O. Kitao, H. Nakai, 
 T. Vreven, K. Throssell, J. A. Montgomery, Jr., J. E. Peralta, 
 F. Ogliaro, M. J. Bearpark, J. J. Heyd, E. N. Brothers, K. N. Kudin, 
 V. N. Staroverov, T. A. Keith, R. Kobayashi, J. Normand, 
 K. Raghavachari, A. P. Rendell, J. C. Burant, S. S. Iyengar, 
 J. Tomasi, M. Cossi, J. M. Millam, M. Klene, C. Adamo, R. Cammi, 
 J. W. Ochterski, R. L. Martin, K. Morokuma, O. Farkas, 
 J. B. Foresman, and D. J. Fox, Gaussian, Inc., Wallingford CT, 2016.
 
 ******************************************
 Gaussian 16:  ES64L-G16RevA.03 25-Dec-2016
                27-Aug-2022 
 ******************************************
 %NProcShared=4
 Will use up to    4 processors via shared memory.
 %Mem=4GB
 %Chk=H2O_H2O_1718.chk
 ------------------
 #p CCSD(T)/cc-pVTZ
 ------------------
 1/38=1,172=1/1;
 2/12=2,17=6,18=5,40=1/2;
 3/5=16,6=1,11=9,25=1,30=1/1,2,3;
 4//1;
 5/5=2,38=5/2;
 8/6=4,9=120000,10=1/1,4;
 9/5=7,14=2/13;
 6/7=2,8=2,9=2,10=2/1;
 99/5=1,9=1/99;
 Leave Link    1 at Sat Aug 27 06:23:13 2022, MaxMem=   536870912 cpu:               0.3 elap:               0.1
 (Enter /usr/site/hpc/x86_64/glibc-2.17/broadwell/gaussian/g16_a.03/pgi-16.5/g16/l101.exe)
 ------------
 H2O_H2O_1718
 ------------
 Symbolic Z-matrix:
 Charge =  0 Multiplicity = 1
 O                     0.       -0.00983   0. 
 H                    -0.79957  -0.58097   0. 
 H                     0.79957  -0.58097   0. 
 O                    -0.00909   3.39954   0. 
 H                    -0.23076   4.35681   0. 
 H                    -0.84273   2.87939   0. 
 
 ITRead=  0  0  0  0  0  0
 MicOpt= -1 -1 -1 -1 -1 -1
 NAtoms=      6 NQM=        6 NQMF=       0 NMMI=      0 NMMIF=      0
                NMic=       0 NMicF=      0.
                    Isotopes and Nuclear Properties:
 (Nuclear quadrupole moments (NQMom) in fm**2, nuclear magnetic moments (NMagM)
  in nuclear magnetons)

  Atom         1           2           3           4           5           6
 IAtWgt=          16           1           1          16           1           1
 AtmWgt=  15.9949146   1.0078250   1.0078250  15.9949146   1.0078250   1.0078250
 NucSpn=           0           1           1           0           1           1
 AtZEff=  -0.0000000  -0.0000000  -0.0000000  -0.0000000  -0.0000000  -0.0000000
 NQMom=    0.0000000   0.0000000   0.0000000   0.0000000   0.0000000   0.0000000
 NMagM=    0.0000000   2.7928460   2.7928460   0.0000000   2.7928460   2.7928460
 AtZNuc=   8.0000000   1.0000000   1.0000000   8.0000000   1.0000000   1.0000000
 Leave Link  101 at Sat Aug 27 06:23:13 2022, MaxMem=   536870912 cpu:               0.3 elap:               0.1
 (Enter /usr/site/hpc/x86_64/glibc-2.17/broadwell/gaussian/g16_a.03/pgi-16.5/g16/l202.exe)
                          Input orientation:                          
 ---------------------------------------------------------------------
 Center     Atomic      Atomic             Coordinates (Angstroms)
 Number     Number       Type             X           Y           Z
 ---------------------------------------------------------------------
      1          8           0        0.000000   -0.009833    0.000000
      2          1           0       -0.799571   -0.580965    0.000000
      3          1           0        0.799571   -0.580965    0.000000
      4          8           0       -0.009085    3.399538    0.000000
      5          1           0       -0.230759    4.356809    0.000000
      6          1           0       -0.842725    2.879394    0.000000
 ---------------------------------------------------------------------
                    Distance matrix (angstroms):
                    1          2          3          4          5
     1  O    0.000000
     2  H    0.982601   0.000000
     3  H    0.982601   1.599142   0.000000
     4  O    3.409383   4.058235   4.061813   0.000000
     5  H    4.372735   4.970428   5.044125   0.982602   0.000000
     6  H    3.009621   3.460628   3.830303   0.982601   1.599143
                    6
     6  H    0.000000
 Stoichiometry    H4O2
 Framework group  CS[SG(H4O2)]
 Deg. of freedom     9
 Full point group                 CS      NOp   2
 Largest Abelian subgroup         CS      NOp   2
 Largest concise Abelian subgroup C1      NOp   1
                         Standard orientation:                         
 ---------------------------------------------------------------------
 Center     Atomic      Atomic             Coordinates (Angstroms)
 Number     Number       Type             X           Y           Z
 ---------------------------------------------------------------------
      1          8           0        0.052859   -1.669575    0.000000
      2          1           0       -0.748231   -2.238575    0.000000
      3          1           0        0.850906   -2.242836    0.000000
      4          8           0        0.052859    1.739808    0.000000
      5          1           0       -0.166263    2.697666    0.000000
      6          1           0       -0.782164    1.221887    0.000000
 ---------------------------------------------------------------------
 Rotational constants (GHZ):         254.6216179           4.5133214           4.4347135
 Leave Link  202 at Sat Aug 27 06:23:13 2022, MaxMem=   536870912 cpu:               0.0 elap:               0.0
 (Enter /usr/site/hpc/x86_64/glibc-2.17/broadwell/gaussian/g16_a.03/pgi-16.5/g16/l301.exe)
 Standard basis: CC-pVTZ (5D, 7F)
 Ernie: Thresh=  0.10000D-02 Tol=  0.10000D-05 Strict=F.
 Ernie:  6 primitive shells out of 84 were deleted.
 There are    92 symmetry adapted cartesian basis functions of A'  symmetry.
 There are    38 symmetry adapted cartesian basis functions of A"  symmetry.
 There are    80 symmetry adapted basis functions of A'  symmetry.
 There are    36 symmetry adapted basis functions of A"  symmetry.
   116 basis functions,   172 primitive gaussians,   130 cartesian basis functions
    10 alpha electrons       10 beta electrons
       nuclear repulsion energy        32.7915280498 Hartrees.
 IExCor=    0 DFT=F Ex=HF Corr=None ExCW=0 ScaHFX=  1.000000
 ScaDFX=  1.000000  1.000000  1.000000  1.000000 ScalE2=  1.000000  1.000000
 IRadAn=      5 IRanWt=     -1 IRanGd=            0 ICorTp=0 IEmpDi=  4
 NAtoms=    6 NActive=    6 NUniq=    6 SFac= 1.00D+00 NAtFMM=   60 NAOKFM=F Big=F
 Integral buffers will be    131072 words long.
 Raffenetti 1 integral format.
 Two-electron integral symmetry is turned on.
 Leave Link  301 at Sat Aug 27 06:23:13 2022, MaxMem=   536870912 cpu:               0.2 elap:               0.1
 (Enter /usr/site/hpc/x86_64/glibc-2.17/broadwell/gaussian/g16_a.03/pgi-16.5/g16/l302.exe)
 NPDir=0 NMtPBC=     1 NCelOv=     1 NCel=       1 NClECP=     1 NCelD=      1
         NCelK=      1 NCelE2=     1 NClLst=     1 CellRange=     0.0.
 One-electron integrals computed using PRISM.
 One-electron integral symmetry used in STVInt
 NBasis=   116 RedAO= T EigKep=  2.26D-03  NBF=    80    36
 NBsUse=   116 1.00D-06 EigRej= -1.00D+00 NBFU=    80    36
 Leave Link  302 at Sat Aug 27 06:23:14 2022, MaxMem=   536870912 cpu:               0.4 elap:               0.1
 (Enter /usr/site/hpc/x86_64/glibc-2.17/broadwell/gaussian/g16_a.03/pgi-16.5/g16/l303.exe)
 DipDrv:  MaxL=1.
 Leave Link  303 at Sat Aug 27 06:23:14 2022, MaxMem=   536870912 cpu:               0.1 elap:               0.0
 (Enter /usr/site/hpc/x86_64/glibc-2.17/broadwell/gaussian/g16_a.03/pgi-16.5/g16/l401.exe)
 ExpMin= 1.03D-01 ExpMax= 1.53D+04 ExpMxC= 5.22D+02 IAcc=3 IRadAn=         5 AccDes= 0.00D+00
 Harris functional with IExCor=  205 and IRadAn=       5 diagonalized for initial guess.
 HarFok:  IExCor=  205 AccDes= 0.00D+00 IRadAn=         5 IDoV= 1 UseB2=F ITyADJ=14
 ICtDFT=  3500011 ScaDFX=  1.000000  1.000000  1.000000  1.000000
 FoFCou: FMM=F IPFlag=           0 FMFlag=      100000 FMFlg1=           0
         NFxFlg=           0 DoJE=T BraDBF=F KetDBF=T FulRan=T
         wScrn=  0.000000 ICntrl=       500 IOpCl=  0 I1Cent=   200000004 NGrid=           0
         NMat0=    1 NMatS0=      1 NMatT0=    0 NMatD0=    1 NMtDS0=    0 NMtDT0=    0
 Petite list used in FoFCou.
 Harris En= -152.299607566308    
 JPrj=0 DoOrth=F DoCkMO=F.
 Initial guess orbital symmetries:
       Occupied  (A') (A') (A') (A') (A') (A') (A') (A') (A") (A")
       Virtual   (A') (A') (A') (A') (A') (A') (A') (A') (A') (A")
                 (A") (A') (A') (A') (A") (A") (A') (A') (A") (A")
                 (A') (A') (A') (A') (A') (A') (A') (A') (A") (A")
                 (A") (A") (A') (A') (A') (A') (A') (A') (A') (A')
                 (A') (A') (A") (A") (A') (A') (A") (A") (A") (A")
                 (A') (A') (A') (A') (A') (A") (A") (A') (A') (A')
                 (A') (A") (A") (A') (A") (A") (A') (A') (A') (A')
                 (A") (A") (A') (A') (A') (A') (A') (A') (A') (A')
                 (A") (A") (A') (A') (A") (A") (A") (A") (A') (A')
                 (A") (A") (A') (A') (A') (A') (A") (A") (A') (A')
                 (A') (A') (A') (A') (A') (A')
 The electronic state of the initial guess is 1-A'.
 Leave Link  401 at Sat Aug 27 06:23:14 2022, MaxMem=   536870912 cpu:               0.8 elap:               0.2
 (Enter /usr/site/hpc/x86_64/glibc-2.17/broadwell/gaussian/g16_a.03/pgi-16.5/g16/l502.exe)
 Keep R1 ints in memory in symmetry-blocked form, NReq=34823457.
 FoFCou: FMM=F IPFlag=           0 FMFlag=           0 FMFlg1=           0
         NFxFlg=           0 DoJE=F BraDBF=F KetDBF=F FulRan=T
         wScrn=  0.000000 ICntrl=       600 IOpCl=  0 I1Cent=           0 NGrid=           0
         NMat0=    1 NMatS0=   6786 NMatT0=    0 NMatD0=    1 NMtDS0=    0 NMtDT0=    0
 Petite list used in FoFCou.
 Closed shell SCF:
 Using DIIS extrapolation, IDIIS=  1040.
 NGot=   536870912 LenX=   525040673 LenY=   525023332
 Requested convergence on RMS density matrix=1.00D-08 within 128 cycles.
 Requested convergence on MAX density matrix=1.00D-06.
 Requested convergence on             energy=1.00D-06.
 No special actions if energy rises.

 Cycle   1  Pass 1  IDiag  1:
 E= -151.926875785840    
 DIIS: error= 6.61D-02 at cycle   1 NSaved=   1.
 NSaved= 1 IEnMin= 1 EnMin= -151.926875785840     IErMin= 1 ErrMin= 6.61D-02
 ErrMax= 6.61D-02  0.00D+00 EMaxC= 1.00D-01 BMatC= 3.99D-01 BMatP= 3.99D-01
 IDIUse=3 WtCom= 3.39D-01 WtEn= 6.61D-01
 Coeff-Com:  0.100D+01
 Coeff-En:   0.100D+01
 Coeff:      0.100D+01
 Gap=     0.505 Goal=   None    Shift=    0.000
 GapD=    0.505 DampG=2.000 DampE=0.500 DampFc=1.0000 IDamp=-1.
 RMSDP=2.61D-03 MaxDP=6.66D-02              OVMax= 1.28D-01

 Cycle   2  Pass 1  IDiag  1:
 E= -152.038034577734     Delta-E=       -0.111158791894 Rises=F Damp=F
 DIIS: error= 4.16D-02 at cycle   2 NSaved=   2.
 NSaved= 2 IEnMin= 2 EnMin= -152.038034577734     IErMin= 2 ErrMin= 4.16D-02
 ErrMax= 4.16D-02  0.00D+00 EMaxC= 1.00D-01 BMatC= 1.13D-01 BMatP= 3.99D-01
 IDIUse=3 WtCom= 5.84D-01 WtEn= 4.16D-01
 Coeff-Com:  0.320D+00 0.680D+00
 Coeff-En:   0.170D+00 0.830D+00
 Coeff:      0.258D+00 0.742D+00
 Gap=     0.642 Goal=   None    Shift=    0.000
 RMSDP=1.40D-03 MaxDP=3.97D-02 DE=-1.11D-01 OVMax= 5.76D-02

 Cycle   3  Pass 1  IDiag  1:
 E= -152.103390661367     Delta-E=       -0.065356083632 Rises=F Damp=F
 DIIS: error= 9.06D-03 at cycle   3 NSaved=   3.
 NSaved= 3 IEnMin= 3 EnMin= -152.103390661367     IErMin= 3 ErrMin= 9.06D-03
 ErrMax= 9.06D-03  0.00D+00 EMaxC= 1.00D-01 BMatC= 6.03D-03 BMatP= 1.13D-01
 IDIUse=3 WtCom= 9.09D-01 WtEn= 9.06D-02
 Coeff-Com: -0.308D-01 0.156D+00 0.875D+00
 Coeff-En:   0.000D+00 0.000D+00 0.100D+01
 Coeff:     -0.280D-01 0.142D+00 0.886D+00
 Gap=     0.614 Goal=   None    Shift=    0.000
 RMSDP=2.57D-04 MaxDP=5.73D-03 DE=-6.54D-02 OVMax= 1.35D-02

 Cycle   4  Pass 1  IDiag  1:
 E= -152.107164111062     Delta-E=       -0.003773449695 Rises=F Damp=F
 DIIS: error= 8.60D-04 at cycle   4 NSaved=   4.
 NSaved= 4 IEnMin= 4 EnMin= -152.107164111062     IErMin= 4 ErrMin= 8.60D-04
 ErrMax= 8.60D-04  0.00D+00 EMaxC= 1.00D-01 BMatC= 3.86D-05 BMatP= 6.03D-03
 IDIUse=3 WtCom= 9.91D-01 WtEn= 8.60D-03
 Coeff-Com:  0.681D-02-0.612D-01-0.238D+00 0.129D+01
 Coeff-En:   0.000D+00 0.000D+00 0.000D+00 0.100D+01
 Coeff:      0.675D-02-0.607D-01-0.236D+00 0.129D+01
 Gap=     0.617 Goal=   None    Shift=    0.000
 RMSDP=5.34D-05 MaxDP=1.02D-03 DE=-3.77D-03 OVMax= 2.45D-03

 Cycle   5  Pass 1  IDiag  1:
 E= -152.107216283770     Delta-E=       -0.000052172708 Rises=F Damp=F
 DIIS: error= 1.95D-04 at cycle   5 NSaved=   5.
 NSaved= 5 IEnMin= 5 EnMin= -152.107216283770     IErMin= 5 ErrMin= 1.95D-04
 ErrMax= 1.95D-04  0.00D+00 EMaxC= 1.00D-01 BMatC= 1.41D-06 BMatP= 3.86D-05
 IDIUse=3 WtCom= 9.98D-01 WtEn= 1.95D-03
 Coeff-Com:  0.662D-03-0.530D-03-0.679D-02-0.198D+00 0.121D+01
 Coeff-En:   0.000D+00 0.000D+00 0.000D+00 0.000D+00 0.100D+01
 Coeff:      0.660D-03-0.529D-03-0.678D-02-0.198D+00 0.120D+01
 Gap=     0.618 Goal=   None    Shift=    0.000
 RMSDP=1.42D-05 MaxDP=3.07D-04 DE=-5.22D-05 OVMax= 7.14D-04

 Cycle   6  Pass 1  IDiag  1:
 E= -152.107219170144     Delta-E=       -0.000002886375 Rises=F Damp=F
 DIIS: error= 3.11D-05 at cycle   6 NSaved=   6.
 NSaved= 6 IEnMin= 6 EnMin= -152.107219170144     IErMin= 6 ErrMin= 3.11D-05
 ErrMax= 3.11D-05  0.00D+00 EMaxC= 1.00D-01 BMatC= 4.73D-08 BMatP= 1.41D-06
 IDIUse=1 WtCom= 1.00D+00 WtEn= 0.00D+00
 Coeff-Com: -0.218D-03 0.181D-02 0.716D-02-0.335D-01-0.834D-01 0.111D+01
 Coeff:     -0.218D-03 0.181D-02 0.716D-02-0.335D-01-0.834D-01 0.111D+01
 Gap=     0.618 Goal=   None    Shift=    0.000
 RMSDP=2.91D-06 MaxDP=7.40D-05 DE=-2.89D-06 OVMax= 1.57D-04

 Cycle   7  Pass 1  IDiag  1:
 E= -152.107219275066     Delta-E=       -0.000000104922 Rises=F Damp=F
 DIIS: error= 9.12D-06 at cycle   7 NSaved=   7.
 NSaved= 7 IEnMin= 7 EnMin= -152.107219275066     IErMin= 7 ErrMin= 9.12D-06
 ErrMax= 9.12D-06  0.00D+00 EMaxC= 1.00D-01 BMatC= 8.02D-09 BMatP= 4.73D-08
 IDIUse=1 WtCom= 1.00D+00 WtEn= 0.00D+00
 Coeff-Com: -0.104D-03 0.404D-03 0.189D-02 0.123D-01-0.134D+00 0.273D+00
 Coeff-Com:  0.847D+00
 Coeff:     -0.104D-03 0.404D-03 0.189D-02 0.123D-01-0.134D+00 0.273D+00
 Coeff:      0.847D+00
 Gap=     0.618 Goal=   None    Shift=    0.000
 RMSDP=6.88D-07 MaxDP=2.09D-05 DE=-1.05D-07 OVMax= 4.46D-05

 Cycle   8  Pass 1  IDiag  1:
 E= -152.107219284626     Delta-E=       -0.000000009560 Rises=F Damp=F
 DIIS: error= 2.54D-06 at cycle   8 NSaved=   8.
 NSaved= 8 IEnMin= 8 EnMin= -152.107219284626     IErMin= 8 ErrMin= 2.54D-06
 ErrMax= 2.54D-06  0.00D+00 EMaxC= 1.00D-01 BMatC= 5.54D-10 BMatP= 8.02D-09
 IDIUse=1 WtCom= 1.00D+00 WtEn= 0.00D+00
 Coeff-Com:  0.261D-04-0.235D-03-0.946D-03 0.521D-02 0.767D-02-0.123D+00
 Coeff-Com:  0.373D-03 0.111D+01
 Coeff:      0.261D-04-0.235D-03-0.946D-03 0.521D-02 0.767D-02-0.123D+00
 Coeff:      0.373D-03 0.111D+01
 Gap=     0.618 Goal=   None    Shift=    0.000
 RMSDP=2.17D-07 MaxDP=4.57D-06 DE=-9.56D-09 OVMax= 1.51D-05

 Cycle   9  Pass 1  IDiag  1:
 E= -152.107219285628     Delta-E=       -0.000000001001 Rises=F Damp=F
 DIIS: error= 7.08D-07 at cycle   9 NSaved=   9.
 NSaved= 9 IEnMin= 9 EnMin= -152.107219285628     IErMin= 9 ErrMin= 7.08D-07
 ErrMax= 7.08D-07  0.00D+00 EMaxC= 1.00D-01 BMatC= 2.91D-11 BMatP= 5.54D-10
 IDIUse=1 WtCom= 1.00D+00 WtEn= 0.00D+00
 Coeff-Com:  0.168D-05 0.264D-04 0.109D-03-0.246D-02 0.911D-02 0.801D-02
 Coeff-Com: -0.619D-01-0.237D+00 0.128D+01
 Coeff:      0.168D-05 0.264D-04 0.109D-03-0.246D-02 0.911D-02 0.801D-02
 Coeff:     -0.619D-01-0.237D+00 0.128D+01
 Gap=     0.618 Goal=   None    Shift=    0.000
 RMSDP=6.08D-08 MaxDP=1.20D-06 DE=-1.00D-09 OVMax= 3.20D-06

 Cycle  10  Pass 1  IDiag  1:
 E= -152.107219285690     Delta-E=       -0.000000000062 Rises=F Damp=F
 DIIS: error= 9.18D-08 at cycle  10 NSaved=  10.
 NSaved=10 IEnMin=10 EnMin= -152.107219285690     IErMin=10 ErrMin= 9.18D-08
 ErrMax= 9.18D-08  0.00D+00 EMaxC= 1.00D-01 BMatC= 5.62D-13 BMatP= 2.91D-11
 IDIUse=1 WtCom= 1.00D+00 WtEn= 0.00D+00
 Coeff-Com: -0.772D-06-0.189D-06-0.360D-05 0.337D-03-0.147D-02-0.641D-03
 Coeff-Com:  0.118D-01 0.370D-01-0.305D+00 0.126D+01
 Coeff:     -0.772D-06-0.189D-06-0.360D-05 0.337D-03-0.147D-02-0.641D-03
 Coeff:      0.118D-01 0.370D-01-0.305D+00 0.126D+01
 Gap=     0.618 Goal=   None    Shift=    0.000
 RMSDP=8.02D-09 MaxDP=1.80D-07 DE=-6.19D-11 OVMax= 4.75D-07

 SCF Done:  E(RHF) =  -152.107219286     A.U. after   10 cycles
            NFock= 10  Conv=0.80D-08     -V/T= 2.0020
 KE= 1.518026251200D+02 PE=-4.271640942665D+02 EE= 9.046272181101D+01
 Leave Link  502 at Sat Aug 27 06:23:15 2022, MaxMem=   536870912 cpu:               3.7 elap:               1.0
 (Enter /usr/site/hpc/x86_64/glibc-2.17/broadwell/gaussian/g16_a.03/pgi-16.5/g16/l801.exe)
 Windowed orbitals will be sorted by symmetry type.
 ExpMin= 1.03D-01 ExpMax= 1.53D+04 ExpMxC= 5.22D+02 IAcc=3 IRadAn=         5 AccDes= 0.00D+00
 HarFok:  IExCor=  205 AccDes= 0.00D+00 IRadAn=         5 IDoV=-2 UseB2=F ITyADJ=14
 ICtDFT= 12500011 ScaDFX=  1.000000  1.000000  1.000000  1.000000
 Largest valence mixing into a core orbital is  1.12D-04
 Largest core mixing into a valence orbital is  1.77D-05
 Range of M.O.s used for correlation:     3   116
 NBasis=   116 NAE=    10 NBE=    10 NFC=     2 NFV=     0
 NROrb=    114 NOA=     8 NOB=     8 NVA=   106 NVB=   106
 Leave Link  801 at Sat Aug 27 06:23:15 2022, MaxMem=   536870912 cpu:               0.3 elap:               0.1
 (Enter /usr/site/hpc/x86_64/glibc-2.17/broadwell/gaussian/g16_a.03/pgi-16.5/g16/l804.exe)
 Closed-shell transformation, MDV=   536870912 ITran=4 ISComp=2.
 Unit  1 TFree=        834515 TCopy=        406125.
 Semi-Direct transformation.
 ModeAB=           4 MOrb=             8 LenV=     536367588
 LASXX=      2873146 LTotXX=     2873146 LenRXX=     5831278
 LTotAB=     2958132 MaxLAS=     6934848 LenRXY=           0
 NonZer=     8704424 LenScr=    13107200 LnRSAI=     6934848
 LnScr1=    10485760 LExtra=           0 Total=     36359086
 MaxDsk=          -1 SrtSym=           T ITran=            4
 DoSDTr:  NPSUse=  4
 JobTyp=0 Pass  1:  I=   1 to   8.
 (rs|ai) integrals will be sorted in core.
 Complete sort for first half transformation.
 First half transformation complete.
 Complete sort for second half transformation.
 Second half transformation complete.
 Spin components of T(2) and E(2):
     alpha-alpha T2 =       0.1563896303D-01 E2=     -0.6395945464D-01
     alpha-beta  T2 =       0.9217633754D-01 E2=     -0.3987554953D+00
     beta-beta   T2 =       0.1563896303D-01 E2=     -0.6395945464D-01
 ANorm=    0.1059931254D+01
 E2 =    -0.5266744045D+00 EUMP2 =    -0.15263389369024D+03
 Leave Link  804 at Sat Aug 27 06:23:16 2022, MaxMem=   536870912 cpu:               3.8 elap:               1.0
 (Enter /usr/site/hpc/x86_64/glibc-2.17/broadwell/gaussian/g16_a.03/pgi-16.5/g16/l913.exe)
 CIDS:  MDV=   536870912.
 Frozen-core window:  NFC=   2 NFV=   0.
 IFCWin=0 IBDFC=1 NFBD=     0     0 NFCmp=     0     0 NFFFC=     0     0
 Using DD3R+UMP44R for 1st iteration.
 Using DD4RQ for 2nd and later iterations.
 Keep R2 and R3 ints in memory in symmetry-blocked form, NReq=35357534.
 FoFCou: FMM=F IPFlag=           0 FMFlag=           0 FMFlg1=           0
         NFxFlg=           0 DoJE=F BraDBF=F KetDBF=F FulRan=T
         wScrn=  0.000000 ICntrl=       600 IOpCl=  0 I1Cent=           0 NGrid=           0
         NMat0=    1 NMatS0=   6786 NMatT0=    0 NMatD0=    1 NMtDS0=    0 NMtDT0=    0
 Petite list used in FoFCou.
 CIDS: In Core Option IDoMem=           1.
 CCSD(T)
 =======
 Iterations=  50 Convergence= 0.100D-06
 Produce multiple copies of IABC intergrals
 Iteration Nr.   1
 **********************
 DD1Dir will call FoFMem   1 times, MxPair=        72
 NAB=    36 NAA=     0 NBB=     0.
 MP4(R+Q)=  0.76005464D-02
 Maximum subspace dimension=  5
 A-vector RMS=  1.7761086D-03 Max=  5.5068111D-03 conv= 1.00D-05.
 RLE energy=       -0.5264043567
 E3=       -0.74017151D-02        EUMP3=      -0.15264129541D+03
 E4(DQ)=   -0.15398917D-02        UMP4(DQ)=   -0.15264283530D+03
 E4(SDQ)=  -0.46407999D-02        UMP4(SDQ)=  -0.15264593621D+03
 VARIATIONAL ENERGIES WITH THE FIRST-ORDER WAVEFUNCTION:
 DE(Corr)= -0.52640423     E(Corr)=     -152.63362351    
 NORM(A)=   0.10602451D+01
 Iteration Nr.   2
 **********************
 DD1Dir will call FoFMem   1 times, MxPair=        72
 NAB=    36 NAA=     0 NBB=     0.
 A-vector RMS=  2.1132266D-04 Max=  1.6743401D-03 conv= 1.00D-05.
 RLE energy=       -0.5375181518
 DE(Corr)= -0.53637150     E(CORR)=     -152.64359078     Delta=-9.97D-03
 NORM(A)=   0.10640218D+01
 Iteration Nr.   3
 **********************
 DD1Dir will call FoFMem   1 times, MxPair=        72
 NAB=    36 NAA=     0 NBB=     0.
 A-vector RMS=  1.4798810D-04 Max=  9.6507656D-04 conv= 1.00D-05.
 RLE energy=       -0.5380181485
 DE(Corr)= -0.53742600     E(CORR)=     -152.64464529     Delta=-1.05D-03
 NORM(A)=   0.10646638D+01
 Iteration Nr.   4
 **********************
 DD1Dir will call FoFMem   1 times, MxPair=        72
 NAB=    36 NAA=     0 NBB=     0.
 A-vector RMS=  2.8800048D-05 Max=  1.4925223D-04 conv= 1.00D-05.
 RLE energy=       -0.5380997208
 DE(Corr)= -0.53806480     E(CORR)=     -152.64528408     Delta=-6.39D-04
 NORM(A)=   0.10647768D+01
 Iteration Nr.   5
 **********************
 DD1Dir will call FoFMem   1 times, MxPair=        72
 NAB=    36 NAA=     0 NBB=     0.
 A-vector RMS=  1.9245491D-05 Max=  1.7289831D-04 conv= 1.00D-05.
 RLE energy=       -0.5381101222
 DE(Corr)= -0.53810290     E(CORR)=     -152.64532219     Delta=-3.81D-05
 NORM(A)=   0.10647877D+01
 Iteration Nr.   6
 **********************
 DD1Dir will call FoFMem   1 times, MxPair=        72
 NAB=    36 NAA=     0 NBB=     0.
 A-vector RMS=  5.9636427D-06 Max=  5.1656507D-05 conv= 1.00D-05.
 RLE energy=       -0.5381011534
 DE(Corr)= -0.53810631     E(CORR)=     -152.64532560     Delta=-3.41D-06
 NORM(A)=   0.10647876D+01
 Iteration Nr.   7
 **********************
 DD1Dir will call FoFMem   1 times, MxPair=        72
 NAB=    36 NAA=     0 NBB=     0.
 A-vector RMS=  2.6860075D-06 Max=  2.4792581D-05 conv= 1.00D-05.
 RLE energy=       -0.5381065873
 DE(Corr)= -0.53810648     E(CORR)=     -152.64532577     Delta=-1.69D-07
 NORM(A)=   0.10647897D+01
 Iteration Nr.   8
 **********************
 DD1Dir will call FoFMem   1 times, MxPair=        72
 NAB=    36 NAA=     0 NBB=     0.
 A-vector RMS=  8.9923676D-07 Max=  9.0382371D-06 conv= 1.00D-05.
 RLE energy=       -0.5381058080
 DE(Corr)= -0.53810601     E(CORR)=     -152.64532529     Delta= 4.77D-07
 NORM(A)=   0.10647898D+01
 Iteration Nr.   9
 **********************
 DD1Dir will call FoFMem   1 times, MxPair=        72
 NAB=    36 NAA=     0 NBB=     0.
 A-vector RMS=  1.6479912D-07 Max=  1.8222718D-06 conv= 1.00D-05.
 RLE energy=       -0.5381060848
 DE(Corr)= -0.53810616     E(CORR)=     -152.64532544     Delta=-1.52D-07
 NORM(A)=   0.10647902D+01
 Iteration Nr.  10
 **********************
 DD1Dir will call FoFMem   1 times, MxPair=        72
 NAB=    36 NAA=     0 NBB=     0.
 A-vector RMS=  7.2769487D-08 Max=  6.4579853D-07 conv= 1.00D-05.
 RLE energy=       -0.5381062730
 DE(Corr)= -0.53810625     E(CORR)=     -152.64532554     Delta=-9.53D-08
 NORM(A)=   0.10647903D+01
 CI/CC converged in   10 iterations to DelEn=-9.53D-08 Conv= 1.00D-07 ErrA1= 7.28D-08 Conv= 1.00D-05
 Wavefunction amplitudes converged. E(Corr)=     -152.64532554    
 Largest amplitude= 3.45D-02
 IPart=  4 IA=    7   11.05% done.
 IPart=  4 IA=   13   21.46% done.
 IPart=  2 IA=   19   31.21% done.
 IPart=  3 IA=   25   40.32% done.
 IPart=  1 IA=   32   50.13% done.
 IPart=  1 IA=   40   60.27% done.
 IPart=  1 IA=   49   70.30% done.
 IPart=  3 IA=   60   80.58% done.
 IPart=  3 IA=   74   90.51% done.
 Time for triples=       46.10 seconds.
 T4(CCSD)= -0.16149231D-01
 T5(CCSD)=  0.41374326D-03
 CCSD(T)= -0.15266106103D+03
 Discarding MO integrals.
 Leave Link  913 at Sat Aug 27 06:23:33 2022, MaxMem=   536870912 cpu:              67.2 elap:              16.9
 (Enter /usr/site/hpc/x86_64/glibc-2.17/broadwell/gaussian/g16_a.03/pgi-16.5/g16/l601.exe)
 Copying SCF densities to generalized density rwf, IOpCl= 0 IROHF=0.

 **********************************************************************

            Population analysis using the SCF density.

 **********************************************************************

 Orbital symmetries:
       Occupied  (A') (A') (A') (A') (A') (A') (A') (A') (A") (A")
       Virtual   (A') (A') (A') (A') (A') (A') (A') (A') (A') (A')
                 (A") (A') (A') (A") (A") (A") (A') (A") (A") (A')
                 (A') (A') (A') (A') (A') (A') (A') (A') (A") (A")
                 (A") (A') (A") (A') (A') (A') (A') (A') (A') (A')
                 (A') (A') (A") (A") (A') (A') (A") (A") (A') (A')
                 (A") (A") (A') (A') (A') (A") (A') (A") (A") (A")
                 (A') (A') (A') (A') (A") (A") (A') (A') (A') (A')
                 (A") (A") (A') (A') (A') (A') (A') (A') (A') (A')
                 (A") (A") (A') (A') (A") (A") (A") (A") (A') (A')
                 (A") (A") (A') (A') (A') (A') (A") (A") (A') (A')
                 (A') (A') (A') (A') (A') (A')
 The electronic state is 1-A'.
 Alpha  occ. eigenvalues --  -20.55585 -20.53972  -1.32860  -1.31244  -0.70277
 Alpha  occ. eigenvalues --   -0.68620  -0.56269  -0.54634  -0.49975  -0.48365
 Alpha virt. eigenvalues --    0.13408   0.16527   0.19977   0.23050   0.54219
 Alpha virt. eigenvalues --    0.54517   0.57200   0.58444   0.65265   0.76142
 Alpha virt. eigenvalues --    0.77894   0.78068   0.78609   0.81178   0.84801
 Alpha virt. eigenvalues --    0.86392   0.86735   0.97616   0.98824   1.00108
 Alpha virt. eigenvalues --    1.13336   1.14165   1.18962   1.24480   1.51544
 Alpha virt. eigenvalues --    1.51993   1.53362   1.54627   2.00635   2.02289
 Alpha virt. eigenvalues --    2.06718   2.07557   2.08365   2.13494   2.16461
 Alpha virt. eigenvalues --    2.21272   2.26902   2.35750   2.61257   2.64023
 Alpha virt. eigenvalues --    2.92832   2.95287   3.39329   3.40967   3.49921
 Alpha virt. eigenvalues --    3.51561   3.53081   3.54676   3.59452   3.61354
 Alpha virt. eigenvalues --    3.78590   3.80232   3.84068   3.87058   3.89097
 Alpha virt. eigenvalues --    3.93535   3.94386   3.95071   4.03214   4.04610
 Alpha virt. eigenvalues --    4.08322   4.10617   4.15388   4.17396   4.30077
 Alpha virt. eigenvalues --    4.31686   4.41182   4.41724   4.45441   4.48529
 Alpha virt. eigenvalues --    4.66425   4.68170   4.82344   4.84075   5.04586
 Alpha virt. eigenvalues --    5.07196   5.24407   5.25962   5.54671   5.56828
 Alpha virt. eigenvalues --    5.97881   5.99489   6.40339   6.42043   6.86128
 Alpha virt. eigenvalues --    6.87756   6.89607   6.91230   6.94775   6.96232
 Alpha virt. eigenvalues --    6.99076   7.00701   7.07424   7.10576   7.14471
 Alpha virt. eigenvalues --    7.15713   7.18241   7.19888   7.47394   7.49485
 Alpha virt. eigenvalues --    7.70849   7.73569   8.15663   8.17218  12.47398
 Alpha virt. eigenvalues --   12.59055
          Condensed to atoms (all electrons):
               1          2          3          4          5          6
     1  O    7.824769   0.326478   0.337547  -0.000022  -0.000039   0.004722
     2  H    0.326478   0.461268  -0.030539   0.000068  -0.000004  -0.000493
     3  H    0.337547  -0.030539   0.438397   0.000151  -0.000003  -0.000299
     4  O   -0.000022   0.000068   0.000151   7.828352   0.332227   0.340854
     5  H   -0.000039  -0.000004  -0.000003   0.332227   0.463042  -0.034366
     6  H    0.004722  -0.000493  -0.000299   0.340854  -0.034366   0.431607
 Mulliken charges:
               1
     1  O   -0.493456
     2  H    0.243222
     3  H    0.254745
     4  O   -0.501630
     5  H    0.239143
     6  H    0.257975
 Sum of Mulliken charges =  -0.00000
 Mulliken charges with hydrogens summed into heavy atoms:
               1
     1  O    0.004512
     4  O   -0.004512
 Electronic spatial extent (au):  <R**2>=            259.1514
 Charge=             -0.0000 electrons
 Dipole moment (field-independent basis, Debye):
    X=             -1.7565    Y=             -1.3234    Z=              0.0000  Tot=              2.1992
 Quadrupole moment (field-independent basis, Debye-Ang):
   XX=             -9.5708   YY=             -1.0467   ZZ=            -14.7171
   XY=             -2.6561   XZ=              0.0000   YZ=              0.0000
 Traceless Quadrupole moment (field-independent basis, Debye-Ang):
   XX=             -1.1259   YY=              7.3982   ZZ=             -6.2722
   XY=             -2.6561   XZ=              0.0000   YZ=              0.0000
 Octapole moment (field-independent basis, Debye-Ang**2):
  XXX=             -1.0884  YYY=             -1.7533  ZZZ=              0.0000  XYY=             -3.3455
  XXY=             -5.2941  XXZ=              0.0000  XZZ=             -0.2151  YZZ=             -0.2065
  YYZ=              0.0000  XYZ=              0.0000
 Hexadecapole moment (field-independent basis, Debye-Ang**3):
 XXXX=            -11.6843 YYYY=           -134.1442 ZZZZ=            -11.3510 XXXY=              0.2656
 XXXZ=              0.0000 YYYX=             -6.4249 YYYZ=              0.0000 ZZZX=              0.0000
 ZZZY=              0.0000 XXYY=            -31.0571 XXZZ=             -4.4232 YYZZ=            -49.9843
 XXYZ=              0.0000 YYXZ=              0.0000 ZZXY=              0.8404
 N-N= 3.279152804980D+01 E-N=-4.271640932453D+02  KE= 1.518026251200D+02
 Symmetry A'   KE= 1.427643250710D+02
 Symmetry A"   KE= 9.038300048956D+00
 Leave Link  601 at Sat Aug 27 06:23:33 2022, MaxMem=   536870912 cpu:               0.1 elap:               0.0
 (Enter /usr/site/hpc/x86_64/glibc-2.17/broadwell/gaussian/g16_a.03/pgi-16.5/g16/l9999.exe)
 1\1\GINC-N003\SP\RCCSD(T)-FC\CC-pVTZ\H4O2\C7441284\27-Aug-2022\0\\#p C
 CSD(T)/cc-pVTZ\\H2O_H2O_1718\\0,1\O,0,0.,-0.009833,0.\H,0,-0.799571,-0
 .580965,0.\H,0,0.799571,-0.580965,0.\O,0,-0.009085,3.399538,0.\H,0,-0.
 230759,4.356809,0.\H,0,-0.842725,2.879394,0.\\Version=ES64L-G16RevA.03
 \State=1-A'\HF=-152.1072193\MP2=-152.6338937\MP3=-152.6412954\MP4D=-15
 2.6504358\MP4DQ=-152.6428353\MP4SDQ=-152.6459362\CCSD=-152.6453255\CCS
 D(T)=-152.661061\RMSD=8.019e-09\PG=CS [SG(H4O2)]\\@


 Mondays are the potholes in the road of life.
                                -- Tom Wilson
 Job cpu time:       0 days  0 hours  1 minutes 17.4 seconds.
 Elapsed time:       0 days  0 hours  0 minutes 19.7 seconds.
 File lengths (MBytes):  RWF=    348 Int=      0 D2E=      0 Chk=      8 Scr=      8
 Normal termination of Gaussian 16 at Sat Aug 27 06:23:33 2022.
