 Entering Gaussian System, Link 0=g16
 Input=H2O_H2O_3516.com
 Output=H2O_H2O_3516.log
 Initial command:
 /usr/site/hpc/x86_64/glibc-2.17/broadwell/gaussian/g16_a.03/pgi-16.5/g16/l1.exe "/gpfs/gpfs1/scratch/c7441284/ForceFieldModel/FittingData/Gau-3850808.inp" -scrdir="/gpfs/gpfs1/scratch/c7441284/ForceFieldModel/FittingData/"
 Entering Link 1 = /usr/site/hpc/x86_64/glibc-2.17/broadwell/gaussian/g16_a.03/pgi-16.5/g16/l1.exe PID=   3850809.
  
 Copyright (c) 1988,1990,1992,1993,1995,1998,2003,2009,2016,
            Gaussian, Inc.  All Rights Reserved.
  
 This is part of the Gaussian(R) 16 program.  It is based on
 the Gaussian(R) 09 system (copyright 2009, Gaussian, Inc.),
 the Gaussian(R) 03 system (copyright 2003, Gaussian, Inc.),
 the Gaussian(R) 98 system (copyright 1998, Gaussian, Inc.),
 the Gaussian(R) 94 system (copyright 1995, Gaussian, Inc.),
 the Gaussian 92(TM) system (copyright 1992, Gaussian, Inc.),
 the Gaussian 90(TM) system (copyright 1990, Gaussian, Inc.),
 the Gaussian 88(TM) system (copyright 1988, Gaussian, Inc.),
 the Gaussian 86(TM) system (copyright 1986, Carnegie Mellon
 University), and the Gaussian 82(TM) system (copyright 1983,
 Carnegie Mellon University). Gaussian is a federally registered
 trademark of Gaussian, Inc.
  
 This software contains proprietary and confidential information,
 including trade secrets, belonging to Gaussian, Inc.
  
 This software is provided under written license and may be
 used, copied, transmitted, or stored only in accord with that
 written license.
  
 The following legend is applicable only to US Government
 contracts under FAR:
  
                    RESTRICTED RIGHTS LEGEND
  
 Use, reproduction and disclosure by the US Government is
 subject to restrictions as set forth in subparagraphs (a)
 and (c) of the Commercial Computer Software - Restricted
 Rights clause in FAR 52.227-19.
  
 Gaussian, Inc.
 340 Quinnipiac St., Bldg. 40, Wallingford CT 06492
  
  
 ---------------------------------------------------------------
 Warning -- This program may not be used in any manner that
 competes with the business of Gaussian, Inc. or will provide
 assistance to any competitor of Gaussian, Inc.  The licensee
 of this program is prohibited from giving any competitor of
 Gaussian, Inc. access to this program.  By using this program,
 the user acknowledges that Gaussian, Inc. is engaged in the
 business of creating and licensing software in the field of
 computational chemistry and represents and warrants to the
 licensee that it is not a competitor of Gaussian, Inc. and that
 it will not use this program in any manner prohibited above.
 ---------------------------------------------------------------
  

 Cite this work as:
 Gaussian 16, Revision A.03,
 M. J. Frisch, G. W. Trucks, H. B. Schlegel, G. E. Scuseria, 
 M. A. Robb, J. R. Cheeseman, G. Scalmani, V. Barone, 
 G. A. Petersson, H. Nakatsuji, X. Li, M. Caricato, A. V. Marenich, 
 J. Bloino, B. G. Janesko, R. Gomperts, B. Mennucci, H. P. Hratchian, 
 J. V. Ortiz, A. F. Izmaylov, J. L. Sonnenberg, D. Williams-Young, 
 F. Ding, F. Lipparini, F. Egidi, J. Goings, B. Peng, A. Petrone, 
 T. Henderson, D. Ranasinghe, V. G. Zakrzewski, J. Gao, N. Rega, 
 G. Zheng, W. Liang, M. Hada, M. Ehara, K. Toyota, R. Fukuda, 
 J. Hasegawa, M. Ishida, T. Nakajima, Y. Honda, O. Kitao, H. Nakai, 
 T. Vreven, K. Throssell, J. A. Montgomery, Jr., J. E. Peralta, 
 F. Ogliaro, M. J. Bearpark, J. J. Heyd, E. N. Brothers, K. N. Kudin, 
 V. N. Staroverov, T. A. Keith, R. Kobayashi, J. Normand, 
 K. Raghavachari, A. P. Rendell, J. C. Burant, S. S. Iyengar, 
 J. Tomasi, M. Cossi, J. M. Millam, M. Klene, C. Adamo, R. Cammi, 
 J. W. Ochterski, R. L. Martin, K. Morokuma, O. Farkas, 
 J. B. Foresman, and D. J. Fox, Gaussian, Inc., Wallingford CT, 2016.
 
 ******************************************
 Gaussian 16:  ES64L-G16RevA.03 25-Dec-2016
                26-Aug-2022 
 ******************************************
 %NProcShared=4
 Will use up to    4 processors via shared memory.
 %Mem=4GB
 %Chk=H2O_H2O_3516.chk
 ------------------
 #p CCSD(T)/cc-pVTZ
 ------------------
 1/38=1,172=1/1;
 2/12=2,17=6,18=5,40=1/2;
 3/5=16,6=1,11=9,25=1,30=1/1,2,3;
 4//1;
 5/5=2,38=5/2;
 8/6=4,9=120000,10=1/1,4;
 9/5=7,14=2/13;
 6/7=2,8=2,9=2,10=2/1;
 99/5=1,9=1/99;
 Leave Link    1 at Fri Aug 26 22:57:44 2022, MaxMem=   536870912 cpu:               0.3 elap:               0.1
 (Enter /usr/site/hpc/x86_64/glibc-2.17/broadwell/gaussian/g16_a.03/pgi-16.5/g16/l101.exe)
 ------------
 H2O_H2O_3516
 ------------
 Symbolic Z-matrix:
 Charge =  0 Multiplicity = 1
 O                     0.       -0.00983   0. 
 H                    -0.79957  -0.58097   0. 
 H                     0.79957  -0.58097   0. 
 O                    -0.00852   5.3153    0. 
 H                    -0.10335   6.29332   0. 
 H                    -0.90292   4.90842   0. 
 
 ITRead=  0  0  0  0  0  0
 MicOpt= -1 -1 -1 -1 -1 -1
 NAtoms=      6 NQM=        6 NQMF=       0 NMMI=      0 NMMIF=      0
                NMic=       0 NMicF=      0.
                    Isotopes and Nuclear Properties:
 (Nuclear quadrupole moments (NQMom) in fm**2, nuclear magnetic moments (NMagM)
  in nuclear magnetons)

  Atom         1           2           3           4           5           6
 IAtWgt=          16           1           1          16           1           1
 AtmWgt=  15.9949146   1.0078250   1.0078250  15.9949146   1.0078250   1.0078250
 NucSpn=           0           1           1           0           1           1
 AtZEff=  -0.0000000  -0.0000000  -0.0000000  -0.0000000  -0.0000000  -0.0000000
 NQMom=    0.0000000   0.0000000   0.0000000   0.0000000   0.0000000   0.0000000
 NMagM=    0.0000000   2.7928460   2.7928460   0.0000000   2.7928460   2.7928460
 AtZNuc=   8.0000000   1.0000000   1.0000000   8.0000000   1.0000000   1.0000000
 Leave Link  101 at Fri Aug 26 22:57:45 2022, MaxMem=   536870912 cpu:               0.4 elap:               0.1
 (Enter /usr/site/hpc/x86_64/glibc-2.17/broadwell/gaussian/g16_a.03/pgi-16.5/g16/l202.exe)
                          Input orientation:                          
 ---------------------------------------------------------------------
 Center     Atomic      Atomic             Coordinates (Angstroms)
 Number     Number       Type             X           Y           Z
 ---------------------------------------------------------------------
      1          8           0        0.000000   -0.009833    0.000000
      2          1           0       -0.799571   -0.580965    0.000000
      3          1           0        0.799571   -0.580965    0.000000
      4          8           0       -0.008516    5.315303    0.000000
      5          1           0       -0.103345    6.293318    0.000000
      6          1           0       -0.902916    4.908420    0.000000
 ---------------------------------------------------------------------
                    Distance matrix (angstroms):
                    1          2          3          4          5
     1  O    0.000000
     2  H    0.982601   0.000000
     3  H    0.982601   1.599142   0.000000
     4  O    5.325143   5.949096   5.951385   0.000000
     5  H    6.303998   6.909450   6.933327   0.982602   0.000000
     6  H    5.000447   5.490358   5.747331   0.982601   1.599142
                    6
     6  H    0.000000
 Stoichiometry    H4O2
 Framework group  CS[SG(H4O2)]
 Deg. of freedom     9
 Full point group                 CS      NOp   2
 Largest Abelian subgroup         CS      NOp   2
 Largest concise Abelian subgroup C1      NOp   1
                         Standard orientation:                         
 ---------------------------------------------------------------------
 Center     Atomic      Atomic             Coordinates (Angstroms)
 Number     Number       Type             X           Y           Z
 ---------------------------------------------------------------------
      1          8           0        0.049507   -2.634094    0.000000
      2          1           0       -0.750976   -3.203947    0.000000
      3          1           0        0.848164   -3.206504    0.000000
      4          8           0        0.049507    2.691049    0.000000
      5          1           0       -0.043758    3.669214    0.000000
      6          1           0       -0.845542    2.285597    0.000000
 ---------------------------------------------------------------------
 Rotational constants (GHZ):         245.8645453           1.8972963           1.8827673
 Leave Link  202 at Fri Aug 26 22:57:45 2022, MaxMem=   536870912 cpu:               0.1 elap:               0.0
 (Enter /usr/site/hpc/x86_64/glibc-2.17/broadwell/gaussian/g16_a.03/pgi-16.5/g16/l301.exe)
 Standard basis: CC-pVTZ (5D, 7F)
 Ernie: Thresh=  0.10000D-02 Tol=  0.10000D-05 Strict=F.
 Ernie:  6 primitive shells out of 84 were deleted.
 There are    92 symmetry adapted cartesian basis functions of A'  symmetry.
 There are    38 symmetry adapted cartesian basis functions of A"  symmetry.
 There are    80 symmetry adapted basis functions of A'  symmetry.
 There are    36 symmetry adapted basis functions of A"  symmetry.
   116 basis functions,   172 primitive gaussians,   130 cartesian basis functions
    10 alpha electrons       10 beta electrons
       nuclear repulsion energy        27.5376900371 Hartrees.
 IExCor=    0 DFT=F Ex=HF Corr=None ExCW=0 ScaHFX=  1.000000
 ScaDFX=  1.000000  1.000000  1.000000  1.000000 ScalE2=  1.000000  1.000000
 IRadAn=      5 IRanWt=     -1 IRanGd=            0 ICorTp=0 IEmpDi=  4
 NAtoms=    6 NActive=    6 NUniq=    6 SFac= 1.00D+00 NAtFMM=   60 NAOKFM=F Big=F
 Integral buffers will be    131072 words long.
 Raffenetti 1 integral format.
 Two-electron integral symmetry is turned on.
 Leave Link  301 at Fri Aug 26 22:57:45 2022, MaxMem=   536870912 cpu:               0.2 elap:               0.1
 (Enter /usr/site/hpc/x86_64/glibc-2.17/broadwell/gaussian/g16_a.03/pgi-16.5/g16/l302.exe)
 NPDir=0 NMtPBC=     1 NCelOv=     1 NCel=       1 NClECP=     1 NCelD=      1
         NCelK=      1 NCelE2=     1 NClLst=     1 CellRange=     0.0.
 One-electron integrals computed using PRISM.
 One-electron integral symmetry used in STVInt
 NBasis=   116 RedAO= T EigKep=  2.67D-03  NBF=    80    36
 NBsUse=   116 1.00D-06 EigRej= -1.00D+00 NBFU=    80    36
 Leave Link  302 at Fri Aug 26 22:57:45 2022, MaxMem=   536870912 cpu:               0.4 elap:               0.1
 (Enter /usr/site/hpc/x86_64/glibc-2.17/broadwell/gaussian/g16_a.03/pgi-16.5/g16/l303.exe)
 DipDrv:  MaxL=1.
 Leave Link  303 at Fri Aug 26 22:57:45 2022, MaxMem=   536870912 cpu:               0.1 elap:               0.0
 (Enter /usr/site/hpc/x86_64/glibc-2.17/broadwell/gaussian/g16_a.03/pgi-16.5/g16/l401.exe)
 ExpMin= 1.03D-01 ExpMax= 1.53D+04 ExpMxC= 5.22D+02 IAcc=3 IRadAn=         5 AccDes= 0.00D+00
 Harris functional with IExCor=  205 and IRadAn=       5 diagonalized for initial guess.
 HarFok:  IExCor=  205 AccDes= 0.00D+00 IRadAn=         5 IDoV= 1 UseB2=F ITyADJ=14
 ICtDFT=  3500011 ScaDFX=  1.000000  1.000000  1.000000  1.000000
 FoFCou: FMM=F IPFlag=           0 FMFlag=      100000 FMFlg1=           0
         NFxFlg=           0 DoJE=T BraDBF=F KetDBF=T FulRan=T
         wScrn=  0.000000 ICntrl=       500 IOpCl=  0 I1Cent=   200000004 NGrid=           0
         NMat0=    1 NMatS0=      1 NMatT0=    0 NMatD0=    1 NMtDS0=    0 NMtDT0=    0
 Petite list used in FoFCou.
 Harris En= -152.298681264870    
 JPrj=0 DoOrth=F DoCkMO=F.
 Initial guess orbital symmetries:
       Occupied  (A') (A') (A') (A') (A') (A') (A') (A') (A") (A")
       Virtual   (A') (A') (A') (A') (A') (A') (A') (A') (A') (A')
                 (A") (A") (A') (A') (A') (A') (A") (A") (A") (A")
                 (A') (A') (A') (A') (A') (A') (A') (A') (A") (A")
                 (A") (A") (A') (A') (A') (A') (A') (A') (A') (A')
                 (A') (A') (A") (A") (A') (A') (A") (A") (A") (A")
                 (A') (A') (A') (A') (A') (A') (A") (A") (A') (A')
                 (A') (A') (A") (A") (A") (A") (A') (A') (A') (A')
                 (A") (A") (A') (A') (A') (A') (A') (A') (A') (A')
                 (A") (A") (A') (A') (A") (A") (A") (A") (A') (A')
                 (A") (A") (A') (A') (A') (A') (A") (A") (A') (A')
                 (A') (A') (A') (A') (A') (A')
 The electronic state of the initial guess is 1-A'.
 Leave Link  401 at Fri Aug 26 22:57:45 2022, MaxMem=   536870912 cpu:               0.9 elap:               0.2
 (Enter /usr/site/hpc/x86_64/glibc-2.17/broadwell/gaussian/g16_a.03/pgi-16.5/g16/l502.exe)
 Keep R1 ints in memory in symmetry-blocked form, NReq=34823457.
 FoFCou: FMM=F IPFlag=           0 FMFlag=           0 FMFlg1=           0
         NFxFlg=           0 DoJE=F BraDBF=F KetDBF=F FulRan=T
         wScrn=  0.000000 ICntrl=       600 IOpCl=  0 I1Cent=           0 NGrid=           0
         NMat0=    1 NMatS0=   6786 NMatT0=    0 NMatD0=    1 NMtDS0=    0 NMtDT0=    0
 Petite list used in FoFCou.
 Closed shell SCF:
 Using DIIS extrapolation, IDIIS=  1040.
 NGot=   536870912 LenX=   525040673 LenY=   525023332
 Requested convergence on RMS density matrix=1.00D-08 within 128 cycles.
 Requested convergence on MAX density matrix=1.00D-06.
 Requested convergence on             energy=1.00D-06.
 No special actions if energy rises.

 Cycle   1  Pass 1  IDiag  1:
 E= -151.926261647244    
 DIIS: error= 6.60D-02 at cycle   1 NSaved=   1.
 NSaved= 1 IEnMin= 1 EnMin= -151.926261647244     IErMin= 1 ErrMin= 6.60D-02
 ErrMax= 6.60D-02  0.00D+00 EMaxC= 1.00D-01 BMatC= 4.01D-01 BMatP= 4.01D-01
 IDIUse=3 WtCom= 3.40D-01 WtEn= 6.60D-01
 Coeff-Com:  0.100D+01
 Coeff-En:   0.100D+01
 Coeff:      0.100D+01
 Gap=     0.518 Goal=   None    Shift=    0.000
 GapD=    0.518 DampG=2.000 DampE=0.500 DampFc=1.0000 IDamp=-1.
 RMSDP=2.51D-03 MaxDP=6.64D-02              OVMax= 1.27D-01

 Cycle   2  Pass 1  IDiag  1:
 E= -152.038205286425     Delta-E=       -0.111943639182 Rises=F Damp=F
 DIIS: error= 4.16D-02 at cycle   2 NSaved=   2.
 NSaved= 2 IEnMin= 2 EnMin= -152.038205286425     IErMin= 2 ErrMin= 4.16D-02
 ErrMax= 4.16D-02  0.00D+00 EMaxC= 1.00D-01 BMatC= 1.13D-01 BMatP= 4.01D-01
 IDIUse=3 WtCom= 5.84D-01 WtEn= 4.16D-01
 Coeff-Com:  0.320D+00 0.680D+00
 Coeff-En:   0.167D+00 0.833D+00
 Coeff:      0.257D+00 0.743D+00
 Gap=     0.659 Goal=   None    Shift=    0.000
 RMSDP=1.33D-03 MaxDP=3.96D-02 DE=-1.12D-01 OVMax= 5.74D-02

 Cycle   3  Pass 1  IDiag  1:
 E= -152.103338187352     Delta-E=       -0.065132900926 Rises=F Damp=F
 DIIS: error= 8.98D-03 at cycle   3 NSaved=   3.
 NSaved= 3 IEnMin= 3 EnMin= -152.103338187352     IErMin= 3 ErrMin= 8.98D-03
 ErrMax= 8.98D-03  0.00D+00 EMaxC= 1.00D-01 BMatC= 5.99D-03 BMatP= 1.13D-01
 IDIUse=3 WtCom= 9.10D-01 WtEn= 8.98D-02
 Coeff-Com: -0.305D-01 0.155D+00 0.875D+00
 Coeff-En:   0.000D+00 0.000D+00 0.100D+01
 Coeff:     -0.278D-01 0.141D+00 0.886D+00
 Gap=     0.631 Goal=   None    Shift=    0.000
 RMSDP=2.44D-04 MaxDP=5.69D-03 DE=-6.51D-02 OVMax= 1.34D-02

 Cycle   4  Pass 1  IDiag  1:
 E= -152.107076292390     Delta-E=       -0.003738105038 Rises=F Damp=F
 DIIS: error= 8.61D-04 at cycle   4 NSaved=   4.
 NSaved= 4 IEnMin= 4 EnMin= -152.107076292390     IErMin= 4 ErrMin= 8.61D-04
 ErrMax= 8.61D-04  0.00D+00 EMaxC= 1.00D-01 BMatC= 3.78D-05 BMatP= 5.99D-03
 IDIUse=3 WtCom= 9.91D-01 WtEn= 8.61D-03
 Coeff-Com:  0.679D-02-0.612D-01-0.239D+00 0.129D+01
 Coeff-En:   0.000D+00 0.000D+00 0.000D+00 0.100D+01
 Coeff:      0.674D-02-0.606D-01-0.237D+00 0.129D+01
 Gap=     0.633 Goal=   None    Shift=    0.000
 RMSDP=5.18D-05 MaxDP=1.04D-03 DE=-3.74D-03 OVMax= 2.25D-03

 Cycle   5  Pass 1  IDiag  1:
 E= -152.107127088490     Delta-E=       -0.000050796100 Rises=F Damp=F
 DIIS: error= 1.95D-04 at cycle   5 NSaved=   5.
 NSaved= 5 IEnMin= 5 EnMin= -152.107127088490     IErMin= 5 ErrMin= 1.95D-04
 ErrMax= 1.95D-04  0.00D+00 EMaxC= 1.00D-01 BMatC= 1.37D-06 BMatP= 3.78D-05
 IDIUse=3 WtCom= 9.98D-01 WtEn= 1.95D-03
 Coeff-Com:  0.561D-03 0.313D-03-0.348D-02-0.217D+00 0.122D+01
 Coeff-En:   0.000D+00 0.000D+00 0.000D+00 0.000D+00 0.100D+01
 Coeff:      0.560D-03 0.312D-03-0.348D-02-0.217D+00 0.122D+01
 Gap=     0.634 Goal=   None    Shift=    0.000
 RMSDP=1.41D-05 MaxDP=2.89D-04 DE=-5.08D-05 OVMax= 6.89D-04

 Cycle   6  Pass 1  IDiag  1:
 E= -152.107129939577     Delta-E=       -0.000002851087 Rises=F Damp=F
 DIIS: error= 2.87D-05 at cycle   6 NSaved=   6.
 NSaved= 6 IEnMin= 6 EnMin= -152.107129939577     IErMin= 6 ErrMin= 2.87D-05
 ErrMax= 2.87D-05  0.00D+00 EMaxC= 1.00D-01 BMatC= 3.45D-08 BMatP= 1.37D-06
 IDIUse=1 WtCom= 1.00D+00 WtEn= 0.00D+00
 Coeff-Com: -0.276D-03 0.160D-02 0.688D-02 0.808D-03-0.261D+00 0.125D+01
 Coeff:     -0.276D-03 0.160D-02 0.688D-02 0.808D-03-0.261D+00 0.125D+01
 Gap=     0.634 Goal=   None    Shift=    0.000
 RMSDP=3.02D-06 MaxDP=6.62D-05 DE=-2.85D-06 OVMax= 1.54D-04

 Cycle   7  Pass 1  IDiag  1:
 E= -152.107130037135     Delta-E=       -0.000000097557 Rises=F Damp=F
 DIIS: error= 5.39D-06 at cycle   7 NSaved=   7.
 NSaved= 7 IEnMin= 7 EnMin= -152.107130037135     IErMin= 7 ErrMin= 5.39D-06
 ErrMax= 5.39D-06  0.00D+00 EMaxC= 1.00D-01 BMatC= 1.81D-09 BMatP= 3.45D-08
 IDIUse=1 WtCom= 1.00D+00 WtEn= 0.00D+00
 Coeff-Com:  0.282D-04-0.379D-03-0.151D-02 0.138D-01-0.158D-01-0.214D+00
 Coeff-Com:  0.122D+01
 Coeff:      0.282D-04-0.379D-03-0.151D-02 0.138D-01-0.158D-01-0.214D+00
 Coeff:      0.122D+01
 Gap=     0.634 Goal=   None    Shift=    0.000
 RMSDP=4.40D-07 MaxDP=9.15D-06 DE=-9.76D-08 OVMax= 3.03D-05

 Cycle   8  Pass 1  IDiag  1:
 E= -152.107130040936     Delta-E=       -0.000000003802 Rises=F Damp=F
 DIIS: error= 1.61D-06 at cycle   8 NSaved=   8.
 NSaved= 8 IEnMin= 8 EnMin= -152.107130040936     IErMin= 8 ErrMin= 1.61D-06
 ErrMax= 1.61D-06  0.00D+00 EMaxC= 1.00D-01 BMatC= 1.19D-10 BMatP= 1.81D-09
 IDIUse=1 WtCom= 1.00D+00 WtEn= 0.00D+00
 Coeff-Com:  0.108D-04-0.308D-04-0.117D-03-0.242D-02 0.174D-01-0.356D-01
 Coeff-Com: -0.169D+00 0.119D+01
 Coeff:      0.108D-04-0.308D-04-0.117D-03-0.242D-02 0.174D-01-0.356D-01
 Coeff:     -0.169D+00 0.119D+01
 Gap=     0.634 Goal=   None    Shift=    0.000
 RMSDP=1.05D-07 MaxDP=2.50D-06 DE=-3.80D-09 OVMax= 6.83D-06

 Cycle   9  Pass 1  IDiag  1:
 E= -152.107130041162     Delta-E=       -0.000000000226 Rises=F Damp=F
 DIIS: error= 4.95D-07 at cycle   9 NSaved=   9.
 NSaved= 9 IEnMin= 9 EnMin= -152.107130041162     IErMin= 9 ErrMin= 4.95D-07
 ErrMax= 4.95D-07  0.00D+00 EMaxC= 1.00D-01 BMatC= 2.09D-11 BMatP= 1.19D-10
 IDIUse=1 WtCom= 1.00D+00 WtEn= 0.00D+00
 Coeff-Com:  0.812D-06 0.295D-04 0.122D-03-0.235D-02 0.817D-02 0.818D-02
 Coeff-Com: -0.176D+00 0.386D+00 0.776D+00
 Coeff:      0.812D-06 0.295D-04 0.122D-03-0.235D-02 0.817D-02 0.818D-02
 Coeff:     -0.176D+00 0.386D+00 0.776D+00
 Gap=     0.634 Goal=   None    Shift=    0.000
 RMSDP=2.59D-08 MaxDP=5.83D-07 DE=-2.26D-10 OVMax= 1.72D-06

 Cycle  10  Pass 1  IDiag  1:
 E= -152.107130041183     Delta-E=       -0.000000000021 Rises=F Damp=F
 DIIS: error= 1.02D-07 at cycle  10 NSaved=  10.
 NSaved=10 IEnMin=10 EnMin= -152.107130041183     IErMin=10 ErrMin= 1.02D-07
 ErrMax= 1.02D-07  0.00D+00 EMaxC= 1.00D-01 BMatC= 4.98D-13 BMatP= 2.09D-11
 IDIUse=1 WtCom= 1.00D+00 WtEn= 0.00D+00
 Coeff-Com: -0.620D-06-0.418D-05-0.202D-04 0.552D-03-0.203D-02-0.173D-02
 Coeff-Com:  0.502D-01-0.154D+00-0.177D+00 0.128D+01
 Coeff:     -0.620D-06-0.418D-05-0.202D-04 0.552D-03-0.203D-02-0.173D-02
 Coeff:      0.502D-01-0.154D+00-0.177D+00 0.128D+01
 Gap=     0.634 Goal=   None    Shift=    0.000
 RMSDP=7.36D-09 MaxDP=2.09D-07 DE=-2.05D-11 OVMax= 4.42D-07

 SCF Done:  E(RHF) =  -152.107130041     A.U. after   10 cycles
            NFock= 10  Conv=0.74D-08     -V/T= 2.0020
 KE= 1.518048758710D+02 PE=-4.165694739910D+02 EE= 8.511977804171D+01
 Leave Link  502 at Fri Aug 26 22:57:47 2022, MaxMem=   536870912 cpu:               5.2 elap:               1.4
 (Enter /usr/site/hpc/x86_64/glibc-2.17/broadwell/gaussian/g16_a.03/pgi-16.5/g16/l801.exe)
 Windowed orbitals will be sorted by symmetry type.
 ExpMin= 1.03D-01 ExpMax= 1.53D+04 ExpMxC= 5.22D+02 IAcc=3 IRadAn=         5 AccDes= 0.00D+00
 HarFok:  IExCor=  205 AccDes= 0.00D+00 IRadAn=         5 IDoV=-2 UseB2=F ITyADJ=14
 ICtDFT= 12500011 ScaDFX=  1.000000  1.000000  1.000000  1.000000
 Largest valence mixing into a core orbital is  1.12D-04
 Largest core mixing into a valence orbital is  1.77D-05
 Range of M.O.s used for correlation:     3   116
 NBasis=   116 NAE=    10 NBE=    10 NFC=     2 NFV=     0
 NROrb=    114 NOA=     8 NOB=     8 NVA=   106 NVB=   106
 Leave Link  801 at Fri Aug 26 22:57:47 2022, MaxMem=   536870912 cpu:               0.4 elap:               0.1
 (Enter /usr/site/hpc/x86_64/glibc-2.17/broadwell/gaussian/g16_a.03/pgi-16.5/g16/l804.exe)
 Closed-shell transformation, MDV=   536870912 ITran=4 ISComp=2.
 Unit  1 TFree=        834515 TCopy=        406125.
 Semi-Direct transformation.
 ModeAB=           4 MOrb=             8 LenV=     536378374
 LASXX=      2873146 LTotXX=     2873146 LenRXX=     5831278
 LTotAB=     2958132 MaxLAS=     5246736 LenRXY=           0
 NonZer=     8704424 LenScr=    13107200 LnRSAI=     5246736
 LnScr1=     8388608 LExtra=           0 Total=     32573822
 MaxDsk=          -1 SrtSym=           T ITran=            4
 DoSDTr:  NPSUse=  4
 JobTyp=0 Pass  1:  I=   1 to   8.
 (rs|ai) integrals will be sorted in core.
 Complete sort for first half transformation.
 First half transformation complete.
 Complete sort for second half transformation.
 Second half transformation complete.
 Spin components of T(2) and E(2):
     alpha-alpha T2 =       0.1556337477D-01 E2=     -0.6380321740D-01
     alpha-beta  T2 =       0.9193263301D-01 E2=     -0.3983249019D+00
     beta-beta   T2 =       0.1556337477D-01 E2=     -0.6380321740D-01
 ANorm=    0.1059744961D+01
 E2 =    -0.5259313367D+00 EUMP2 =    -0.15263306137791D+03
 Leave Link  804 at Fri Aug 26 22:57:48 2022, MaxMem=   536870912 cpu:               3.4 elap:               0.9
 (Enter /usr/site/hpc/x86_64/glibc-2.17/broadwell/gaussian/g16_a.03/pgi-16.5/g16/l913.exe)
 CIDS:  MDV=   536870912.
 Frozen-core window:  NFC=   2 NFV=   0.
 IFCWin=0 IBDFC=1 NFBD=     0     0 NFCmp=     0     0 NFFFC=     0     0
 Using DD3R+UMP44R for 1st iteration.
 Using DD4RQ for 2nd and later iterations.
 Keep R2 and R3 ints in memory in symmetry-blocked form, NReq=35357534.
 FoFCou: FMM=F IPFlag=           0 FMFlag=           0 FMFlg1=           0
         NFxFlg=           0 DoJE=F BraDBF=F KetDBF=F FulRan=T
         wScrn=  0.000000 ICntrl=       600 IOpCl=  0 I1Cent=           0 NGrid=           0
         NMat0=    1 NMatS0=   6786 NMatT0=    0 NMatD0=    1 NMtDS0=    0 NMtDT0=    0
 Petite list used in FoFCou.
 CIDS: In Core Option IDoMem=           1.
 CCSD(T)
 =======
 Iterations=  50 Convergence= 0.100D-06
 Produce multiple copies of IABC intergrals
 Iteration Nr.   1
 **********************
 DD1Dir will call FoFMem   1 times, MxPair=        72
 NAB=    36 NAA=     0 NBB=     0.
 MP4(R+Q)=  0.75571473D-02
 Maximum subspace dimension=  5
 A-vector RMS=  1.7436486D-03 Max=  6.2077232D-03 conv= 1.00D-05.
 RLE energy=       -0.5258706222
 E3=       -0.75677549D-02        EUMP3=      -0.15264062913D+03
 E4(DQ)=   -0.15524015D-02        UMP4(DQ)=   -0.15264218153D+03
 E4(SDQ)=  -0.46108600D-02        UMP4(SDQ)=  -0.15264523999D+03
 VARIATIONAL ENERGIES WITH THE FIRST-ORDER WAVEFUNCTION:
 DE(Corr)= -0.52587062     E(Corr)=     -152.63300067    
 NORM(A)=   0.10601132D+01
 Iteration Nr.   2
 **********************
 DD1Dir will call FoFMem   1 times, MxPair=        72
 NAB=    36 NAA=     0 NBB=     0.
 A-vector RMS=  2.1219679D-04 Max=  2.3224238D-03 conv= 1.00D-05.
 RLE energy=       -0.5369375605
 DE(Corr)= -0.53577726     E(CORR)=     -152.64290730     Delta=-9.91D-03
 NORM(A)=   0.10638647D+01
 Iteration Nr.   3
 **********************
 DD1Dir will call FoFMem   1 times, MxPair=        72
 NAB=    36 NAA=     0 NBB=     0.
 A-vector RMS=  1.4154497D-04 Max=  8.5000450D-04 conv= 1.00D-05.
 RLE energy=       -0.5374336732
 DE(Corr)= -0.53684731     E(CORR)=     -152.64397735     Delta=-1.07D-03
 NORM(A)=   0.10645036D+01
 Iteration Nr.   4
 **********************
 DD1Dir will call FoFMem   1 times, MxPair=        72
 NAB=    36 NAA=     0 NBB=     0.
 A-vector RMS=  2.5949239D-05 Max=  1.4146083D-04 conv= 1.00D-05.
 RLE energy=       -0.5375168651
 DE(Corr)= -0.53748153     E(CORR)=     -152.64461157     Delta=-6.34D-04
 NORM(A)=   0.10646147D+01
 Iteration Nr.   5
 **********************
 DD1Dir will call FoFMem   1 times, MxPair=        72
 NAB=    36 NAA=     0 NBB=     0.
 A-vector RMS=  1.8839957D-05 Max=  1.5814749D-04 conv= 1.00D-05.
 RLE energy=       -0.5375253133
 DE(Corr)= -0.53751851     E(CORR)=     -152.64464855     Delta=-3.70D-05
 NORM(A)=   0.10646243D+01
 Iteration Nr.   6
 **********************
 DD1Dir will call FoFMem   1 times, MxPair=        72
 NAB=    36 NAA=     0 NBB=     0.
 A-vector RMS=  5.5607990D-06 Max=  4.2050218D-05 conv= 1.00D-05.
 RLE energy=       -0.5375160952
 DE(Corr)= -0.53752170     E(CORR)=     -152.64465174     Delta=-3.19D-06
 NORM(A)=   0.10646244D+01
 Iteration Nr.   7
 **********************
 DD1Dir will call FoFMem   1 times, MxPair=        72
 NAB=    36 NAA=     0 NBB=     0.
 A-vector RMS=  2.6668144D-06 Max=  2.2825087D-05 conv= 1.00D-05.
 RLE energy=       -0.5375228596
 DE(Corr)= -0.53752184     E(CORR)=     -152.64465188     Delta=-1.43D-07
 NORM(A)=   0.10646268D+01
 Iteration Nr.   8
 **********************
 DD1Dir will call FoFMem   1 times, MxPair=        72
 NAB=    36 NAA=     0 NBB=     0.
 A-vector RMS=  5.3051472D-07 Max=  4.5317229D-06 conv= 1.00D-05.
 RLE energy=       -0.5375212394
 DE(Corr)= -0.53752141     E(CORR)=     -152.64465145     Delta= 4.36D-07
 NORM(A)=   0.10646270D+01
 Iteration Nr.   9
 **********************
 DD1Dir will call FoFMem   1 times, MxPair=        72
 NAB=    36 NAA=     0 NBB=     0.
 A-vector RMS=  1.2520230D-07 Max=  8.5473349D-07 conv= 1.00D-05.
 RLE energy=       -0.5375217136
 DE(Corr)= -0.53752169     E(CORR)=     -152.64465173     Delta=-2.86D-07
 NORM(A)=   0.10646272D+01
 Iteration Nr.  10
 **********************
 DD1Dir will call FoFMem   1 times, MxPair=        72
 NAB=    36 NAA=     0 NBB=     0.
 A-vector RMS=  4.6036628D-08 Max=  3.9517510D-07 conv= 1.00D-05.
 RLE energy=       -0.5375216991
 DE(Corr)= -0.53752167     E(CORR)=     -152.64465172     Delta= 1.91D-08
 NORM(A)=   0.10646272D+01
 CI/CC converged in   10 iterations to DelEn= 1.91D-08 Conv= 1.00D-07 ErrA1= 4.60D-08 Conv= 1.00D-05
 Wavefunction amplitudes converged. E(Corr)=     -152.64465172    
 Largest amplitude= 4.79D-02
 IPart=  3 IA=    7   11.05% done.
 IPart=  1 IA=   13   21.46% done.
 IPart=  4 IA=   19   31.21% done.
 IPart=  3 IA=   25   40.32% done.
 IPart=  3 IA=   32   50.13% done.
 IPart=  2 IA=   40   60.27% done.
 IPart=  2 IA=   49   70.30% done.
 IPart=  3 IA=   60   80.58% done.
 IPart=  1 IA=   74   90.51% done.
 Time for triples=       62.95 seconds.
 T4(CCSD)= -0.16037465D-01
 T5(CCSD)=  0.40386449D-03
 CCSD(T)= -0.15266028532D+03
 Discarding MO integrals.
 Leave Link  913 at Fri Aug 26 22:58:11 2022, MaxMem=   536870912 cpu:              92.7 elap:              23.4
 (Enter /usr/site/hpc/x86_64/glibc-2.17/broadwell/gaussian/g16_a.03/pgi-16.5/g16/l601.exe)
 Copying SCF densities to generalized density rwf, IOpCl= 0 IROHF=0.

 **********************************************************************

            Population analysis using the SCF density.

 **********************************************************************

 Orbital symmetries:
       Occupied  (A') (A') (A') (A') (A') (A') (A') (A') (A") (A")
       Virtual   (A') (A') (A') (A') (A') (A') (A') (A') (A') (A')
                 (A") (A") (A') (A') (A') (A') (A") (A") (A") (A")
                 (A') (A') (A') (A') (A') (A') (A') (A') (A") (A")
                 (A") (A") (A') (A') (A') (A') (A') (A') (A') (A')
                 (A') (A') (A") (A") (A') (A') (A") (A") (A') (A')
                 (A") (A") (A') (A') (A') (A') (A") (A") (A") (A")
                 (A') (A') (A') (A') (A") (A") (A') (A') (A') (A')
                 (A") (A") (A') (A') (A') (A') (A') (A') (A') (A')
                 (A") (A") (A') (A') (A") (A") (A") (A") (A') (A')
                 (A") (A") (A') (A') (A') (A') (A") (A") (A') (A')
                 (A') (A') (A') (A') (A') (A')
 The electronic state is 1-A'.
 Alpha  occ. eigenvalues --  -20.55437 -20.54962  -1.32734  -1.32257  -0.70141
 Alpha  occ. eigenvalues --   -0.69653  -0.56168  -0.55690  -0.49843  -0.49368
 Alpha virt. eigenvalues --    0.14060   0.14810   0.20246   0.20828   0.54393
 Alpha virt. eigenvalues --    0.54918   0.57316   0.57777   0.67613   0.69033
 Alpha virt. eigenvalues --    0.79038   0.79502   0.80450   0.80887   0.82598
 Alpha virt. eigenvalues --    0.82924   0.84892   0.85364   0.97350   0.97811
 Alpha virt. eigenvalues --    1.14722   1.15537   1.17224   1.17717   1.51747
 Alpha virt. eigenvalues --    1.52031   1.52250   1.52560   2.00777   2.01250
 Alpha virt. eigenvalues --    2.06836   2.07319   2.09502   2.10036   2.14960
 Alpha virt. eigenvalues --    2.15446   2.24871   2.25887   2.61581   2.62080
 Alpha virt. eigenvalues --    2.92944   2.93482   3.39445   3.39927   3.50000
 Alpha virt. eigenvalues --    3.50482   3.53191   3.53666   3.59570   3.60058
 Alpha virt. eigenvalues --    3.78747   3.79222   3.85508   3.85995   3.87697
 Alpha virt. eigenvalues --    3.88171   3.93646   3.94128   4.03105   4.03578
 Alpha virt. eigenvalues --    4.08262   4.08748   4.15317   4.15841   4.30190
 Alpha virt. eigenvalues --    4.30665   4.40006   4.40489   4.45635   4.46120
 Alpha virt. eigenvalues --    4.66599   4.67072   4.80950   4.81448   5.04264
 Alpha virt. eigenvalues --    5.04801   5.24162   5.24653   5.54125   5.54608
 Alpha virt. eigenvalues --    5.98010   5.98486   6.40467   6.40941   6.86259
 Alpha virt. eigenvalues --    6.86739   6.89737   6.90215   6.94667   6.95147
 Alpha virt. eigenvalues --    6.99211   6.99688   7.07969   7.08456   7.12606
 Alpha virt. eigenvalues --    7.13072   7.18379   7.18859   7.47271   7.47770
 Alpha virt. eigenvalues --    7.70405   7.70889   8.15140   8.15624  12.49348
 Alpha virt. eigenvalues --   12.49849
          Condensed to atoms (all electrons):
               1          2          3          4          5          6
     1  O    7.815798   0.344593   0.346831  -0.000000  -0.000000   0.000023
     2  H    0.344593   0.440201  -0.036616   0.000000   0.000000  -0.000001
     3  H    0.346831  -0.036616   0.434335   0.000000   0.000000  -0.000001
     4  O   -0.000000   0.000000   0.000000   7.816079   0.344001   0.346746
     5  H   -0.000000   0.000000   0.000000   0.344001   0.442376  -0.036721
     6  H    0.000023  -0.000001  -0.000001   0.346746  -0.036721   0.433502
 Mulliken charges:
               1
     1  O   -0.507245
     2  H    0.251824
     3  H    0.255451
     4  O   -0.506826
     5  H    0.250345
     6  H    0.256452
 Sum of Mulliken charges =  -0.00000
 Mulliken charges with hydrogens summed into heavy atoms:
               1
     1  O    0.000030
     4  O   -0.000030
 Electronic spatial extent (au):  <R**2>=            566.3592
 Charge=              0.0000 electrons
 Dipole moment (field-independent basis, Debye):
    X=             -1.6957    Y=             -1.0030    Z=              0.0000  Tot=              1.9702
 Quadrupole moment (field-independent basis, Debye-Ang):
   XX=             -9.3457   YY=              5.4128   ZZ=            -14.7117
   XY=             -3.8745   XZ=              0.0000   YZ=              0.0000
 Traceless Quadrupole moment (field-independent basis, Debye-Ang):
   XX=             -3.1308   YY=             11.6277   ZZ=             -8.4968
   XY=             -3.8745   XZ=              0.0000   YZ=              0.0000
 Octapole moment (field-independent basis, Debye-Ang**2):
  XXX=             -1.4243  YYY=             -7.9027  ZZZ=              0.0000  XYY=             -7.6437
  XXY=             -6.3494  XXZ=              0.0000  XZZ=             -0.2211  YZZ=             -0.1374
  YYZ=              0.0000  XYZ=              0.0000
 Hexadecapole moment (field-independent basis, Debye-Ang**3):
 XXXX=            -11.3742 YYYY=           -221.3808 ZZZZ=            -11.3353 XXXY=             -0.5435
 XXXZ=              0.0000 YYYX=            -16.9059 YYYZ=              0.0000 ZZZX=              0.0000
 ZZZY=              0.0000 XXYY=            -69.5930 XXZZ=             -4.4304 YYZZ=           -113.3507
 XXYZ=              0.0000 YYXZ=              0.0000 ZZXY=              1.2585
 N-N= 2.753769003705D+01 E-N=-4.165694726979D+02  KE= 1.518048758710D+02
 Symmetry A'   KE= 1.427674409085D+02
 Symmetry A"   KE= 9.037434962491D+00
 Leave Link  601 at Fri Aug 26 22:58:11 2022, MaxMem=   536870912 cpu:               0.2 elap:               0.1
 (Enter /usr/site/hpc/x86_64/glibc-2.17/broadwell/gaussian/g16_a.03/pgi-16.5/g16/l9999.exe)
 1\1\GINC-N050\SP\RCCSD(T)-FC\CC-pVTZ\H4O2\C7441284\26-Aug-2022\0\\#p C
 CSD(T)/cc-pVTZ\\H2O_H2O_3516\\0,1\O,0,0.,-0.009833,0.\H,0,-0.799571,-0
 .580965,0.\H,0,0.799571,-0.580965,0.\O,0,-0.008516,5.315303,0.\H,0,-0.
 103345,6.293318,0.\H,0,-0.902916,4.90842,0.\\Version=ES64L-G16RevA.03\
 State=1-A'\HF=-152.10713\MP2=-152.6330614\MP3=-152.6406291\MP4D=-152.6
 497387\MP4DQ=-152.6421815\MP4SDQ=-152.64524\CCSD=-152.6446517\CCSD(T)=
 -152.6602853\RMSD=7.364e-09\PG=CS [SG(H4O2)]\\@


 IF OTHER PEOPLE ARE GOING TO TALK, CONVERSATION IS SIMPLY IMPOSSIBLE.

                                               -- WHISTLER'S PRINCIPLE
 Job cpu time:       0 days  0 hours  1 minutes 44.4 seconds.
 Elapsed time:       0 days  0 hours  0 minutes 26.6 seconds.
 File lengths (MBytes):  RWF=    320 Int=      0 D2E=      0 Chk=      8 Scr=      8
 Normal termination of Gaussian 16 at Fri Aug 26 22:58:11 2022.
