 Entering Gaussian System, Link 0=g16
 Input=H2O_H2O_2286.com
 Output=H2O_H2O_2286.log
 Initial command:
 /usr/site/hpc/x86_64/glibc-2.17/broadwell/gaussian/g16_a.03/pgi-16.5/g16/l1.exe "/gpfs/gpfs1/scratch/c7441284/ForceFieldModel/FittingData/Gau-3784535.inp" -scrdir="/gpfs/gpfs1/scratch/c7441284/ForceFieldModel/FittingData/"
 Entering Link 1 = /usr/site/hpc/x86_64/glibc-2.17/broadwell/gaussian/g16_a.03/pgi-16.5/g16/l1.exe PID=   3784536.
  
 Copyright (c) 1988,1990,1992,1993,1995,1998,2003,2009,2016,
            Gaussian, Inc.  All Rights Reserved.
  
 This is part of the Gaussian(R) 16 program.  It is based on
 the Gaussian(R) 09 system (copyright 2009, Gaussian, Inc.),
 the Gaussian(R) 03 system (copyright 2003, Gaussian, Inc.),
 the Gaussian(R) 98 system (copyright 1998, Gaussian, Inc.),
 the Gaussian(R) 94 system (copyright 1995, Gaussian, Inc.),
 the Gaussian 92(TM) system (copyright 1992, Gaussian, Inc.),
 the Gaussian 90(TM) system (copyright 1990, Gaussian, Inc.),
 the Gaussian 88(TM) system (copyright 1988, Gaussian, Inc.),
 the Gaussian 86(TM) system (copyright 1986, Carnegie Mellon
 University), and the Gaussian 82(TM) system (copyright 1983,
 Carnegie Mellon University). Gaussian is a federally registered
 trademark of Gaussian, Inc.
  
 This software contains proprietary and confidential information,
 including trade secrets, belonging to Gaussian, Inc.
  
 This software is provided under written license and may be
 used, copied, transmitted, or stored only in accord with that
 written license.
  
 The following legend is applicable only to US Government
 contracts under FAR:
  
                    RESTRICTED RIGHTS LEGEND
  
 Use, reproduction and disclosure by the US Government is
 subject to restrictions as set forth in subparagraphs (a)
 and (c) of the Commercial Computer Software - Restricted
 Rights clause in FAR 52.227-19.
  
 Gaussian, Inc.
 340 Quinnipiac St., Bldg. 40, Wallingford CT 06492
  
  
 ---------------------------------------------------------------
 Warning -- This program may not be used in any manner that
 competes with the business of Gaussian, Inc. or will provide
 assistance to any competitor of Gaussian, Inc.  The licensee
 of this program is prohibited from giving any competitor of
 Gaussian, Inc. access to this program.  By using this program,
 the user acknowledges that Gaussian, Inc. is engaged in the
 business of creating and licensing software in the field of
 computational chemistry and represents and warrants to the
 licensee that it is not a competitor of Gaussian, Inc. and that
 it will not use this program in any manner prohibited above.
 ---------------------------------------------------------------
  

 Cite this work as:
 Gaussian 16, Revision A.03,
 M. J. Frisch, G. W. Trucks, H. B. Schlegel, G. E. Scuseria, 
 M. A. Robb, J. R. Cheeseman, G. Scalmani, V. Barone, 
 G. A. Petersson, H. Nakatsuji, X. Li, M. Caricato, A. V. Marenich, 
 J. Bloino, B. G. Janesko, R. Gomperts, B. Mennucci, H. P. Hratchian, 
 J. V. Ortiz, A. F. Izmaylov, J. L. Sonnenberg, D. Williams-Young, 
 F. Ding, F. Lipparini, F. Egidi, J. Goings, B. Peng, A. Petrone, 
 T. Henderson, D. Ranasinghe, V. G. Zakrzewski, J. Gao, N. Rega, 
 G. Zheng, W. Liang, M. Hada, M. Ehara, K. Toyota, R. Fukuda, 
 J. Hasegawa, M. Ishida, T. Nakajima, Y. Honda, O. Kitao, H. Nakai, 
 T. Vreven, K. Throssell, J. A. Montgomery, Jr., J. E. Peralta, 
 F. Ogliaro, M. J. Bearpark, J. J. Heyd, E. N. Brothers, K. N. Kudin, 
 V. N. Staroverov, T. A. Keith, R. Kobayashi, J. Normand, 
 K. Raghavachari, A. P. Rendell, J. C. Burant, S. S. Iyengar, 
 J. Tomasi, M. Cossi, J. M. Millam, M. Klene, C. Adamo, R. Cammi, 
 J. W. Ochterski, R. L. Martin, K. Morokuma, O. Farkas, 
 J. B. Foresman, and D. J. Fox, Gaussian, Inc., Wallingford CT, 2016.
 
 ******************************************
 Gaussian 16:  ES64L-G16RevA.03 25-Dec-2016
                27-Aug-2022 
 ******************************************
 %NProcShared=4
 Will use up to    4 processors via shared memory.
 %Mem=4GB
 %Chk=H2O_H2O_2286.chk
 ------------------
 #p CCSD(T)/cc-pVTZ
 ------------------
 1/38=1,172=1/1;
 2/12=2,17=6,18=5,40=1/2;
 3/5=16,6=1,11=9,25=1,30=1/1,2,3;
 4//1;
 5/5=2,38=5/2;
 8/6=4,9=120000,10=1/1,4;
 9/5=7,14=2/13;
 6/7=2,8=2,9=2,10=2/1;
 99/5=1,9=1/99;
 Leave Link    1 at Sat Aug 27 09:39:16 2022, MaxMem=   536870912 cpu:               0.2 elap:               0.1
 (Enter /usr/site/hpc/x86_64/glibc-2.17/broadwell/gaussian/g16_a.03/pgi-16.5/g16/l101.exe)
 ------------
 H2O_H2O_2286
 ------------
 Symbolic Z-matrix:
 Charge =  0 Multiplicity = 1
 O                     0.       -0.00983   0. 
 H                    -0.79957  -0.58097   0. 
 H                     0.79957  -0.58097   0. 
 O                    -0.00648   4.01478   0. 
 H                     0.21809   4.97137   0. 
 H                    -0.98421   3.91699   0. 
 
 ITRead=  0  0  0  0  0  0
 MicOpt= -1 -1 -1 -1 -1 -1
 NAtoms=      6 NQM=        6 NQMF=       0 NMMI=      0 NMMIF=      0
                NMic=       0 NMicF=      0.
                    Isotopes and Nuclear Properties:
 (Nuclear quadrupole moments (NQMom) in fm**2, nuclear magnetic moments (NMagM)
  in nuclear magnetons)

  Atom         1           2           3           4           5           6
 IAtWgt=          16           1           1          16           1           1
 AtmWgt=  15.9949146   1.0078250   1.0078250  15.9949146   1.0078250   1.0078250
 NucSpn=           0           1           1           0           1           1
 AtZEff=  -0.0000000  -0.0000000  -0.0000000  -0.0000000  -0.0000000  -0.0000000
 NQMom=    0.0000000   0.0000000   0.0000000   0.0000000   0.0000000   0.0000000
 NMagM=    0.0000000   2.7928460   2.7928460   0.0000000   2.7928460   2.7928460
 AtZNuc=   8.0000000   1.0000000   1.0000000   8.0000000   1.0000000   1.0000000
 Leave Link  101 at Sat Aug 27 09:39:16 2022, MaxMem=   536870912 cpu:               0.3 elap:               0.1
 (Enter /usr/site/hpc/x86_64/glibc-2.17/broadwell/gaussian/g16_a.03/pgi-16.5/g16/l202.exe)
                          Input orientation:                          
 ---------------------------------------------------------------------
 Center     Atomic      Atomic             Coordinates (Angstroms)
 Number     Number       Type             X           Y           Z
 ---------------------------------------------------------------------
      1          8           0        0.000000   -0.009833    0.000000
      2          1           0       -0.799571   -0.580965    0.000000
      3          1           0        0.799571   -0.580965    0.000000
      4          8           0       -0.006483    4.014780    0.000000
      5          1           0        0.218093    4.971374    0.000000
      6          1           0       -0.984207    3.916986    0.000000
 ---------------------------------------------------------------------
                    Distance matrix (angstroms):
                    1          2          3          4          5
     1  O    0.000000
     2  H    0.982601   0.000000
     3  H    0.982601   1.599142   0.000000
     4  O    4.024618   4.663675   4.665897   0.000000
     5  H    4.985979   5.644830   5.582704   0.982602   0.000000
     6  H    4.048280   4.501739   4.838742   0.982603   1.599143
                    6
     6  H    0.000000
 Stoichiometry    H4O2
 Framework group  CS[SG(H4O2)]
 Deg. of freedom     9
 Full point group                 CS      NOp   2
 Largest Abelian subgroup         CS      NOp   2
 Largest concise Abelian subgroup C1      NOp   1
                         Standard orientation:                         
 ---------------------------------------------------------------------
 Center     Atomic      Atomic             Coordinates (Angstroms)
 Number     Number       Type             X           Y           Z
 ---------------------------------------------------------------------
      1          8           0        0.037680   -1.998197    0.000000
      2          1           0       -0.762810   -2.568040    0.000000
      3          1           0        0.836330   -2.570616    0.000000
      4          8           0        0.037680    2.026422    0.000000
      5          1           0        0.263797    2.982653    0.000000
      6          1           0       -0.940200    1.930203    0.000000
 ---------------------------------------------------------------------
 Rotational constants (GHZ):         221.8281217           3.2483397           3.2014591
 Leave Link  202 at Sat Aug 27 09:39:16 2022, MaxMem=   536870912 cpu:               0.0 elap:               0.0
 (Enter /usr/site/hpc/x86_64/glibc-2.17/broadwell/gaussian/g16_a.03/pgi-16.5/g16/l301.exe)
 Standard basis: CC-pVTZ (5D, 7F)
 Ernie: Thresh=  0.10000D-02 Tol=  0.10000D-05 Strict=F.
 Ernie:  6 primitive shells out of 84 were deleted.
 There are    92 symmetry adapted cartesian basis functions of A'  symmetry.
 There are    38 symmetry adapted cartesian basis functions of A"  symmetry.
 There are    80 symmetry adapted basis functions of A'  symmetry.
 There are    36 symmetry adapted basis functions of A"  symmetry.
   116 basis functions,   172 primitive gaussians,   130 cartesian basis functions
    10 alpha electrons       10 beta electrons
       nuclear repulsion energy        30.4356694048 Hartrees.
 IExCor=    0 DFT=F Ex=HF Corr=None ExCW=0 ScaHFX=  1.000000
 ScaDFX=  1.000000  1.000000  1.000000  1.000000 ScalE2=  1.000000  1.000000
 IRadAn=      5 IRanWt=     -1 IRanGd=            0 ICorTp=0 IEmpDi=  4
 NAtoms=    6 NActive=    6 NUniq=    6 SFac= 1.00D+00 NAtFMM=   60 NAOKFM=F Big=F
 Integral buffers will be    131072 words long.
 Raffenetti 1 integral format.
 Two-electron integral symmetry is turned on.
 Leave Link  301 at Sat Aug 27 09:39:16 2022, MaxMem=   536870912 cpu:               0.2 elap:               0.1
 (Enter /usr/site/hpc/x86_64/glibc-2.17/broadwell/gaussian/g16_a.03/pgi-16.5/g16/l302.exe)
 NPDir=0 NMtPBC=     1 NCelOv=     1 NCel=       1 NClECP=     1 NCelD=      1
         NCelK=      1 NCelE2=     1 NClLst=     1 CellRange=     0.0.
 One-electron integrals computed using PRISM.
 One-electron integral symmetry used in STVInt
 NBasis=   116 RedAO= T EigKep=  2.48D-03  NBF=    80    36
 NBsUse=   116 1.00D-06 EigRej= -1.00D+00 NBFU=    80    36
 Leave Link  302 at Sat Aug 27 09:39:16 2022, MaxMem=   536870912 cpu:               0.4 elap:               0.1
 (Enter /usr/site/hpc/x86_64/glibc-2.17/broadwell/gaussian/g16_a.03/pgi-16.5/g16/l303.exe)
 DipDrv:  MaxL=1.
 Leave Link  303 at Sat Aug 27 09:39:16 2022, MaxMem=   536870912 cpu:               0.1 elap:               0.0
 (Enter /usr/site/hpc/x86_64/glibc-2.17/broadwell/gaussian/g16_a.03/pgi-16.5/g16/l401.exe)
 ExpMin= 1.03D-01 ExpMax= 1.53D+04 ExpMxC= 5.22D+02 IAcc=3 IRadAn=         5 AccDes= 0.00D+00
 Harris functional with IExCor=  205 and IRadAn=       5 diagonalized for initial guess.
 HarFok:  IExCor=  205 AccDes= 0.00D+00 IRadAn=         5 IDoV= 1 UseB2=F ITyADJ=14
 ICtDFT=  3500011 ScaDFX=  1.000000  1.000000  1.000000  1.000000
 FoFCou: FMM=F IPFlag=           0 FMFlag=      100000 FMFlg1=           0
         NFxFlg=           0 DoJE=T BraDBF=F KetDBF=T FulRan=T
         wScrn=  0.000000 ICntrl=       500 IOpCl=  0 I1Cent=   200000004 NGrid=           0
         NMat0=    1 NMatS0=      1 NMatT0=    0 NMatD0=    1 NMtDS0=    0 NMtDT0=    0
 Petite list used in FoFCou.
 Harris En= -152.298871600379    
 JPrj=0 DoOrth=F DoCkMO=F.
 Initial guess orbital symmetries:
       Occupied  (A') (A') (A') (A') (A') (A') (A') (A') (A") (A")
       Virtual   (A') (A') (A') (A') (A') (A') (A') (A') (A') (A')
                 (A") (A") (A') (A') (A') (A") (A") (A') (A") (A")
                 (A') (A') (A') (A') (A') (A') (A') (A') (A") (A")
                 (A") (A") (A') (A') (A') (A') (A') (A') (A') (A')
                 (A') (A') (A") (A") (A') (A') (A") (A") (A") (A")
                 (A') (A') (A') (A') (A') (A') (A") (A") (A') (A')
                 (A') (A') (A") (A") (A") (A") (A') (A') (A') (A')
                 (A") (A") (A') (A') (A') (A') (A') (A') (A') (A')
                 (A") (A") (A') (A') (A") (A") (A") (A") (A') (A')
                 (A") (A") (A') (A') (A') (A') (A") (A") (A') (A')
                 (A') (A') (A') (A') (A') (A')
 The electronic state of the initial guess is 1-A'.
 Leave Link  401 at Sat Aug 27 09:39:16 2022, MaxMem=   536870912 cpu:               0.7 elap:               0.2
 (Enter /usr/site/hpc/x86_64/glibc-2.17/broadwell/gaussian/g16_a.03/pgi-16.5/g16/l502.exe)
 Keep R1 ints in memory in symmetry-blocked form, NReq=34823457.
 FoFCou: FMM=F IPFlag=           0 FMFlag=           0 FMFlg1=           0
         NFxFlg=           0 DoJE=F BraDBF=F KetDBF=F FulRan=T
         wScrn=  0.000000 ICntrl=       600 IOpCl=  0 I1Cent=           0 NGrid=           0
         NMat0=    1 NMatS0=   6786 NMatT0=    0 NMatD0=    1 NMtDS0=    0 NMtDT0=    0
 Petite list used in FoFCou.
 Closed shell SCF:
 Using DIIS extrapolation, IDIIS=  1040.
 NGot=   536870912 LenX=   525040673 LenY=   525023332
 Requested convergence on RMS density matrix=1.00D-08 within 128 cycles.
 Requested convergence on MAX density matrix=1.00D-06.
 Requested convergence on             energy=1.00D-06.
 No special actions if energy rises.

 Cycle   1  Pass 1  IDiag  1:
 E= -151.923961981583    
 DIIS: error= 6.60D-02 at cycle   1 NSaved=   1.
 NSaved= 1 IEnMin= 1 EnMin= -151.923961981583     IErMin= 1 ErrMin= 6.60D-02
 ErrMax= 6.60D-02  0.00D+00 EMaxC= 1.00D-01 BMatC= 4.01D-01 BMatP= 4.01D-01
 IDIUse=3 WtCom= 3.40D-01 WtEn= 6.60D-01
 Coeff-Com:  0.100D+01
 Coeff-En:   0.100D+01
 Coeff:      0.100D+01
 Gap=     0.508 Goal=   None    Shift=    0.000
 GapD=    0.508 DampG=2.000 DampE=0.500 DampFc=1.0000 IDamp=-1.
 RMSDP=2.56D-03 MaxDP=6.60D-02              OVMax= 1.29D-01

 Cycle   2  Pass 1  IDiag  1:
 E= -152.036135374924     Delta-E=       -0.112173393341 Rises=F Damp=F
 DIIS: error= 4.17D-02 at cycle   2 NSaved=   2.
 NSaved= 2 IEnMin= 2 EnMin= -152.036135374924     IErMin= 2 ErrMin= 4.17D-02
 ErrMax= 4.17D-02  0.00D+00 EMaxC= 1.00D-01 BMatC= 1.15D-01 BMatP= 4.01D-01
 IDIUse=3 WtCom= 5.83D-01 WtEn= 4.17D-01
 Coeff-Com:  0.321D+00 0.679D+00
 Coeff-En:   0.170D+00 0.830D+00
 Coeff:      0.258D+00 0.742D+00
 Gap=     0.652 Goal=   None    Shift=    0.000
 RMSDP=1.37D-03 MaxDP=3.95D-02 DE=-1.12D-01 OVMax= 5.77D-02

 Cycle   3  Pass 1  IDiag  1:
 E= -152.102134045324     Delta-E=       -0.065998670400 Rises=F Damp=F
 DIIS: error= 9.01D-03 at cycle   3 NSaved=   3.
 NSaved= 3 IEnMin= 3 EnMin= -152.102134045324     IErMin= 3 ErrMin= 9.01D-03
 ErrMax= 9.01D-03  0.00D+00 EMaxC= 1.00D-01 BMatC= 6.03D-03 BMatP= 1.15D-01
 IDIUse=3 WtCom= 9.10D-01 WtEn= 9.01D-02
 Coeff-Com: -0.307D-01 0.155D+00 0.876D+00
 Coeff-En:   0.000D+00 0.000D+00 0.100D+01
 Coeff:     -0.279D-01 0.141D+00 0.887D+00
 Gap=     0.624 Goal=   None    Shift=    0.000
 RMSDP=2.51D-04 MaxDP=5.67D-03 DE=-6.60D-02 OVMax= 1.35D-02

 Cycle   4  Pass 1  IDiag  1:
 E= -152.105909050225     Delta-E=       -0.003775004901 Rises=F Damp=F
 DIIS: error= 8.67D-04 at cycle   4 NSaved=   4.
 NSaved= 4 IEnMin= 4 EnMin= -152.105909050225     IErMin= 4 ErrMin= 8.67D-04
 ErrMax= 8.67D-04  0.00D+00 EMaxC= 1.00D-01 BMatC= 3.88D-05 BMatP= 6.03D-03
 IDIUse=3 WtCom= 9.91D-01 WtEn= 8.67D-03
 Coeff-Com:  0.679D-02-0.611D-01-0.239D+00 0.129D+01
 Coeff-En:   0.000D+00 0.000D+00 0.000D+00 0.100D+01
 Coeff:      0.673D-02-0.606D-01-0.236D+00 0.129D+01
 Gap=     0.627 Goal=   None    Shift=    0.000
 RMSDP=5.32D-05 MaxDP=1.03D-03 DE=-3.78D-03 OVMax= 2.34D-03

 Cycle   5  Pass 1  IDiag  1:
 E= -152.105961377437     Delta-E=       -0.000052327212 Rises=F Damp=F
 DIIS: error= 1.97D-04 at cycle   5 NSaved=   5.
 NSaved= 5 IEnMin= 5 EnMin= -152.105961377437     IErMin= 5 ErrMin= 1.97D-04
 ErrMax= 1.97D-04  0.00D+00 EMaxC= 1.00D-01 BMatC= 1.41D-06 BMatP= 3.88D-05
 IDIUse=3 WtCom= 9.98D-01 WtEn= 1.97D-03
 Coeff-Com:  0.621D-03-0.138D-03-0.527D-02-0.207D+00 0.121D+01
 Coeff-En:   0.000D+00 0.000D+00 0.000D+00 0.000D+00 0.100D+01
 Coeff:      0.619D-03-0.138D-03-0.526D-02-0.206D+00 0.121D+01
 Gap=     0.628 Goal=   None    Shift=    0.000
 RMSDP=1.40D-05 MaxDP=2.90D-04 DE=-5.23D-05 OVMax= 6.96D-04

 Cycle   6  Pass 1  IDiag  1:
 E= -152.105964290349     Delta-E=       -0.000002912912 Rises=F Damp=F
 DIIS: error= 3.04D-05 at cycle   6 NSaved=   6.
 NSaved= 6 IEnMin= 6 EnMin= -152.105964290349     IErMin= 6 ErrMin= 3.04D-05
 ErrMax= 3.04D-05  0.00D+00 EMaxC= 1.00D-01 BMatC= 3.76D-08 BMatP= 1.41D-06
 IDIUse=1 WtCom= 1.00D+00 WtEn= 0.00D+00
 Coeff-Com: -0.288D-03 0.171D-02 0.737D-02-0.311D-02-0.255D+00 0.125D+01
 Coeff:     -0.288D-03 0.171D-02 0.737D-02-0.311D-02-0.255D+00 0.125D+01
 Gap=     0.628 Goal=   None    Shift=    0.000
 RMSDP=3.05D-06 MaxDP=6.93D-05 DE=-2.91D-06 OVMax= 1.60D-04

 Cycle   7  Pass 1  IDiag  1:
 E= -152.105964395004     Delta-E=       -0.000000104655 Rises=F Damp=F
 DIIS: error= 5.60D-06 at cycle   7 NSaved=   7.
 NSaved= 7 IEnMin= 7 EnMin= -152.105964395004     IErMin= 7 ErrMin= 5.60D-06
 ErrMax= 5.60D-06  0.00D+00 EMaxC= 1.00D-01 BMatC= 2.18D-09 BMatP= 3.76D-08
 IDIUse=1 WtCom= 1.00D+00 WtEn= 0.00D+00
 Coeff-Com:  0.127D-04-0.298D-03-0.116D-02 0.143D-01-0.318D-01-0.149D+00
 Coeff-Com:  0.117D+01
 Coeff:      0.127D-04-0.298D-03-0.116D-02 0.143D-01-0.318D-01-0.149D+00
 Coeff:      0.117D+01
 Gap=     0.628 Goal=   None    Shift=    0.000
 RMSDP=4.60D-07 MaxDP=1.10D-05 DE=-1.05D-07 OVMax= 3.20D-05

 Cycle   8  Pass 1  IDiag  1:
 E= -152.105964399198     Delta-E=       -0.000000004195 Rises=F Damp=F
 DIIS: error= 1.66D-06 at cycle   8 NSaved=   8.
 NSaved= 8 IEnMin= 8 EnMin= -152.105964399198     IErMin= 8 ErrMin= 1.66D-06
 ErrMax= 1.66D-06  0.00D+00 EMaxC= 1.00D-01 BMatC= 2.44D-10 BMatP= 2.18D-09
 IDIUse=1 WtCom= 1.00D+00 WtEn= 0.00D+00
 Coeff-Com:  0.213D-04-0.161D-03-0.652D-03 0.222D-02 0.128D-01-0.104D+00
 Coeff-Com:  0.175D+00 0.915D+00
 Coeff:      0.213D-04-0.161D-03-0.652D-03 0.222D-02 0.128D-01-0.104D+00
 Coeff:      0.175D+00 0.915D+00
 Gap=     0.628 Goal=   None    Shift=    0.000
 RMSDP=1.07D-07 MaxDP=2.71D-06 DE=-4.19D-09 OVMax= 7.52D-06

 Cycle   9  Pass 1  IDiag  1:
 E= -152.105964399526     Delta-E=       -0.000000000328 Rises=F Damp=F
 DIIS: error= 7.82D-07 at cycle   9 NSaved=   9.
 NSaved= 9 IEnMin= 9 EnMin= -152.105964399526     IErMin= 9 ErrMin= 7.82D-07
 ErrMax= 7.82D-07  0.00D+00 EMaxC= 1.00D-01 BMatC= 3.32D-11 BMatP= 2.44D-10
 IDIUse=1 WtCom= 1.00D+00 WtEn= 0.00D+00
 Coeff-Com:  0.111D-05 0.298D-04 0.125D-03-0.248D-02 0.867D-02 0.892D-02
 Coeff-Com: -0.174D+00 0.138D+00 0.102D+01
 Coeff:      0.111D-05 0.298D-04 0.125D-03-0.248D-02 0.867D-02 0.892D-02
 Coeff:     -0.174D+00 0.138D+00 0.102D+01
 Gap=     0.628 Goal=   None    Shift=    0.000
 RMSDP=4.74D-08 MaxDP=1.03D-06 DE=-3.28D-10 OVMax= 2.83D-06

 Cycle  10  Pass 1  IDiag  1:
 E= -152.105964399574     Delta-E=       -0.000000000047 Rises=F Damp=F
 DIIS: error= 1.11D-07 at cycle  10 NSaved=  10.
 NSaved=10 IEnMin=10 EnMin= -152.105964399574     IErMin=10 ErrMin= 1.11D-07
 ErrMax= 1.11D-07  0.00D+00 EMaxC= 1.00D-01 BMatC= 5.42D-13 BMatP= 3.32D-11
 IDIUse=1 WtCom= 1.00D+00 WtEn= 0.00D+00
 Coeff-Com: -0.692D-06-0.347D-05-0.178D-04 0.530D-03-0.197D-02-0.179D-02
 Coeff-Com:  0.459D-01-0.621D-01-0.300D+00 0.132D+01
 Coeff:     -0.692D-06-0.347D-05-0.178D-04 0.530D-03-0.197D-02-0.179D-02
 Coeff:      0.459D-01-0.621D-01-0.300D+00 0.132D+01
 Gap=     0.628 Goal=   None    Shift=    0.000
 RMSDP=8.18D-09 MaxDP=2.07D-07 DE=-4.74D-11 OVMax= 4.92D-07

 SCF Done:  E(RHF) =  -152.105964400     A.U. after   10 cycles
            NFock= 10  Conv=0.82D-08     -V/T= 2.0020
 KE= 1.518051941298D+02 PE=-4.224602751474D+02 EE= 8.811344721315D+01
 Leave Link  502 at Sat Aug 27 09:39:17 2022, MaxMem=   536870912 cpu:               3.5 elap:               1.0
 (Enter /usr/site/hpc/x86_64/glibc-2.17/broadwell/gaussian/g16_a.03/pgi-16.5/g16/l801.exe)
 Windowed orbitals will be sorted by symmetry type.
 ExpMin= 1.03D-01 ExpMax= 1.53D+04 ExpMxC= 5.22D+02 IAcc=3 IRadAn=         5 AccDes= 0.00D+00
 HarFok:  IExCor=  205 AccDes= 0.00D+00 IRadAn=         5 IDoV=-2 UseB2=F ITyADJ=14
 ICtDFT= 12500011 ScaDFX=  1.000000  1.000000  1.000000  1.000000
 Largest valence mixing into a core orbital is  1.12D-04
 Largest core mixing into a valence orbital is  1.77D-05
 Range of M.O.s used for correlation:     3   116
 NBasis=   116 NAE=    10 NBE=    10 NFC=     2 NFV=     0
 NROrb=    114 NOA=     8 NOB=     8 NVA=   106 NVB=   106
 Leave Link  801 at Sat Aug 27 09:39:17 2022, MaxMem=   536870912 cpu:               0.3 elap:               0.1
 (Enter /usr/site/hpc/x86_64/glibc-2.17/broadwell/gaussian/g16_a.03/pgi-16.5/g16/l804.exe)
 Closed-shell transformation, MDV=   536870912 ITran=4 ISComp=2.
 Unit  1 TFree=        834515 TCopy=        406125.
 Semi-Direct transformation.
 ModeAB=           4 MOrb=             8 LenV=     536371815
 LASXX=      2873146 LTotXX=     2873146 LenRXX=     5831278
 LTotAB=     2958132 MaxLAS=     6359376 LenRXY=           0
 NonZer=     8704424 LenScr=    13107200 LnRSAI=     6359376
 LnScr1=     9961472 LExtra=           0 Total=     35259326
 MaxDsk=          -1 SrtSym=           T ITran=            4
 DoSDTr:  NPSUse=  4
 JobTyp=0 Pass  1:  I=   1 to   8.
 (rs|ai) integrals will be sorted in core.
 Complete sort for first half transformation.
 First half transformation complete.
 Complete sort for second half transformation.
 Second half transformation complete.
 Spin components of T(2) and E(2):
     alpha-alpha T2 =       0.1559514419D-01 E2=     -0.6385185804D-01
     alpha-beta  T2 =       0.9207971155D-01 E2=     -0.3985352937D+00
     beta-beta   T2 =       0.1559514419D-01 E2=     -0.6385185804D-01
 ANorm=    0.1059844328D+01
 E2 =    -0.5262390098D+00 EUMP2 =    -0.15263220340933D+03
 Leave Link  804 at Sat Aug 27 09:39:18 2022, MaxMem=   536870912 cpu:               4.3 elap:               1.2
 (Enter /usr/site/hpc/x86_64/glibc-2.17/broadwell/gaussian/g16_a.03/pgi-16.5/g16/l913.exe)
 CIDS:  MDV=   536870912.
 Frozen-core window:  NFC=   2 NFV=   0.
 IFCWin=0 IBDFC=1 NFBD=     0     0 NFCmp=     0     0 NFFFC=     0     0
 Using DD3R+UMP44R for 1st iteration.
 Using DD4RQ for 2nd and later iterations.
 Keep R2 and R3 ints in memory in symmetry-blocked form, NReq=35357534.
 FoFCou: FMM=F IPFlag=           0 FMFlag=           0 FMFlg1=           0
         NFxFlg=           0 DoJE=F BraDBF=F KetDBF=F FulRan=T
         wScrn=  0.000000 ICntrl=       600 IOpCl=  0 I1Cent=           0 NGrid=           0
         NMat0=    1 NMatS0=   6786 NMatT0=    0 NMatD0=    1 NMtDS0=    0 NMtDT0=    0
 Petite list used in FoFCou.
 CIDS: In Core Option IDoMem=           1.
 CCSD(T)
 =======
 Iterations=  50 Convergence= 0.100D-06
 Produce multiple copies of IABC intergrals
 Iteration Nr.   1
 **********************
 DD1Dir will call FoFMem   1 times, MxPair=        72
 NAB=    36 NAA=     0 NBB=     0.
 MP4(R+Q)=  0.75786518D-02
 Maximum subspace dimension=  5
 A-vector RMS=  1.7559633D-03 Max=  5.5550121D-03 conv= 1.00D-05.
 RLE energy=       -0.5261053002
 E3=       -0.75166198D-02        EUMP3=      -0.15263972003D+03
 E4(DQ)=   -0.15543154D-02        UMP4(DQ)=   -0.15264127434D+03
 E4(SDQ)=  -0.46327368D-02        UMP4(SDQ)=  -0.15264435277D+03
 VARIATIONAL ENERGIES WITH THE FIRST-ORDER WAVEFUNCTION:
 DE(Corr)= -0.52610528     E(Corr)=     -152.63206968    
 NORM(A)=   0.10601962D+01
 Iteration Nr.   2
 **********************
 DD1Dir will call FoFMem   1 times, MxPair=        72
 NAB=    36 NAA=     0 NBB=     0.
 A-vector RMS=  2.1216652D-04 Max=  1.7285835D-03 conv= 1.00D-05.
 RLE energy=       -0.5372040379
 DE(Corr)= -0.53604685     E(CORR)=     -152.64201125     Delta=-9.94D-03
 NORM(A)=   0.10639644D+01
 Iteration Nr.   3
 **********************
 DD1Dir will call FoFMem   1 times, MxPair=        72
 NAB=    36 NAA=     0 NBB=     0.
 A-vector RMS=  1.4388527D-04 Max=  9.7281613D-04 conv= 1.00D-05.
 RLE energy=       -0.5377024176
 DE(Corr)= -0.53711283     E(CORR)=     -152.64307723     Delta=-1.07D-03
 NORM(A)=   0.10646060D+01
 Iteration Nr.   4
 **********************
 DD1Dir will call FoFMem   1 times, MxPair=        72
 NAB=    36 NAA=     0 NBB=     0.
 A-vector RMS=  2.7179953D-05 Max=  1.4447457D-04 conv= 1.00D-05.
 RLE energy=       -0.5377852871
 DE(Corr)= -0.53774996     E(CORR)=     -152.64371436     Delta=-6.37D-04
 NORM(A)=   0.10647184D+01
 Iteration Nr.   5
 **********************
 DD1Dir will call FoFMem   1 times, MxPair=        72
 NAB=    36 NAA=     0 NBB=     0.
 A-vector RMS=  1.9260445D-05 Max=  1.8206706D-04 conv= 1.00D-05.
 RLE energy=       -0.5377944396
 DE(Corr)= -0.53778744     E(CORR)=     -152.64375184     Delta=-3.75D-05
 NORM(A)=   0.10647285D+01
 Iteration Nr.   6
 **********************
 DD1Dir will call FoFMem   1 times, MxPair=        72
 NAB=    36 NAA=     0 NBB=     0.
 A-vector RMS=  5.8139516D-06 Max=  5.2130206D-05 conv= 1.00D-05.
 RLE energy=       -0.5377851472
 DE(Corr)= -0.53779071     E(CORR)=     -152.64375511     Delta=-3.27D-06
 NORM(A)=   0.10647287D+01
 Iteration Nr.   7
 **********************
 DD1Dir will call FoFMem   1 times, MxPair=        72
 NAB=    36 NAA=     0 NBB=     0.
 A-vector RMS=  2.7442135D-06 Max=  2.7228648D-05 conv= 1.00D-05.
 RLE energy=       -0.5377915486
 DE(Corr)= -0.53779086     E(CORR)=     -152.64375526     Delta=-1.51D-07
 NORM(A)=   0.10647310D+01
 Iteration Nr.   8
 **********************
 DD1Dir will call FoFMem   1 times, MxPair=        72
 NAB=    36 NAA=     0 NBB=     0.
 A-vector RMS=  7.4229660D-07 Max=  8.2244185D-06 conv= 1.00D-05.
 RLE energy=       -0.5377902186
 DE(Corr)= -0.53779040     E(CORR)=     -152.64375479     Delta= 4.65D-07
 NORM(A)=   0.10647311D+01
 Iteration Nr.   9
 **********************
 DD1Dir will call FoFMem   1 times, MxPair=        72
 NAB=    36 NAA=     0 NBB=     0.
 A-vector RMS=  1.8568592D-07 Max=  1.9072930D-06 conv= 1.00D-05.
 RLE energy=       -0.5377905353
 DE(Corr)= -0.53779061     E(CORR)=     -152.64375501     Delta=-2.16D-07
 NORM(A)=   0.10647314D+01
 Iteration Nr.  10
 **********************
 DD1Dir will call FoFMem   1 times, MxPair=        72
 NAB=    36 NAA=     0 NBB=     0.
 A-vector RMS=  6.4319346D-08 Max=  5.3539037D-07 conv= 1.00D-05.
 RLE energy=       -0.5377906785
 DE(Corr)= -0.53779065     E(CORR)=     -152.64375505     Delta=-4.31D-08
 NORM(A)=   0.10647315D+01
 CI/CC converged in   10 iterations to DelEn=-4.31D-08 Conv= 1.00D-07 ErrA1= 6.43D-08 Conv= 1.00D-05
 Wavefunction amplitudes converged. E(Corr)=     -152.64375505    
 Largest amplitude= 3.56D-02
 IPart=  2 IA=    7   11.05% done.
 IPart=  4 IA=   13   21.46% done.
 IPart=  4 IA=   19   31.21% done.
 IPart=  2 IA=   25   40.32% done.
 IPart=  1 IA=   32   50.13% done.
 IPart=  1 IA=   40   60.27% done.
 IPart=  3 IA=   49   70.30% done.
 IPart=  2 IA=   60   80.58% done.
 IPart=  2 IA=   74   90.51% done.
 Time for triples=       62.55 seconds.
 T4(CCSD)= -0.16085396D-01
 T5(CCSD)=  0.40844344D-03
 CCSD(T)= -0.15265943201D+03
 Discarding MO integrals.
 Leave Link  913 at Sat Aug 27 09:39:41 2022, MaxMem=   536870912 cpu:              84.5 elap:              22.6
 (Enter /usr/site/hpc/x86_64/glibc-2.17/broadwell/gaussian/g16_a.03/pgi-16.5/g16/l601.exe)
 Copying SCF densities to generalized density rwf, IOpCl= 0 IROHF=0.

 **********************************************************************

            Population analysis using the SCF density.

 **********************************************************************

 Orbital symmetries:
       Occupied  (A') (A') (A') (A') (A') (A') (A') (A') (A") (A")
       Virtual   (A') (A') (A') (A') (A') (A') (A') (A') (A') (A')
                 (A") (A") (A') (A') (A') (A") (A") (A') (A") (A")
                 (A') (A') (A') (A') (A') (A') (A') (A') (A") (A")
                 (A") (A") (A') (A') (A') (A') (A') (A') (A') (A')
                 (A') (A') (A") (A") (A') (A') (A") (A") (A') (A')
                 (A") (A") (A') (A') (A') (A') (A") (A") (A") (A")
                 (A') (A') (A') (A') (A") (A") (A') (A') (A') (A')
                 (A") (A") (A') (A') (A') (A') (A') (A') (A') (A')
                 (A") (A") (A') (A') (A") (A") (A") (A") (A') (A')
                 (A") (A") (A') (A') (A') (A') (A") (A") (A') (A')
                 (A') (A') (A') (A') (A') (A')
 The electronic state is 1-A'.
 Alpha  occ. eigenvalues --  -20.54955 -20.54527  -1.32238  -1.31807  -0.69653
 Alpha  occ. eigenvalues --   -0.69204  -0.55635  -0.55137  -0.49341  -0.48912
 Alpha virt. eigenvalues --    0.13868   0.15690   0.20393   0.21356   0.53776
 Alpha virt. eigenvalues --    0.55394   0.57715   0.58151   0.64026   0.74690
 Alpha virt. eigenvalues --    0.79320   0.80156   0.80250   0.81212   0.82920
 Alpha virt. eigenvalues --    0.85305   0.85722   0.87536   0.97604   0.98489
 Alpha virt. eigenvalues --    1.15336   1.16274   1.17850   1.18799   1.52125
 Alpha virt. eigenvalues --    1.52410   1.52703   1.53092   2.01282   2.01741
 Alpha virt. eigenvalues --    2.07337   2.07778   2.09346   2.10404   2.15711
 Alpha virt. eigenvalues --    2.16200   2.23759   2.32829   2.62038   2.62593
 Alpha virt. eigenvalues --    2.93326   2.94182   3.39903   3.40339   3.50455
 Alpha virt. eigenvalues --    3.50887   3.53632   3.54058   3.60013   3.60502
 Alpha virt. eigenvalues --    3.79226   3.79656   3.85928   3.86124   3.88294
 Alpha virt. eigenvalues --    3.89374   3.94093   3.94525   4.03352   4.04199
 Alpha virt. eigenvalues --    4.08721   4.09198   4.15824   4.16359   4.30657
 Alpha virt. eigenvalues --    4.31082   4.40432   4.41302   4.46088   4.46565
 Alpha virt. eigenvalues --    4.67072   4.67502   4.81486   4.82168   5.04635
 Alpha virt. eigenvalues --    5.05668   5.24644   5.25258   5.54672   5.55423
 Alpha virt. eigenvalues --    5.98521   5.98946   6.40958   6.41384   6.86757
 Alpha virt. eigenvalues --    6.87191   6.90222   6.90655   6.95139   6.95603
 Alpha virt. eigenvalues --    6.99722   7.00163   7.08455   7.08674   7.12461
 Alpha virt. eigenvalues --    7.15667   7.18893   7.19330   7.47822   7.48318
 Alpha virt. eigenvalues --    7.70907   7.71796   8.15623   8.16340  12.48876
 Alpha virt. eigenvalues --   12.51996
          Condensed to atoms (all electrons):
               1          2          3          4          5          6
     1  O    7.815029   0.338944   0.343637   0.000308   0.000006   0.000374
     2  H    0.338944   0.449961  -0.035322   0.000022  -0.000002  -0.000032
     3  H    0.343637  -0.035322   0.439370   0.000034  -0.000002  -0.000021
     4  O    0.000308   0.000022   0.000034   7.815094   0.337395   0.345421
     5  H    0.000006  -0.000002  -0.000002   0.337395   0.453667  -0.035965
     6  H    0.000374  -0.000032  -0.000021   0.345421  -0.035965   0.437284
 Mulliken charges:
               1
     1  O   -0.498298
     2  H    0.246429
     3  H    0.252304
     4  O   -0.498275
     5  H    0.244901
     6  H    0.252939
 Sum of Mulliken charges =  -0.00000
 Mulliken charges with hydrogens summed into heavy atoms:
               1
     1  O    0.000435
     4  O   -0.000435
 Electronic spatial extent (au):  <R**2>=            346.9650
 Charge=             -0.0000 electrons
 Dipole moment (field-independent basis, Debye):
    X=             -1.2736    Y=             -0.5116    Z=              0.0000  Tot=              1.3725
 Quadrupole moment (field-independent basis, Debye-Ang):
   XX=             -8.7130   YY=              2.8456   ZZ=            -14.7110
   XY=             -1.7828   XZ=              0.0000   YZ=              0.0000
 Traceless Quadrupole moment (field-independent basis, Debye-Ang):
   XX=             -1.8535   YY=              9.7050   ZZ=             -7.8515
   XY=             -1.7828   XZ=              0.0000   YZ=              0.0000
 Octapole moment (field-independent basis, Debye-Ang**2):
  XXX=             -1.8207  YYY=              0.2213  ZZZ=              0.0000  XYY=             -0.5451
  XXY=             -3.4254  XXZ=              0.0000  XZZ=             -0.1620  YZZ=             -0.0741
  YYZ=              0.0000  XYZ=              0.0000
 Hexadecapole moment (field-independent basis, Debye-Ang**3):
 XXXX=            -11.0134 YYYY=           -165.9345 ZZZZ=            -11.3346 XXXY=             -2.1166
 XXXZ=              0.0000 YYYX=              5.4437 YYYZ=              0.0000 ZZZX=              0.0000
 ZZZY=              0.0000 XXYY=            -36.9722 XXZZ=             -4.4963 YYZZ=            -68.0877
 XXYZ=              0.0000 YYXZ=              0.0000 ZZXY=              0.6737
 N-N= 3.043566940485D+01 E-N=-4.224602737263D+02  KE= 1.518051941298D+02
 Symmetry A'   KE= 1.427662944356D+02
 Symmetry A"   KE= 9.038899694168D+00
 Leave Link  601 at Sat Aug 27 09:39:41 2022, MaxMem=   536870912 cpu:               0.1 elap:               0.1
 (Enter /usr/site/hpc/x86_64/glibc-2.17/broadwell/gaussian/g16_a.03/pgi-16.5/g16/l9999.exe)
 1\1\GINC-N003\SP\RCCSD(T)-FC\CC-pVTZ\H4O2\C7441284\27-Aug-2022\0\\#p C
 CSD(T)/cc-pVTZ\\H2O_H2O_2286\\0,1\O,0,0.,-0.009833,0.\H,0,-0.799571,-0
 .580965,0.\H,0,0.799571,-0.580965,0.\O,0,-0.006483,4.01478,0.\H,0,0.21
 8093,4.971374,0.\H,0,-0.984207,3.916986,0.\\Version=ES64L-G16RevA.03\S
 tate=1-A'\HF=-152.1059644\MP2=-152.6322034\MP3=-152.63972\MP4D=-152.64
 8853\MP4DQ=-152.6412743\MP4SDQ=-152.6443528\CCSD=-152.6437551\CCSD(T)=
 -152.659432\RMSD=8.184e-09\PG=CS [SG(H4O2)]\\@


 WHEN YOU'VE SEEN ONE NUCLEAR WAR YOU'VE SEEN THEM ALL.
 Job cpu time:       0 days  0 hours  1 minutes 34.7 seconds.
 Elapsed time:       0 days  0 hours  0 minutes 25.5 seconds.
 File lengths (MBytes):  RWF=    340 Int=      0 D2E=      0 Chk=      8 Scr=      8
 Normal termination of Gaussian 16 at Sat Aug 27 09:39:41 2022.
