 Entering Gaussian System, Link 0=g16
 Input=H2O_H2O_1027.com
 Output=H2O_H2O_1027.log
 Initial command:
 /usr/site/hpc/x86_64/glibc-2.17/broadwell/gaussian/g16_a.03/pgi-16.5/g16/l1.exe "/gpfs/gpfs1/scratch/c7441284/ForceFieldModel/FittingData/Gau-3505106.inp" -scrdir="/gpfs/gpfs1/scratch/c7441284/ForceFieldModel/FittingData/"
 Entering Link 1 = /usr/site/hpc/x86_64/glibc-2.17/broadwell/gaussian/g16_a.03/pgi-16.5/g16/l1.exe PID=   3505107.
  
 Copyright (c) 1988,1990,1992,1993,1995,1998,2003,2009,2016,
            Gaussian, Inc.  All Rights Reserved.
  
 This is part of the Gaussian(R) 16 program.  It is based on
 the Gaussian(R) 09 system (copyright 2009, Gaussian, Inc.),
 the Gaussian(R) 03 system (copyright 2003, Gaussian, Inc.),
 the Gaussian(R) 98 system (copyright 1998, Gaussian, Inc.),
 the Gaussian(R) 94 system (copyright 1995, Gaussian, Inc.),
 the Gaussian 92(TM) system (copyright 1992, Gaussian, Inc.),
 the Gaussian 90(TM) system (copyright 1990, Gaussian, Inc.),
 the Gaussian 88(TM) system (copyright 1988, Gaussian, Inc.),
 the Gaussian 86(TM) system (copyright 1986, Carnegie Mellon
 University), and the Gaussian 82(TM) system (copyright 1983,
 Carnegie Mellon University). Gaussian is a federally registered
 trademark of Gaussian, Inc.
  
 This software contains proprietary and confidential information,
 including trade secrets, belonging to Gaussian, Inc.
  
 This software is provided under written license and may be
 used, copied, transmitted, or stored only in accord with that
 written license.
  
 The following legend is applicable only to US Government
 contracts under FAR:
  
                    RESTRICTED RIGHTS LEGEND
  
 Use, reproduction and disclosure by the US Government is
 subject to restrictions as set forth in subparagraphs (a)
 and (c) of the Commercial Computer Software - Restricted
 Rights clause in FAR 52.227-19.
  
 Gaussian, Inc.
 340 Quinnipiac St., Bldg. 40, Wallingford CT 06492
  
  
 ---------------------------------------------------------------
 Warning -- This program may not be used in any manner that
 competes with the business of Gaussian, Inc. or will provide
 assistance to any competitor of Gaussian, Inc.  The licensee
 of this program is prohibited from giving any competitor of
 Gaussian, Inc. access to this program.  By using this program,
 the user acknowledges that Gaussian, Inc. is engaged in the
 business of creating and licensing software in the field of
 computational chemistry and represents and warrants to the
 licensee that it is not a competitor of Gaussian, Inc. and that
 it will not use this program in any manner prohibited above.
 ---------------------------------------------------------------
  

 Cite this work as:
 Gaussian 16, Revision A.03,
 M. J. Frisch, G. W. Trucks, H. B. Schlegel, G. E. Scuseria, 
 M. A. Robb, J. R. Cheeseman, G. Scalmani, V. Barone, 
 G. A. Petersson, H. Nakatsuji, X. Li, M. Caricato, A. V. Marenich, 
 J. Bloino, B. G. Janesko, R. Gomperts, B. Mennucci, H. P. Hratchian, 
 J. V. Ortiz, A. F. Izmaylov, J. L. Sonnenberg, D. Williams-Young, 
 F. Ding, F. Lipparini, F. Egidi, J. Goings, B. Peng, A. Petrone, 
 T. Henderson, D. Ranasinghe, V. G. Zakrzewski, J. Gao, N. Rega, 
 G. Zheng, W. Liang, M. Hada, M. Ehara, K. Toyota, R. Fukuda, 
 J. Hasegawa, M. Ishida, T. Nakajima, Y. Honda, O. Kitao, H. Nakai, 
 T. Vreven, K. Throssell, J. A. Montgomery, Jr., J. E. Peralta, 
 F. Ogliaro, M. J. Bearpark, J. J. Heyd, E. N. Brothers, K. N. Kudin, 
 V. N. Staroverov, T. A. Keith, R. Kobayashi, J. Normand, 
 K. Raghavachari, A. P. Rendell, J. C. Burant, S. S. Iyengar, 
 J. Tomasi, M. Cossi, J. M. Millam, M. Klene, C. Adamo, R. Cammi, 
 J. W. Ochterski, R. L. Martin, K. Morokuma, O. Farkas, 
 J. B. Foresman, and D. J. Fox, Gaussian, Inc., Wallingford CT, 2016.
 
 ******************************************
 Gaussian 16:  ES64L-G16RevA.03 25-Dec-2016
                27-Aug-2022 
 ******************************************
 %NProcShared=4
 Will use up to    4 processors via shared memory.
 %Mem=4GB
 %Chk=H2O_H2O_1027.chk
 ------------------
 #p CCSD(T)/cc-pVTZ
 ------------------
 1/38=1,172=1/1;
 2/12=2,17=6,18=5,40=1/2;
 3/5=16,6=1,11=9,25=1,30=1/1,2,3;
 4//1;
 5/5=2,38=5/2;
 8/6=4,9=120000,10=1/1,4;
 9/5=7,14=2/13;
 6/7=2,8=2,9=2,10=2/1;
 99/5=1,9=1/99;
 Leave Link    1 at Sat Aug 27 01:29:31 2022, MaxMem=   536870912 cpu:               0.9 elap:               0.3
 (Enter /usr/site/hpc/x86_64/glibc-2.17/broadwell/gaussian/g16_a.03/pgi-16.5/g16/l101.exe)
 ------------
 H2O_H2O_1027
 ------------
 Symbolic Z-matrix:
 Charge =  0 Multiplicity = 1
 O                     0.       -0.00983   0. 
 H                    -0.79957  -0.58097   0. 
 H                     0.79957  -0.58097   0. 
 O                    -0.00128   2.68755   0. 
 H                     0.7169    3.35816   0. 
 H                    -0.86856   3.14943   0. 
 
 ITRead=  0  0  0  0  0  0
 MicOpt= -1 -1 -1 -1 -1 -1
 NAtoms=      6 NQM=        6 NQMF=       0 NMMI=      0 NMMIF=      0
                NMic=       0 NMicF=      0.
                    Isotopes and Nuclear Properties:
 (Nuclear quadrupole moments (NQMom) in fm**2, nuclear magnetic moments (NMagM)
  in nuclear magnetons)

  Atom         1           2           3           4           5           6
 IAtWgt=          16           1           1          16           1           1
 AtmWgt=  15.9949146   1.0078250   1.0078250  15.9949146   1.0078250   1.0078250
 NucSpn=           0           1           1           0           1           1
 AtZEff=  -0.0000000  -0.0000000  -0.0000000  -0.0000000  -0.0000000  -0.0000000
 NQMom=    0.0000000   0.0000000   0.0000000   0.0000000   0.0000000   0.0000000
 NMagM=    0.0000000   2.7928460   2.7928460   0.0000000   2.7928460   2.7928460
 AtZNuc=   8.0000000   1.0000000   1.0000000   8.0000000   1.0000000   1.0000000
 Leave Link  101 at Sat Aug 27 01:29:31 2022, MaxMem=   536870912 cpu:               0.6 elap:               0.2
 (Enter /usr/site/hpc/x86_64/glibc-2.17/broadwell/gaussian/g16_a.03/pgi-16.5/g16/l202.exe)
                          Input orientation:                          
 ---------------------------------------------------------------------
 Center     Atomic      Atomic             Coordinates (Angstroms)
 Number     Number       Type             X           Y           Z
 ---------------------------------------------------------------------
      1          8           0        0.000000   -0.009833    0.000000
      2          1           0       -0.799571   -0.580965    0.000000
      3          1           0        0.799571   -0.580965    0.000000
      4          8           0       -0.001283    2.687545    0.000000
      5          1           0        0.716900    3.358156    0.000000
      6          1           0       -0.868562    3.149426    0.000000
 ---------------------------------------------------------------------
                    Distance matrix (angstroms):
                    1          2          3          4          5
     1  O    0.000000
     2  H    0.982601   0.000000
     3  H    0.982601   1.599142   0.000000
     4  O    2.697378   3.364583   3.365193   0.000000
     5  H    3.443442   4.220943   3.939988   0.982602   0.000000
     6  H    3.276479   3.731029   4.086378   0.982602   1.599143
                    6
     6  H    0.000000
 Stoichiometry    H4O2
 Framework group  CS[SG(H4O2)]
 Deg. of freedom     9
 Full point group                 CS      NOp   2
 Largest Abelian subgroup         CS      NOp   2
 Largest concise Abelian subgroup C1      NOp   1
                         Standard orientation:                         
 ---------------------------------------------------------------------
 Center     Atomic      Atomic             Coordinates (Angstroms)
 Number     Number       Type             X           Y           Z
 ---------------------------------------------------------------------
      1          8           0        0.007455   -1.348204    0.000000
      2          1           0       -0.792388   -1.918956    0.000000
      3          1           0        0.806754   -1.919716    0.000000
      4          8           0        0.007455    1.349174    0.000000
      5          1           0        0.725957    2.019444    0.000000
      6          1           0       -0.859604    1.811468    0.000000
 ---------------------------------------------------------------------
 Rotational constants (GHZ):         196.9704836           6.9200597           6.6851924
 Leave Link  202 at Sat Aug 27 01:29:31 2022, MaxMem=   536870912 cpu:               0.0 elap:               0.0
 (Enter /usr/site/hpc/x86_64/glibc-2.17/broadwell/gaussian/g16_a.03/pgi-16.5/g16/l301.exe)
 Standard basis: CC-pVTZ (5D, 7F)
 Ernie: Thresh=  0.10000D-02 Tol=  0.10000D-05 Strict=F.
 Ernie:  6 primitive shells out of 84 were deleted.
 There are    92 symmetry adapted cartesian basis functions of A'  symmetry.
 There are    38 symmetry adapted cartesian basis functions of A"  symmetry.
 There are    80 symmetry adapted basis functions of A'  symmetry.
 There are    36 symmetry adapted basis functions of A"  symmetry.
   116 basis functions,   172 primitive gaussians,   130 cartesian basis functions
    10 alpha electrons       10 beta electrons
       nuclear repulsion energy        36.0196992375 Hartrees.
 IExCor=    0 DFT=F Ex=HF Corr=None ExCW=0 ScaHFX=  1.000000
 ScaDFX=  1.000000  1.000000  1.000000  1.000000 ScalE2=  1.000000  1.000000
 IRadAn=      5 IRanWt=     -1 IRanGd=            0 ICorTp=0 IEmpDi=  4
 NAtoms=    6 NActive=    6 NUniq=    6 SFac= 1.00D+00 NAtFMM=   60 NAOKFM=F Big=F
 Integral buffers will be    131072 words long.
 Raffenetti 1 integral format.
 Two-electron integral symmetry is turned on.
 Leave Link  301 at Sat Aug 27 01:29:31 2022, MaxMem=   536870912 cpu:               0.1 elap:               0.0
 (Enter /usr/site/hpc/x86_64/glibc-2.17/broadwell/gaussian/g16_a.03/pgi-16.5/g16/l302.exe)
 NPDir=0 NMtPBC=     1 NCelOv=     1 NCel=       1 NClECP=     1 NCelD=      1
         NCelK=      1 NCelE2=     1 NClLst=     1 CellRange=     0.0.
 One-electron integrals computed using PRISM.
 One-electron integral symmetry used in STVInt
 NBasis=   116 RedAO= T EigKep=  2.23D-03  NBF=    80    36
 NBsUse=   116 1.00D-06 EigRej= -1.00D+00 NBFU=    80    36
 Leave Link  302 at Sat Aug 27 01:29:32 2022, MaxMem=   536870912 cpu:               0.5 elap:               0.1
 (Enter /usr/site/hpc/x86_64/glibc-2.17/broadwell/gaussian/g16_a.03/pgi-16.5/g16/l303.exe)
 DipDrv:  MaxL=1.
 Leave Link  303 at Sat Aug 27 01:29:32 2022, MaxMem=   536870912 cpu:               0.1 elap:               0.1
 (Enter /usr/site/hpc/x86_64/glibc-2.17/broadwell/gaussian/g16_a.03/pgi-16.5/g16/l401.exe)
 ExpMin= 1.03D-01 ExpMax= 1.53D+04 ExpMxC= 5.22D+02 IAcc=3 IRadAn=         5 AccDes= 0.00D+00
 Harris functional with IExCor=  205 and IRadAn=       5 diagonalized for initial guess.
 HarFok:  IExCor=  205 AccDes= 0.00D+00 IRadAn=         5 IDoV= 1 UseB2=F ITyADJ=14
 ICtDFT=  3500011 ScaDFX=  1.000000  1.000000  1.000000  1.000000
 FoFCou: FMM=F IPFlag=           0 FMFlag=      100000 FMFlg1=           0
         NFxFlg=           0 DoJE=T BraDBF=F KetDBF=T FulRan=T
         wScrn=  0.000000 ICntrl=       500 IOpCl=  0 I1Cent=   200000004 NGrid=           0
         NMat0=    1 NMatS0=      1 NMatT0=    0 NMatD0=    1 NMtDS0=    0 NMtDT0=    0
 Petite list used in FoFCou.
 Harris En= -152.299891142534    
 JPrj=0 DoOrth=F DoCkMO=F.
 Initial guess orbital symmetries:
       Occupied  (A') (A') (A') (A') (A') (A') (A') (A') (A") (A")
       Virtual   (A') (A') (A') (A') (A') (A') (A') (A') (A') (A")
                 (A') (A') (A") (A') (A") (A") (A') (A") (A') (A")
                 (A') (A') (A') (A') (A') (A') (A') (A') (A") (A")
                 (A") (A") (A') (A') (A') (A') (A') (A') (A') (A')
                 (A') (A') (A") (A") (A') (A') (A") (A") (A") (A")
                 (A') (A') (A') (A') (A') (A") (A") (A') (A') (A")
                 (A') (A') (A") (A') (A") (A") (A') (A') (A') (A')
                 (A") (A") (A') (A') (A') (A') (A') (A') (A') (A')
                 (A") (A") (A') (A') (A") (A") (A") (A") (A') (A')
                 (A") (A") (A') (A') (A') (A') (A") (A") (A') (A')
                 (A') (A') (A') (A') (A') (A')
 The electronic state of the initial guess is 1-A'.
 Leave Link  401 at Sat Aug 27 01:29:32 2022, MaxMem=   536870912 cpu:               0.8 elap:               0.2
 (Enter /usr/site/hpc/x86_64/glibc-2.17/broadwell/gaussian/g16_a.03/pgi-16.5/g16/l502.exe)
 Keep R1 ints in memory in symmetry-blocked form, NReq=34823457.
 FoFCou: FMM=F IPFlag=           0 FMFlag=           0 FMFlg1=           0
         NFxFlg=           0 DoJE=F BraDBF=F KetDBF=F FulRan=T
         wScrn=  0.000000 ICntrl=       600 IOpCl=  0 I1Cent=           0 NGrid=           0
         NMat0=    1 NMatS0=   6786 NMatT0=    0 NMatD0=    1 NMtDS0=    0 NMtDT0=    0
 Petite list used in FoFCou.
 Closed shell SCF:
 Using DIIS extrapolation, IDIIS=  1040.
 NGot=   536870912 LenX=   525040673 LenY=   525023332
 Requested convergence on RMS density matrix=1.00D-08 within 128 cycles.
 Requested convergence on MAX density matrix=1.00D-06.
 Requested convergence on             energy=1.00D-06.
 No special actions if energy rises.

 Cycle   1  Pass 1  IDiag  1:
 E= -151.909338902860    
 DIIS: error= 6.69D-02 at cycle   1 NSaved=   1.
 NSaved= 1 IEnMin= 1 EnMin= -151.909338902860     IErMin= 1 ErrMin= 6.69D-02
 ErrMax= 6.69D-02  0.00D+00 EMaxC= 1.00D-01 BMatC= 4.07D-01 BMatP= 4.07D-01
 IDIUse=3 WtCom= 3.31D-01 WtEn= 6.69D-01
 Coeff-Com:  0.100D+01
 Coeff-En:   0.100D+01
 Coeff:      0.100D+01
 Gap=     0.490 Goal=   None    Shift=    0.000
 GapD=    0.490 DampG=2.000 DampE=0.500 DampFc=1.0000 IDamp=-1.
 RMSDP=2.83D-03 MaxDP=7.10D-02              OVMax= 1.34D-01

 Cycle   2  Pass 1  IDiag  1:
 E= -152.023692065486     Delta-E=       -0.114353162626 Rises=F Damp=F
 DIIS: error= 4.23D-02 at cycle   2 NSaved=   2.
 NSaved= 2 IEnMin= 2 EnMin= -152.023692065486     IErMin= 2 ErrMin= 4.23D-02
 ErrMax= 4.23D-02  0.00D+00 EMaxC= 1.00D-01 BMatC= 1.19D-01 BMatP= 4.07D-01
 IDIUse=3 WtCom= 5.77D-01 WtEn= 4.23D-01
 Coeff-Com:  0.325D+00 0.675D+00
 Coeff-En:   0.177D+00 0.823D+00
 Coeff:      0.262D+00 0.738D+00
 Gap=     0.643 Goal=   None    Shift=    0.000
 RMSDP=1.52D-03 MaxDP=4.19D-02 DE=-1.14D-01 OVMax= 6.18D-02

 Cycle   3  Pass 1  IDiag  1:
 E= -152.093237126131     Delta-E=       -0.069545060645 Rises=F Damp=F
 DIIS: error= 9.23D-03 at cycle   3 NSaved=   3.
 NSaved= 3 IEnMin= 3 EnMin= -152.093237126131     IErMin= 3 ErrMin= 9.23D-03
 ErrMax= 9.23D-03  0.00D+00 EMaxC= 1.00D-01 BMatC= 6.29D-03 BMatP= 1.19D-01
 IDIUse=3 WtCom= 9.08D-01 WtEn= 9.23D-02
 Coeff-Com: -0.317D-01 0.154D+00 0.878D+00
 Coeff-En:   0.000D+00 0.000D+00 0.100D+01
 Coeff:     -0.288D-01 0.140D+00 0.889D+00
 Gap=     0.615 Goal=   None    Shift=    0.000
 RMSDP=2.77D-04 MaxDP=6.41D-03 DE=-6.95D-02 OVMax= 1.42D-02

 Cycle   4  Pass 1  IDiag  1:
 E= -152.097215899211     Delta-E=       -0.003978773080 Rises=F Damp=F
 DIIS: error= 9.00D-04 at cycle   4 NSaved=   4.
 NSaved= 4 IEnMin= 4 EnMin= -152.097215899211     IErMin= 4 ErrMin= 9.00D-04
 ErrMax= 9.00D-04  0.00D+00 EMaxC= 1.00D-01 BMatC= 4.31D-05 BMatP= 6.29D-03
 IDIUse=3 WtCom= 9.91D-01 WtEn= 9.00D-03
 Coeff-Com:  0.668D-02-0.604D-01-0.233D+00 0.129D+01
 Coeff-En:   0.000D+00 0.000D+00 0.000D+00 0.100D+01
 Coeff:      0.662D-02-0.598D-01-0.231D+00 0.128D+01
 Gap=     0.618 Goal=   None    Shift=    0.000
 RMSDP=5.47D-05 MaxDP=1.06D-03 DE=-3.98D-03 OVMax= 2.78D-03

 Cycle   5  Pass 1  IDiag  1:
 E= -152.097273716253     Delta-E=       -0.000057817042 Rises=F Damp=F
 DIIS: error= 2.04D-04 at cycle   5 NSaved=   5.
 NSaved= 5 IEnMin= 5 EnMin= -152.097273716253     IErMin= 5 ErrMin= 2.04D-04
 ErrMax= 2.04D-04  0.00D+00 EMaxC= 1.00D-01 BMatC= 1.55D-06 BMatP= 4.31D-05
 IDIUse=3 WtCom= 9.98D-01 WtEn= 2.04D-03
 Coeff-Com:  0.853D-03-0.187D-02-0.120D-01-0.163D+00 0.118D+01
 Coeff-En:   0.000D+00 0.000D+00 0.000D+00 0.000D+00 0.100D+01
 Coeff:      0.852D-03-0.187D-02-0.120D-01-0.162D+00 0.118D+01
 Gap=     0.618 Goal=   None    Shift=    0.000
 RMSDP=1.46D-05 MaxDP=2.79D-04 DE=-5.78D-05 OVMax= 6.95D-04

 Cycle   6  Pass 1  IDiag  1:
 E= -152.097276813052     Delta-E=       -0.000003096800 Rises=F Damp=F
 DIIS: error= 3.88D-05 at cycle   6 NSaved=   6.
 NSaved= 6 IEnMin= 6 EnMin= -152.097276813052     IErMin= 6 ErrMin= 3.88D-05
 ErrMax= 3.88D-05  0.00D+00 EMaxC= 1.00D-01 BMatC= 5.29D-08 BMatP= 1.55D-06
 IDIUse=1 WtCom= 1.00D+00 WtEn= 0.00D+00
 Coeff-Com: -0.350D-03 0.217D-02 0.935D-02-0.154D-01-0.256D+00 0.126D+01
 Coeff:     -0.350D-03 0.217D-02 0.935D-02-0.154D-01-0.256D+00 0.126D+01
 Gap=     0.619 Goal=   None    Shift=    0.000
 RMSDP=4.14D-06 MaxDP=9.98D-05 DE=-3.10D-06 OVMax= 1.96D-04

 Cycle   7  Pass 1  IDiag  1:
 E= -152.097276956268     Delta-E=       -0.000000143216 Rises=F Damp=F
 DIIS: error= 6.57D-06 at cycle   7 NSaved=   7.
 NSaved= 7 IEnMin= 7 EnMin= -152.097276956268     IErMin= 7 ErrMin= 6.57D-06
 ErrMax= 6.57D-06  0.00D+00 EMaxC= 1.00D-01 BMatC= 2.80D-09 BMatP= 5.29D-08
 IDIUse=1 WtCom= 1.00D+00 WtEn= 0.00D+00
 Coeff-Com:  0.319D-04-0.452D-03-0.182D-02 0.170D-01-0.212D-01-0.230D+00
 Coeff-Com:  0.124D+01
 Coeff:      0.319D-04-0.452D-03-0.182D-02 0.170D-01-0.212D-01-0.230D+00
 Coeff:      0.124D+01
 Gap=     0.619 Goal=   None    Shift=    0.000
 RMSDP=6.64D-07 MaxDP=1.27D-05 DE=-1.43D-07 OVMax= 4.18D-05

 Cycle   8  Pass 1  IDiag  1:
 E= -152.097276962216     Delta-E=       -0.000000005949 Rises=F Damp=F
 DIIS: error= 1.87D-06 at cycle   8 NSaved=   8.
 NSaved= 8 IEnMin= 8 EnMin= -152.097276962216     IErMin= 8 ErrMin= 1.87D-06
 ErrMax= 1.87D-06  0.00D+00 EMaxC= 1.00D-01 BMatC= 1.41D-10 BMatP= 2.80D-09
 IDIUse=1 WtCom= 1.00D+00 WtEn= 0.00D+00
 Coeff-Com:  0.767D-05 0.297D-04 0.139D-03-0.490D-02 0.194D-01 0.140D-01
 Coeff-Com: -0.381D+00 0.135D+01
 Coeff:      0.767D-05 0.297D-04 0.139D-03-0.490D-02 0.194D-01 0.140D-01
 Coeff:     -0.381D+00 0.135D+01
 Gap=     0.619 Goal=   None    Shift=    0.000
 RMSDP=1.27D-07 MaxDP=2.90D-06 DE=-5.95D-09 OVMax= 7.79D-06

 Cycle   9  Pass 1  IDiag  1:
 E= -152.097276962533     Delta-E=       -0.000000000316 Rises=F Damp=F
 DIIS: error= 2.94D-07 at cycle   9 NSaved=   9.
 NSaved= 9 IEnMin= 9 EnMin= -152.097276962533     IErMin= 9 ErrMin= 2.94D-07
 ErrMax= 2.94D-07  0.00D+00 EMaxC= 1.00D-01 BMatC= 9.21D-12 BMatP= 1.41D-10
 IDIUse=1 WtCom= 1.00D+00 WtEn= 0.00D+00
 Coeff-Com:  0.798D-06 0.219D-04 0.887D-04-0.171D-02 0.578D-02 0.793D-02
 Coeff-Com: -0.117D+00 0.267D+00 0.838D+00
 Coeff:      0.798D-06 0.219D-04 0.887D-04-0.171D-02 0.578D-02 0.793D-02
 Coeff:     -0.117D+00 0.267D+00 0.838D+00
 Gap=     0.619 Goal=   None    Shift=    0.000
 RMSDP=1.82D-08 MaxDP=4.11D-07 DE=-3.16D-10 OVMax= 1.07D-06

 Cycle  10  Pass 1  IDiag  1:
 E= -152.097276962543     Delta-E=       -0.000000000011 Rises=F Damp=F
 DIIS: error= 1.18D-07 at cycle  10 NSaved=  10.
 NSaved=10 IEnMin=10 EnMin= -152.097276962543     IErMin=10 ErrMin= 1.18D-07
 ErrMax= 1.18D-07  0.00D+00 EMaxC= 1.00D-01 BMatC= 1.16D-12 BMatP= 9.21D-12
 IDIUse=1 WtCom= 1.00D+00 WtEn= 0.00D+00
 Coeff-Com: -0.948D-06-0.315D-05-0.183D-04 0.590D-03-0.205D-02-0.336D-02
 Coeff-Com:  0.541D-01-0.202D+00 0.815D-01 0.107D+01
 Coeff:     -0.948D-06-0.315D-05-0.183D-04 0.590D-03-0.205D-02-0.336D-02
 Coeff:      0.541D-01-0.202D+00 0.815D-01 0.107D+01
 Gap=     0.619 Goal=   None    Shift=    0.000
 RMSDP=1.05D-08 MaxDP=2.51D-07 DE=-1.09D-11 OVMax= 5.93D-07

 Cycle  11  Pass 1  IDiag  1:
 E= -152.097276962546     Delta-E=       -0.000000000002 Rises=F Damp=F
 DIIS: error= 2.46D-08 at cycle  11 NSaved=  11.
 NSaved=11 IEnMin=11 EnMin= -152.097276962546     IErMin=11 ErrMin= 2.46D-08
 ErrMax= 2.46D-08  0.00D+00 EMaxC= 1.00D-01 BMatC= 2.38D-14 BMatP= 1.16D-12
 IDIUse=1 WtCom= 1.00D+00 WtEn= 0.00D+00
 Coeff-Com:  0.227D-06-0.370D-06-0.183D-07-0.759D-04 0.264D-03 0.411D-03
 Coeff-Com: -0.791D-02 0.354D-01-0.531D-01-0.249D+00 0.127D+01
 Coeff:      0.227D-06-0.370D-06-0.183D-07-0.759D-04 0.264D-03 0.411D-03
 Coeff:     -0.791D-02 0.354D-01-0.531D-01-0.249D+00 0.127D+01
 Gap=     0.619 Goal=   None    Shift=    0.000
 RMSDP=4.23D-09 MaxDP=1.31D-07 DE=-2.27D-12 OVMax= 1.61D-07

 SCF Done:  E(RHF) =  -152.097276963     A.U. after   11 cycles
            NFock= 11  Conv=0.42D-08     -V/T= 2.0017
 KE= 1.518406374819D+02 PE=-4.339073103068D+02 EE= 9.394969662477D+01
 Leave Link  502 at Sat Aug 27 01:29:33 2022, MaxMem=   536870912 cpu:               4.4 elap:               1.2
 (Enter /usr/site/hpc/x86_64/glibc-2.17/broadwell/gaussian/g16_a.03/pgi-16.5/g16/l801.exe)
 Windowed orbitals will be sorted by symmetry type.
 ExpMin= 1.03D-01 ExpMax= 1.53D+04 ExpMxC= 5.22D+02 IAcc=3 IRadAn=         5 AccDes= 0.00D+00
 HarFok:  IExCor=  205 AccDes= 0.00D+00 IRadAn=         5 IDoV=-2 UseB2=F ITyADJ=14
 ICtDFT= 12500011 ScaDFX=  1.000000  1.000000  1.000000  1.000000
 Largest valence mixing into a core orbital is  1.12D-04
 Largest core mixing into a valence orbital is  1.82D-05
 Range of M.O.s used for correlation:     3   116
 NBasis=   116 NAE=    10 NBE=    10 NFC=     2 NFV=     0
 NROrb=    114 NOA=     8 NOB=     8 NVA=   106 NVB=   106
 Leave Link  801 at Sat Aug 27 01:29:33 2022, MaxMem=   536870912 cpu:               0.3 elap:               0.1
 (Enter /usr/site/hpc/x86_64/glibc-2.17/broadwell/gaussian/g16_a.03/pgi-16.5/g16/l804.exe)
 Closed-shell transformation, MDV=   536870912 ITran=4 ISComp=2.
 Unit  1 TFree=        834515 TCopy=        406125.
 Semi-Direct transformation.
 ModeAB=           2 MOrb=             8 LenV=     536363495
 LASXX=      2873146 LTotXX=     2873146 LenRXX=     2873146
 LTotAB=     2958132 MaxLAS=     7765680 LenRXY=     7765680
 NonZer=     7795776 LenScr=    12058624 LnRSAI=           0
 LnScr1=           0 LExtra=           0 Total=     22697450
 MaxDsk=          -1 SrtSym=           F ITran=            4
 DoSDTr:  NPSUse=  4
 JobTyp=0 Pass  1:  I=   1 to   8.
 (rs|ai) integrals will be sorted in core.
 Complete sort for first half transformation.
 First half transformation complete.
 Complete sort for second half transformation.
 Second half transformation complete.
 Spin components of T(2) and E(2):
     alpha-alpha T2 =       0.1577224830D-01 E2=     -0.6425272435D-01
     alpha-beta  T2 =       0.9269491557D-01 E2=     -0.3997569967D+00
     beta-beta   T2 =       0.1577224830D-01 E2=     -0.6425272435D-01
 ANorm=    0.1060301567D+01
 E2 =    -0.5282624454D+00 EUMP2 =    -0.15262553940793D+03
 Leave Link  804 at Sat Aug 27 01:29:35 2022, MaxMem=   536870912 cpu:               6.4 elap:               1.8
 (Enter /usr/site/hpc/x86_64/glibc-2.17/broadwell/gaussian/g16_a.03/pgi-16.5/g16/l913.exe)
 CIDS:  MDV=   536870912.
 Frozen-core window:  NFC=   2 NFV=   0.
 IFCWin=0 IBDFC=1 NFBD=     0     0 NFCmp=     0     0 NFFFC=     0     0
 Using DD3R+UMP44R for 1st iteration.
 Using DD4RQ for 2nd and later iterations.
 Keep R2 and R3 ints in memory in symmetry-blocked form, NReq=35357534.
 FoFCou: FMM=F IPFlag=           0 FMFlag=           0 FMFlg1=           0
         NFxFlg=           0 DoJE=F BraDBF=F KetDBF=F FulRan=T
         wScrn=  0.000000 ICntrl=       600 IOpCl=  0 I1Cent=           0 NGrid=           0
         NMat0=    1 NMatS0=   6786 NMatT0=    0 NMatD0=    1 NMtDS0=    0 NMtDT0=    0
 Petite list used in FoFCou.
 CIDS: In Core Option IDoMem=           1.
 CCSD(T)
 =======
 Iterations=  50 Convergence= 0.100D-06
 Produce multiple copies of IABC intergrals
 Iteration Nr.   1
 **********************
 DD1Dir will call FoFMem   1 times, MxPair=        72
 NAB=    36 NAA=     0 NBB=     0.
 MP4(R+Q)=  0.77676318D-02
 Maximum subspace dimension=  5
 A-vector RMS=  1.8412920D-03 Max=  8.5694476D-03 conv= 1.00D-05.
 RLE energy=       -0.5277293272
 E3=       -0.73056968D-02        EUMP3=      -0.15263284510D+03
 E4(DQ)=   -0.14606142D-02        UMP4(DQ)=   -0.15263430572D+03
 E4(SDQ)=  -0.46576837D-02        UMP4(SDQ)=  -0.15263750279D+03
 VARIATIONAL ENERGIES WITH THE FIRST-ORDER WAVEFUNCTION:
 DE(Corr)= -0.52772880     E(Corr)=     -152.62500576    
 NORM(A)=   0.10605737D+01
 Iteration Nr.   2
 **********************
 DD1Dir will call FoFMem   1 times, MxPair=        72
 NAB=    36 NAA=     0 NBB=     0.
 A-vector RMS=  2.1205207D-04 Max=  1.3028239D-03 conv= 1.00D-05.
 RLE energy=       -0.5389876315
 DE(Corr)= -0.53785630     E(CORR)=     -152.63513326     Delta=-1.01D-02
 NORM(A)=   0.10644299D+01
 Iteration Nr.   3
 **********************
 DD1Dir will call FoFMem   1 times, MxPair=        72
 NAB=    36 NAA=     0 NBB=     0.
 A-vector RMS=  1.7342314D-04 Max=  1.7607072D-03 conv= 1.00D-05.
 RLE energy=       -0.5394982508
 DE(Corr)= -0.53888835     E(CORR)=     -152.63616531     Delta=-1.03D-03
 NORM(A)=   0.10650951D+01
 Iteration Nr.   4
 **********************
 DD1Dir will call FoFMem   1 times, MxPair=        72
 NAB=    36 NAA=     0 NBB=     0.
 A-vector RMS=  3.5827795D-05 Max=  2.4506362D-04 conv= 1.00D-05.
 RLE energy=       -0.5395789215
 DE(Corr)= -0.53954300     E(CORR)=     -152.63681996     Delta=-6.55D-04
 NORM(A)=   0.10652194D+01
 Iteration Nr.   5
 **********************
 DD1Dir will call FoFMem   1 times, MxPair=        72
 NAB=    36 NAA=     0 NBB=     0.
 A-vector RMS=  2.5868291D-05 Max=  3.2710462D-04 conv= 1.00D-05.
 RLE energy=       -0.5395935191
 DE(Corr)= -0.53958464     E(CORR)=     -152.63686160     Delta=-4.16D-05
 NORM(A)=   0.10652370D+01
 Iteration Nr.   6
 **********************
 DD1Dir will call FoFMem   1 times, MxPair=        72
 NAB=    36 NAA=     0 NBB=     0.
 A-vector RMS=  7.7788754D-06 Max=  8.4108731D-05 conv= 1.00D-05.
 RLE energy=       -0.5395833491
 DE(Corr)= -0.53958881     E(CORR)=     -152.63686578     Delta=-4.17D-06
 NORM(A)=   0.10652378D+01
 Iteration Nr.   7
 **********************
 DD1Dir will call FoFMem   1 times, MxPair=        72
 NAB=    36 NAA=     0 NBB=     0.
 A-vector RMS=  3.3858270D-06 Max=  4.0881441D-05 conv= 1.00D-05.
 RLE energy=       -0.5395879024
 DE(Corr)= -0.53958902     E(CORR)=     -152.63686598     Delta=-2.09D-07
 NORM(A)=   0.10652403D+01
 Iteration Nr.   8
 **********************
 DD1Dir will call FoFMem   1 times, MxPair=        72
 NAB=    36 NAA=     0 NBB=     0.
 A-vector RMS=  1.2331513D-06 Max=  1.3557088D-05 conv= 1.00D-05.
 RLE energy=       -0.5395881085
 DE(Corr)= -0.53958839     E(CORR)=     -152.63686536     Delta= 6.27D-07
 NORM(A)=   0.10652408D+01
 Iteration Nr.   9
 **********************
 DD1Dir will call FoFMem   1 times, MxPair=        72
 NAB=    36 NAA=     0 NBB=     0.
 A-vector RMS=  2.1400116D-07 Max=  2.2546183D-06 conv= 1.00D-05.
 RLE energy=       -0.5395884306
 DE(Corr)= -0.53958851     E(CORR)=     -152.63686547     Delta=-1.12D-07
 NORM(A)=   0.10652413D+01
 Iteration Nr.  10
 **********************
 DD1Dir will call FoFMem   1 times, MxPair=        72
 NAB=    36 NAA=     0 NBB=     0.
 A-vector RMS=  9.7469446D-08 Max=  1.2118023D-06 conv= 1.00D-05.
 RLE energy=       -0.5395886967
 DE(Corr)= -0.53958868     E(CORR)=     -152.63686564     Delta=-1.69D-07
 NORM(A)=   0.10652415D+01
 Iteration Nr.  11
 **********************
 DD1Dir will call FoFMem   1 times, MxPair=        72
 NAB=    36 NAA=     0 NBB=     0.
 A-vector RMS=  3.3886060D-08 Max=  4.0463244D-07 conv= 1.00D-05.
 RLE energy=       -0.5395887737
 DE(Corr)= -0.53958875     E(CORR)=     -152.63686571     Delta=-7.45D-08
 NORM(A)=   0.10652416D+01
 CI/CC converged in   11 iterations to DelEn=-7.45D-08 Conv= 1.00D-07 ErrA1= 3.39D-08 Conv= 1.00D-05
 Wavefunction amplitudes converged. E(Corr)=     -152.63686571    
 Largest amplitude= 2.44D-02
 IPart=  4 IA=    7   11.05% done.
 IPart=  2 IA=   13   21.46% done.
 IPart=  4 IA=   19   31.21% done.
 IPart=  3 IA=   25   40.32% done.
 IPart=  1 IA=   32   50.13% done.
 IPart=  1 IA=   40   60.27% done.
 IPart=  3 IA=   49   70.30% done.
 IPart=  1 IA=   60   80.58% done.
 IPart=  3 IA=   74   90.51% done.
 Time for triples=       51.67 seconds.
 T4(CCSD)= -0.16427692D-01
 T5(CCSD)=  0.43515396D-03
 CCSD(T)= -0.15265285825D+03
 Discarding MO integrals.
 Leave Link  913 at Sat Aug 27 01:29:55 2022, MaxMem=   536870912 cpu:              76.5 elap:              19.9
 (Enter /usr/site/hpc/x86_64/glibc-2.17/broadwell/gaussian/g16_a.03/pgi-16.5/g16/l601.exe)
 Copying SCF densities to generalized density rwf, IOpCl= 0 IROHF=0.

 **********************************************************************

            Population analysis using the SCF density.

 **********************************************************************

 Orbital symmetries:
       Occupied  (A') (A') (A') (A') (A') (A') (A') (A') (A") (A")
       Virtual   (A') (A') (A') (A') (A') (A') (A') (A') (A') (A')
                 (A") (A') (A') (A") (A") (A") (A') (A") (A') (A")
                 (A') (A') (A') (A') (A') (A') (A') (A') (A") (A")
                 (A') (A") (A") (A') (A') (A') (A') (A') (A') (A')
                 (A') (A') (A") (A") (A') (A') (A") (A") (A') (A')
                 (A") (A") (A') (A') (A') (A") (A") (A") (A') (A')
                 (A") (A') (A') (A') (A") (A") (A') (A') (A') (A')
                 (A") (A") (A') (A') (A') (A') (A') (A') (A') (A')
                 (A") (A") (A') (A') (A") (A") (A") (A") (A') (A')
                 (A") (A") (A') (A') (A') (A') (A") (A") (A') (A')
                 (A') (A') (A') (A') (A') (A')
 The electronic state is 1-A'.
 Alpha  occ. eigenvalues --  -20.53430 -20.53404  -1.31070  -1.30547  -0.68428
 Alpha  occ. eigenvalues --   -0.68062  -0.56257  -0.51443  -0.48327  -0.47396
 Alpha virt. eigenvalues --    0.14459   0.17176   0.20565   0.22148   0.50797
 Alpha virt. eigenvalues --    0.58604   0.58806   0.61840   0.71688   0.76510
 Alpha virt. eigenvalues --    0.76940   0.78461   0.80019   0.83571   0.86350
 Alpha virt. eigenvalues --    0.86396   0.89870   0.94675   1.06875   1.07612
 Alpha virt. eigenvalues --    1.14641   1.16167   1.29176   1.42904   1.52250
 Alpha virt. eigenvalues --    1.52895   1.54646   1.55052   2.01637   2.04020
 Alpha virt. eigenvalues --    2.07904   2.08629   2.08872   2.15883   2.17931
 Alpha virt. eigenvalues --    2.31046   2.32119   2.37105   2.63279   2.63690
 Alpha virt. eigenvalues --    2.94951   2.96756   3.41090   3.41271   3.51196
 Alpha virt. eigenvalues --    3.52741   3.54852   3.54880   3.61107   3.61987
 Alpha virt. eigenvalues --    3.80254   3.81040   3.87180   3.88771   3.89939
 Alpha virt. eigenvalues --    3.95302   3.95346   4.01076   4.03740   4.08245
 Alpha virt. eigenvalues --    4.10392   4.14091   4.16851   4.19265   4.31845
 Alpha virt. eigenvalues --    4.32117   4.42823   4.46608   4.47236   4.49532
 Alpha virt. eigenvalues --    4.67291   4.70356   4.81830   4.92013   5.06463
 Alpha virt. eigenvalues --    5.06677   5.21914   5.36409   5.56484   5.61171
 Alpha virt. eigenvalues --    6.00020   6.00128   6.42030   6.42771   6.88172
 Alpha virt. eigenvalues --    6.88377   6.91626   6.91678   6.96326   6.99843
 Alpha virt. eigenvalues --    7.00790   7.01855   7.09453   7.13814   7.17457
 Alpha virt. eigenvalues --    7.17957   7.20277   7.20616   7.49803   7.50179
 Alpha virt. eigenvalues --    7.72562   7.74242   8.15591   8.24429  12.51155
 Alpha virt. eigenvalues --   12.64513
          Condensed to atoms (all electrons):
               1          2          3          4          5          6
     1  O    7.821551   0.323291   0.327578  -0.011253   0.001282   0.002403
     2  H    0.323291   0.474307  -0.029601   0.001628  -0.000139  -0.000261
     3  H    0.327578  -0.029601   0.466514   0.001918  -0.000174  -0.000215
     4  O   -0.011253   0.001628   0.001918   7.821392   0.321486   0.328703
     5  H    0.001282  -0.000139  -0.000174   0.321486   0.476555  -0.029517
     6  H    0.002403  -0.000261  -0.000215   0.328703  -0.029517   0.465424
 Mulliken charges:
               1
     1  O   -0.464852
     2  H    0.230774
     3  H    0.233979
     4  O   -0.463874
     5  H    0.230507
     6  H    0.233465
 Sum of Mulliken charges =  -0.00000
 Mulliken charges with hydrogens summed into heavy atoms:
               1
     1  O   -0.000098
     4  O    0.000098
 Electronic spatial extent (au):  <R**2>=            183.8753
 Charge=             -0.0000 electrons
 Dipole moment (field-independent basis, Debye):
    X=             -0.2385    Y=             -0.0185    Z=              0.0000  Tot=              0.2392
 Quadrupole moment (field-independent basis, Debye-Ang):
   XX=             -7.9764   YY=             -1.8709   ZZ=            -14.7168
   XY=             -0.1291   XZ=              0.0000   YZ=              0.0000
 Traceless Quadrupole moment (field-independent basis, Debye-Ang):
   XX=              0.2116   YY=              6.3172   ZZ=             -6.5288
   XY=             -0.1291   XZ=              0.0000   YZ=              0.0000
 Octapole moment (field-independent basis, Debye-Ang**2):
  XXX=             -0.5279  YYY=              0.0878  ZZZ=              0.0000  XYY=              0.5736
  XXY=             -0.1227  XXZ=              0.0000  XZZ=             -0.0269  YZZ=             -0.0027
  YYZ=              0.0000  XYZ=              0.0000
 Hexadecapole moment (field-independent basis, Debye-Ang**3):
 XXXX=            -11.6520 YYYY=           -115.9641 ZZZZ=            -11.3590 XXXY=             -0.6980
 XXXZ=              0.0000 YYYX=              2.3502 YYYZ=              0.0000 ZZZX=              0.0000
 ZZZY=              0.0000 XXYY=            -12.7712 XXZZ=             -4.6257 YYZZ=            -34.4661
 XXYZ=              0.0000 YYXZ=              0.0000 ZZXY=              0.0753
 N-N= 3.601969923752D+01 E-N=-4.339073103371D+02  KE= 1.518406374819D+02
 Symmetry A'   KE= 1.428108670370D+02
 Symmetry A"   KE= 9.029770444898D+00
 Leave Link  601 at Sat Aug 27 01:29:55 2022, MaxMem=   536870912 cpu:               0.2 elap:               0.1
 (Enter /usr/site/hpc/x86_64/glibc-2.17/broadwell/gaussian/g16_a.03/pgi-16.5/g16/l9999.exe)
 1\1\GINC-N003\SP\RCCSD(T)-FC\CC-pVTZ\H4O2\C7441284\27-Aug-2022\0\\#p C
 CSD(T)/cc-pVTZ\\H2O_H2O_1027\\0,1\O,0,0.,-0.009833,0.\H,0,-0.799571,-0
 .580965,0.\H,0,0.799571,-0.580965,0.\O,0,-0.001283,2.687545,0.\H,0,0.7
 169,3.358156,0.\H,0,-0.868562,3.149426,0.\\Version=ES64L-G16RevA.03\St
 ate=1-A'\HF=-152.097277\MP2=-152.6255394\MP3=-152.6328451\MP4D=-152.64
 20734\MP4DQ=-152.6343057\MP4SDQ=-152.6375028\CCSD=-152.6368657\CCSD(T)
 =-152.6528583\RMSD=4.233e-09\PG=CS [SG(H4O2)]\\@


 A MAN SHOULD NEVER BE ASHAMED TO OWN HE HAS BEEN IN THE WRONG
 WHICH IS BUT SAYING IN OTHER WORDS,
 THAT HE IS WISER TODAY THAN HE WAS YESTERDAY.

                          -- JONATHAN SWIFT
 Job cpu time:       0 days  0 hours  1 minutes 31.1 seconds.
 Elapsed time:       0 days  0 hours  0 minutes 24.1 seconds.
 File lengths (MBytes):  RWF=    572 Int=      0 D2E=      0 Chk=      8 Scr=      8
 Normal termination of Gaussian 16 at Sat Aug 27 01:29:55 2022.
