 Entering Gaussian System, Link 0=g16
 Input=H2O_H2O_3494.com
 Output=H2O_H2O_3494.log
 Initial command:
 /usr/site/hpc/x86_64/glibc-2.17/broadwell/gaussian/g16_a.03/pgi-16.5/g16/l1.exe "/gpfs/gpfs1/scratch/c7441284/ForceFieldModel/FittingData/Gau-3846449.inp" -scrdir="/gpfs/gpfs1/scratch/c7441284/ForceFieldModel/FittingData/"
 Entering Link 1 = /usr/site/hpc/x86_64/glibc-2.17/broadwell/gaussian/g16_a.03/pgi-16.5/g16/l1.exe PID=   3846450.
  
 Copyright (c) 1988,1990,1992,1993,1995,1998,2003,2009,2016,
            Gaussian, Inc.  All Rights Reserved.
  
 This is part of the Gaussian(R) 16 program.  It is based on
 the Gaussian(R) 09 system (copyright 2009, Gaussian, Inc.),
 the Gaussian(R) 03 system (copyright 2003, Gaussian, Inc.),
 the Gaussian(R) 98 system (copyright 1998, Gaussian, Inc.),
 the Gaussian(R) 94 system (copyright 1995, Gaussian, Inc.),
 the Gaussian 92(TM) system (copyright 1992, Gaussian, Inc.),
 the Gaussian 90(TM) system (copyright 1990, Gaussian, Inc.),
 the Gaussian 88(TM) system (copyright 1988, Gaussian, Inc.),
 the Gaussian 86(TM) system (copyright 1986, Carnegie Mellon
 University), and the Gaussian 82(TM) system (copyright 1983,
 Carnegie Mellon University). Gaussian is a federally registered
 trademark of Gaussian, Inc.
  
 This software contains proprietary and confidential information,
 including trade secrets, belonging to Gaussian, Inc.
  
 This software is provided under written license and may be
 used, copied, transmitted, or stored only in accord with that
 written license.
  
 The following legend is applicable only to US Government
 contracts under FAR:
  
                    RESTRICTED RIGHTS LEGEND
  
 Use, reproduction and disclosure by the US Government is
 subject to restrictions as set forth in subparagraphs (a)
 and (c) of the Commercial Computer Software - Restricted
 Rights clause in FAR 52.227-19.
  
 Gaussian, Inc.
 340 Quinnipiac St., Bldg. 40, Wallingford CT 06492
  
  
 ---------------------------------------------------------------
 Warning -- This program may not be used in any manner that
 competes with the business of Gaussian, Inc. or will provide
 assistance to any competitor of Gaussian, Inc.  The licensee
 of this program is prohibited from giving any competitor of
 Gaussian, Inc. access to this program.  By using this program,
 the user acknowledges that Gaussian, Inc. is engaged in the
 business of creating and licensing software in the field of
 computational chemistry and represents and warrants to the
 licensee that it is not a competitor of Gaussian, Inc. and that
 it will not use this program in any manner prohibited above.
 ---------------------------------------------------------------
  

 Cite this work as:
 Gaussian 16, Revision A.03,
 M. J. Frisch, G. W. Trucks, H. B. Schlegel, G. E. Scuseria, 
 M. A. Robb, J. R. Cheeseman, G. Scalmani, V. Barone, 
 G. A. Petersson, H. Nakatsuji, X. Li, M. Caricato, A. V. Marenich, 
 J. Bloino, B. G. Janesko, R. Gomperts, B. Mennucci, H. P. Hratchian, 
 J. V. Ortiz, A. F. Izmaylov, J. L. Sonnenberg, D. Williams-Young, 
 F. Ding, F. Lipparini, F. Egidi, J. Goings, B. Peng, A. Petrone, 
 T. Henderson, D. Ranasinghe, V. G. Zakrzewski, J. Gao, N. Rega, 
 G. Zheng, W. Liang, M. Hada, M. Ehara, K. Toyota, R. Fukuda, 
 J. Hasegawa, M. Ishida, T. Nakajima, Y. Honda, O. Kitao, H. Nakai, 
 T. Vreven, K. Throssell, J. A. Montgomery, Jr., J. E. Peralta, 
 F. Ogliaro, M. J. Bearpark, J. J. Heyd, E. N. Brothers, K. N. Kudin, 
 V. N. Staroverov, T. A. Keith, R. Kobayashi, J. Normand, 
 K. Raghavachari, A. P. Rendell, J. C. Burant, S. S. Iyengar, 
 J. Tomasi, M. Cossi, J. M. Millam, M. Klene, C. Adamo, R. Cammi, 
 J. W. Ochterski, R. L. Martin, K. Morokuma, O. Farkas, 
 J. B. Foresman, and D. J. Fox, Gaussian, Inc., Wallingford CT, 2016.
 
 ******************************************
 Gaussian 16:  ES64L-G16RevA.03 25-Dec-2016
                26-Aug-2022 
 ******************************************
 %NProcShared=4
 Will use up to    4 processors via shared memory.
 %Mem=4GB
 %Chk=H2O_H2O_3494.chk
 ------------------
 #p CCSD(T)/cc-pVTZ
 ------------------
 1/38=1,172=1/1;
 2/12=2,17=6,18=5,40=1/2;
 3/5=16,6=1,11=9,25=1,30=1/1,2,3;
 4//1;
 5/5=2,38=5/2;
 8/6=4,9=120000,10=1/1,4;
 9/5=7,14=2/13;
 6/7=2,8=2,9=2,10=2/1;
 99/5=1,9=1/99;
 Leave Link    1 at Fri Aug 26 22:47:39 2022, MaxMem=   536870912 cpu:               0.3 elap:               0.1
 (Enter /usr/site/hpc/x86_64/glibc-2.17/broadwell/gaussian/g16_a.03/pgi-16.5/g16/l101.exe)
 ------------
 H2O_H2O_3494
 ------------
 Symbolic Z-matrix:
 Charge =  0 Multiplicity = 1
 O                     0.       -0.00983   0. 
 H                    -0.79957  -0.58097   0. 
 H                     0.79957  -0.58097   0. 
 O                    -0.00931   5.28695   0. 
 H                    -0.29312   6.22768   0. 
 H                    -0.80715   4.7134    0. 
 
 ITRead=  0  0  0  0  0  0
 MicOpt= -1 -1 -1 -1 -1 -1
 NAtoms=      6 NQM=        6 NQMF=       0 NMMI=      0 NMMIF=      0
                NMic=       0 NMicF=      0.
                    Isotopes and Nuclear Properties:
 (Nuclear quadrupole moments (NQMom) in fm**2, nuclear magnetic moments (NMagM)
  in nuclear magnetons)

  Atom         1           2           3           4           5           6
 IAtWgt=          16           1           1          16           1           1
 AtmWgt=  15.9949146   1.0078250   1.0078250  15.9949146   1.0078250   1.0078250
 NucSpn=           0           1           1           0           1           1
 AtZEff=  -0.0000000  -0.0000000  -0.0000000  -0.0000000  -0.0000000  -0.0000000
 NQMom=    0.0000000   0.0000000   0.0000000   0.0000000   0.0000000   0.0000000
 NMagM=    0.0000000   2.7928460   2.7928460   0.0000000   2.7928460   2.7928460
 AtZNuc=   8.0000000   1.0000000   1.0000000   8.0000000   1.0000000   1.0000000
 Leave Link  101 at Fri Aug 26 22:47:39 2022, MaxMem=   536870912 cpu:               0.4 elap:               0.1
 (Enter /usr/site/hpc/x86_64/glibc-2.17/broadwell/gaussian/g16_a.03/pgi-16.5/g16/l202.exe)
                          Input orientation:                          
 ---------------------------------------------------------------------
 Center     Atomic      Atomic             Coordinates (Angstroms)
 Number     Number       Type             X           Y           Z
 ---------------------------------------------------------------------
      1          8           0        0.000000   -0.009833    0.000000
      2          1           0       -0.799571   -0.580965    0.000000
      3          1           0        0.799571   -0.580965    0.000000
      4          8           0       -0.009311    5.286955    0.000000
      5          1           0       -0.293120    6.227678    0.000000
      6          1           0       -0.807147    4.713401    0.000000
 ---------------------------------------------------------------------
                    Distance matrix (angstroms):
                    1          2          3          4          5
     1  O    0.000000
     2  H    0.982601   0.000000
     3  H    0.982601   1.599142   0.000000
     4  O    5.296796   5.920895   5.923409   0.000000
     5  H    6.244395   6.827453   6.895766   0.982602   0.000000
     6  H    4.791704   5.294371   5.532798   0.982602   1.599143
                    6
     6  H    0.000000
 Stoichiometry    H4O2
 Framework group  CS[SG(H4O2)]
 Deg. of freedom     9
 Full point group                 CS      NOp   2
 Largest Abelian subgroup         CS      NOp   2
 Largest concise Abelian subgroup C1      NOp   1
                         Standard orientation:                         
 ---------------------------------------------------------------------
 Center     Atomic      Atomic             Coordinates (Angstroms)
 Number     Number       Type             X           Y           Z
 ---------------------------------------------------------------------
      1          8           0        0.054150   -2.609738    0.000000
      2          1           0       -0.746423   -3.179464    0.000000
      3          1           0        0.852716   -3.182275    0.000000
      4          8           0        0.054150    2.687058    0.000000
      5          1           0       -0.228005    3.628278    0.000000
      6          1           0       -0.744693    2.114907    0.000000
 ---------------------------------------------------------------------
 Rotational constants (GHZ):         259.0726926           1.9244315           1.9102420
 Leave Link  202 at Fri Aug 26 22:47:39 2022, MaxMem=   536870912 cpu:               0.1 elap:               0.0
 (Enter /usr/site/hpc/x86_64/glibc-2.17/broadwell/gaussian/g16_a.03/pgi-16.5/g16/l301.exe)
 Standard basis: CC-pVTZ (5D, 7F)
 Ernie: Thresh=  0.10000D-02 Tol=  0.10000D-05 Strict=F.
 Ernie:  6 primitive shells out of 84 were deleted.
 There are    92 symmetry adapted cartesian basis functions of A'  symmetry.
 There are    38 symmetry adapted cartesian basis functions of A"  symmetry.
 There are    80 symmetry adapted basis functions of A'  symmetry.
 There are    36 symmetry adapted basis functions of A"  symmetry.
   116 basis functions,   172 primitive gaussians,   130 cartesian basis functions
    10 alpha electrons       10 beta electrons
       nuclear repulsion energy        27.6302333092 Hartrees.
 IExCor=    0 DFT=F Ex=HF Corr=None ExCW=0 ScaHFX=  1.000000
 ScaDFX=  1.000000  1.000000  1.000000  1.000000 ScalE2=  1.000000  1.000000
 IRadAn=      5 IRanWt=     -1 IRanGd=            0 ICorTp=0 IEmpDi=  4
 NAtoms=    6 NActive=    6 NUniq=    6 SFac= 1.00D+00 NAtFMM=   60 NAOKFM=F Big=F
 Integral buffers will be    131072 words long.
 Raffenetti 1 integral format.
 Two-electron integral symmetry is turned on.
 Leave Link  301 at Fri Aug 26 22:47:39 2022, MaxMem=   536870912 cpu:               0.2 elap:               0.1
 (Enter /usr/site/hpc/x86_64/glibc-2.17/broadwell/gaussian/g16_a.03/pgi-16.5/g16/l302.exe)
 NPDir=0 NMtPBC=     1 NCelOv=     1 NCel=       1 NClECP=     1 NCelD=      1
         NCelK=      1 NCelE2=     1 NClLst=     1 CellRange=     0.0.
 One-electron integrals computed using PRISM.
 One-electron integral symmetry used in STVInt
 NBasis=   116 RedAO= T EigKep=  2.66D-03  NBF=    80    36
 NBsUse=   116 1.00D-06 EigRej= -1.00D+00 NBFU=    80    36
 Leave Link  302 at Fri Aug 26 22:47:39 2022, MaxMem=   536870912 cpu:               0.4 elap:               0.1
 (Enter /usr/site/hpc/x86_64/glibc-2.17/broadwell/gaussian/g16_a.03/pgi-16.5/g16/l303.exe)
 DipDrv:  MaxL=1.
 Leave Link  303 at Fri Aug 26 22:47:39 2022, MaxMem=   536870912 cpu:               0.1 elap:               0.0
 (Enter /usr/site/hpc/x86_64/glibc-2.17/broadwell/gaussian/g16_a.03/pgi-16.5/g16/l401.exe)
 ExpMin= 1.03D-01 ExpMax= 1.53D+04 ExpMxC= 5.22D+02 IAcc=3 IRadAn=         5 AccDes= 0.00D+00
 Harris functional with IExCor=  205 and IRadAn=       5 diagonalized for initial guess.
 HarFok:  IExCor=  205 AccDes= 0.00D+00 IRadAn=         5 IDoV= 1 UseB2=F ITyADJ=14
 ICtDFT=  3500011 ScaDFX=  1.000000  1.000000  1.000000  1.000000
 FoFCou: FMM=F IPFlag=           0 FMFlag=      100000 FMFlg1=           0
         NFxFlg=           0 DoJE=T BraDBF=F KetDBF=T FulRan=T
         wScrn=  0.000000 ICntrl=       500 IOpCl=  0 I1Cent=   200000004 NGrid=           0
         NMat0=    1 NMatS0=      1 NMatT0=    0 NMatD0=    1 NMtDS0=    0 NMtDT0=    0
 Petite list used in FoFCou.
 Harris En= -152.298684550851    
 JPrj=0 DoOrth=F DoCkMO=F.
 Initial guess orbital symmetries:
       Occupied  (A') (A') (A') (A') (A') (A') (A') (A') (A") (A")
       Virtual   (A') (A') (A') (A') (A') (A') (A') (A') (A') (A')
                 (A") (A") (A') (A') (A') (A') (A") (A") (A") (A")
                 (A') (A') (A') (A') (A') (A') (A') (A') (A") (A")
                 (A") (A") (A') (A') (A') (A') (A') (A') (A') (A')
                 (A') (A') (A") (A") (A') (A') (A") (A") (A") (A")
                 (A') (A') (A') (A') (A') (A') (A") (A") (A') (A')
                 (A') (A') (A") (A") (A") (A") (A') (A') (A') (A')
                 (A") (A") (A') (A') (A') (A') (A') (A') (A') (A')
                 (A") (A") (A') (A') (A") (A") (A") (A") (A') (A')
                 (A") (A") (A') (A') (A') (A') (A") (A") (A') (A')
                 (A') (A') (A') (A') (A') (A')
 The electronic state of the initial guess is 1-A'.
 Leave Link  401 at Fri Aug 26 22:47:39 2022, MaxMem=   536870912 cpu:               0.9 elap:               0.2
 (Enter /usr/site/hpc/x86_64/glibc-2.17/broadwell/gaussian/g16_a.03/pgi-16.5/g16/l502.exe)
 Keep R1 ints in memory in symmetry-blocked form, NReq=34823457.
 FoFCou: FMM=F IPFlag=           0 FMFlag=           0 FMFlg1=           0
         NFxFlg=           0 DoJE=F BraDBF=F KetDBF=F FulRan=T
         wScrn=  0.000000 ICntrl=       600 IOpCl=  0 I1Cent=           0 NGrid=           0
         NMat0=    1 NMatS0=   6786 NMatT0=    0 NMatD0=    1 NMtDS0=    0 NMtDT0=    0
 Petite list used in FoFCou.
 Closed shell SCF:
 Using DIIS extrapolation, IDIIS=  1040.
 NGot=   536870912 LenX=   525040673 LenY=   525023332
 Requested convergence on RMS density matrix=1.00D-08 within 128 cycles.
 Requested convergence on MAX density matrix=1.00D-06.
 Requested convergence on             energy=1.00D-06.
 No special actions if energy rises.

 Cycle   1  Pass 1  IDiag  1:
 E= -151.926817215198    
 DIIS: error= 6.58D-02 at cycle   1 NSaved=   1.
 NSaved= 1 IEnMin= 1 EnMin= -151.926817215198     IErMin= 1 ErrMin= 6.58D-02
 ErrMax= 6.58D-02  0.00D+00 EMaxC= 1.00D-01 BMatC= 4.00D-01 BMatP= 4.00D-01
 IDIUse=3 WtCom= 3.42D-01 WtEn= 6.58D-01
 Coeff-Com:  0.100D+01
 Coeff-En:   0.100D+01
 Coeff:      0.100D+01
 Gap=     0.517 Goal=   None    Shift=    0.000
 GapD=    0.517 DampG=2.000 DampE=0.500 DampFc=1.0000 IDamp=-1.
 RMSDP=2.51D-03 MaxDP=6.65D-02              OVMax= 1.27D-01

 Cycle   2  Pass 1  IDiag  1:
 E= -152.038656897892     Delta-E=       -0.111839682694 Rises=F Damp=F
 DIIS: error= 4.14D-02 at cycle   2 NSaved=   2.
 NSaved= 2 IEnMin= 2 EnMin= -152.038656897892     IErMin= 2 ErrMin= 4.14D-02
 ErrMax= 4.14D-02  0.00D+00 EMaxC= 1.00D-01 BMatC= 1.13D-01 BMatP= 4.00D-01
 IDIUse=3 WtCom= 5.86D-01 WtEn= 4.14D-01
 Coeff-Com:  0.320D+00 0.680D+00
 Coeff-En:   0.167D+00 0.833D+00
 Coeff:      0.257D+00 0.743D+00
 Gap=     0.656 Goal=   None    Shift=    0.000
 RMSDP=1.33D-03 MaxDP=3.96D-02 DE=-1.12D-01 OVMax= 5.73D-02

 Cycle   3  Pass 1  IDiag  1:
 E= -152.103642975047     Delta-E=       -0.064986077156 Rises=F Damp=F
 DIIS: error= 8.94D-03 at cycle   3 NSaved=   3.
 NSaved= 3 IEnMin= 3 EnMin= -152.103642975047     IErMin= 3 ErrMin= 8.94D-03
 ErrMax= 8.94D-03  0.00D+00 EMaxC= 1.00D-01 BMatC= 5.97D-03 BMatP= 1.13D-01
 IDIUse=3 WtCom= 9.11D-01 WtEn= 8.94D-02
 Coeff-Com: -0.305D-01 0.155D+00 0.875D+00
 Coeff-En:   0.000D+00 0.000D+00 0.100D+01
 Coeff:     -0.277D-01 0.141D+00 0.886D+00
 Gap=     0.629 Goal=   None    Shift=    0.000
 RMSDP=2.44D-04 MaxDP=5.69D-03 DE=-6.50D-02 OVMax= 1.34D-02

 Cycle   4  Pass 1  IDiag  1:
 E= -152.107366267425     Delta-E=       -0.003723292378 Rises=F Damp=F
 DIIS: error= 8.54D-04 at cycle   4 NSaved=   4.
 NSaved= 4 IEnMin= 4 EnMin= -152.107366267425     IErMin= 4 ErrMin= 8.54D-04
 ErrMax= 8.54D-04  0.00D+00 EMaxC= 1.00D-01 BMatC= 3.74D-05 BMatP= 5.97D-03
 IDIUse=3 WtCom= 9.91D-01 WtEn= 8.54D-03
 Coeff-Com:  0.680D-02-0.611D-01-0.239D+00 0.129D+01
 Coeff-En:   0.000D+00 0.000D+00 0.000D+00 0.100D+01
 Coeff:      0.674D-02-0.606D-01-0.237D+00 0.129D+01
 Gap=     0.631 Goal=   None    Shift=    0.000
 RMSDP=5.17D-05 MaxDP=1.03D-03 DE=-3.72D-03 OVMax= 2.24D-03

 Cycle   5  Pass 1  IDiag  1:
 E= -152.107416681429     Delta-E=       -0.000050414004 Rises=F Damp=F
 DIIS: error= 1.94D-04 at cycle   5 NSaved=   5.
 NSaved= 5 IEnMin= 5 EnMin= -152.107416681429     IErMin= 5 ErrMin= 1.94D-04
 ErrMax= 1.94D-04  0.00D+00 EMaxC= 1.00D-01 BMatC= 1.36D-06 BMatP= 3.74D-05
 IDIUse=3 WtCom= 9.98D-01 WtEn= 1.94D-03
 Coeff-Com:  0.552D-03 0.372D-03-0.319D-02-0.219D+00 0.122D+01
 Coeff-En:   0.000D+00 0.000D+00 0.000D+00 0.000D+00 0.100D+01
 Coeff:      0.550D-03 0.371D-03-0.318D-02-0.218D+00 0.122D+01
 Gap=     0.632 Goal=   None    Shift=    0.000
 RMSDP=1.41D-05 MaxDP=2.89D-04 DE=-5.04D-05 OVMax= 6.88D-04

 Cycle   6  Pass 1  IDiag  1:
 E= -152.107419519025     Delta-E=       -0.000002837596 Rises=F Damp=F
 DIIS: error= 2.85D-05 at cycle   6 NSaved=   6.
 NSaved= 6 IEnMin= 6 EnMin= -152.107419519025     IErMin= 6 ErrMin= 2.85D-05
 ErrMax= 2.85D-05  0.00D+00 EMaxC= 1.00D-01 BMatC= 3.40D-08 BMatP= 1.36D-06
 IDIUse=1 WtCom= 1.00D+00 WtEn= 0.00D+00
 Coeff-Com: -0.274D-03 0.158D-02 0.682D-02 0.119D-02-0.261D+00 0.125D+01
 Coeff:     -0.274D-03 0.158D-02 0.682D-02 0.119D-02-0.261D+00 0.125D+01
 Gap=     0.632 Goal=   None    Shift=    0.000
 RMSDP=3.01D-06 MaxDP=6.56D-05 DE=-2.84D-06 OVMax= 1.53D-04

 Cycle   7  Pass 1  IDiag  1:
 E= -152.107419615459     Delta-E=       -0.000000096434 Rises=F Damp=F
 DIIS: error= 5.37D-06 at cycle   7 NSaved=   7.
 NSaved= 7 IEnMin= 7 EnMin= -152.107419615459     IErMin= 7 ErrMin= 5.37D-06
 ErrMax= 5.37D-06  0.00D+00 EMaxC= 1.00D-01 BMatC= 1.77D-09 BMatP= 3.40D-08
 IDIUse=1 WtCom= 1.00D+00 WtEn= 0.00D+00
 Coeff-Com:  0.302D-04-0.389D-03-0.156D-02 0.137D-01-0.137D-01-0.222D+00
 Coeff-Com:  0.122D+01
 Coeff:      0.302D-04-0.389D-03-0.156D-02 0.137D-01-0.137D-01-0.222D+00
 Coeff:      0.122D+01
 Gap=     0.632 Goal=   None    Shift=    0.000
 RMSDP=4.38D-07 MaxDP=9.22D-06 DE=-9.64D-08 OVMax= 2.97D-05

 Cycle   8  Pass 1  IDiag  1:
 E= -152.107419619204     Delta-E=       -0.000000003745 Rises=F Damp=F
 DIIS: error= 1.60D-06 at cycle   8 NSaved=   8.
 NSaved= 8 IEnMin= 8 EnMin= -152.107419619204     IErMin= 8 ErrMin= 1.60D-06
 ErrMax= 1.60D-06  0.00D+00 EMaxC= 1.00D-01 BMatC= 1.01D-10 BMatP= 1.77D-09
 IDIUse=1 WtCom= 1.00D+00 WtEn= 0.00D+00
 Coeff-Com:  0.668D-05 0.198D-04 0.916D-04-0.418D-02 0.190D-01-0.704D-02
 Coeff-Com: -0.320D+00 0.131D+01
 Coeff:      0.668D-05 0.198D-04 0.916D-04-0.418D-02 0.190D-01-0.704D-02
 Coeff:     -0.320D+00 0.131D+01
 Gap=     0.632 Goal=   None    Shift=    0.000
 RMSDP=1.10D-07 MaxDP=2.47D-06 DE=-3.75D-09 OVMax= 6.74D-06

 Cycle   9  Pass 1  IDiag  1:
 E= -152.107419619423     Delta-E=       -0.000000000219 Rises=F Damp=F
 DIIS: error= 3.58D-07 at cycle   9 NSaved=   9.
 NSaved= 9 IEnMin= 9 EnMin= -152.107419619423     IErMin= 9 ErrMin= 3.58D-07
 ErrMax= 3.58D-07  0.00D+00 EMaxC= 1.00D-01 BMatC= 1.06D-11 BMatP= 1.01D-10
 IDIUse=1 WtCom= 1.00D+00 WtEn= 0.00D+00
 Coeff-Com:  0.637D-06 0.269D-04 0.111D-03-0.211D-02 0.732D-02 0.730D-02
 Coeff-Com: -0.158D+00 0.397D+00 0.748D+00
 Coeff:      0.637D-06 0.269D-04 0.111D-03-0.211D-02 0.732D-02 0.730D-02
 Coeff:     -0.158D+00 0.397D+00 0.748D+00
 Gap=     0.632 Goal=   None    Shift=    0.000
 RMSDP=1.69D-08 MaxDP=3.55D-07 DE=-2.19D-10 OVMax= 1.15D-06

 Cycle  10  Pass 1  IDiag  1:
 E= -152.107419619433     Delta-E=       -0.000000000010 Rises=F Damp=F
 DIIS: error= 9.67D-08 at cycle  10 NSaved=  10.
 NSaved=10 IEnMin=10 EnMin= -152.107419619433     IErMin=10 ErrMin= 9.67D-08
 ErrMax= 9.67D-08  0.00D+00 EMaxC= 1.00D-01 BMatC= 5.34D-13 BMatP= 1.06D-11
 IDIUse=1 WtCom= 1.00D+00 WtEn= 0.00D+00
 Coeff-Com: -0.610D-06-0.405D-05-0.197D-04 0.542D-03-0.200D-02-0.163D-02
 Coeff-Com:  0.497D-01-0.176D+00-0.708D-01 0.120D+01
 Coeff:     -0.610D-06-0.405D-05-0.197D-04 0.542D-03-0.200D-02-0.163D-02
 Coeff:      0.497D-01-0.176D+00-0.708D-01 0.120D+01
 Gap=     0.632 Goal=   None    Shift=    0.000
 RMSDP=6.93D-09 MaxDP=2.09D-07 DE=-1.00D-11 OVMax= 4.26D-07

 SCF Done:  E(RHF) =  -152.107419619     A.U. after   10 cycles
            NFock= 10  Conv=0.69D-08     -V/T= 2.0020
 KE= 1.518044859574D+02 PE=-4.167411372323D+02 EE= 8.519899834627D+01
 Leave Link  502 at Fri Aug 26 22:47:41 2022, MaxMem=   536870912 cpu:               4.6 elap:               1.3
 (Enter /usr/site/hpc/x86_64/glibc-2.17/broadwell/gaussian/g16_a.03/pgi-16.5/g16/l801.exe)
 Windowed orbitals will be sorted by symmetry type.
 ExpMin= 1.03D-01 ExpMax= 1.53D+04 ExpMxC= 5.22D+02 IAcc=3 IRadAn=         5 AccDes= 0.00D+00
 HarFok:  IExCor=  205 AccDes= 0.00D+00 IRadAn=         5 IDoV=-2 UseB2=F ITyADJ=14
 ICtDFT= 12500011 ScaDFX=  1.000000  1.000000  1.000000  1.000000
 Largest valence mixing into a core orbital is  1.12D-04
 Largest core mixing into a valence orbital is  1.77D-05
 Range of M.O.s used for correlation:     3   116
 NBasis=   116 NAE=    10 NBE=    10 NFC=     2 NFV=     0
 NROrb=    114 NOA=     8 NOB=     8 NVA=   106 NVB=   106
 Leave Link  801 at Fri Aug 26 22:47:41 2022, MaxMem=   536870912 cpu:               0.4 elap:               0.1
 (Enter /usr/site/hpc/x86_64/glibc-2.17/broadwell/gaussian/g16_a.03/pgi-16.5/g16/l804.exe)
 Closed-shell transformation, MDV=   536870912 ITran=4 ISComp=2.
 Unit  1 TFree=        834515 TCopy=        406125.
 Semi-Direct transformation.
 ModeAB=           4 MOrb=             8 LenV=     536377745
 LASXX=      2873146 LTotXX=     2873146 LenRXX=     5831278
 LTotAB=     2958132 MaxLAS=     5353440 LenRXY=           0
 NonZer=     8704424 LenScr=    13107200 LnRSAI=     5353440
 LnScr1=     8388608 LExtra=           0 Total=     32680526
 MaxDsk=          -1 SrtSym=           T ITran=            4
 DoSDTr:  NPSUse=  4
 JobTyp=0 Pass  1:  I=   1 to   8.
 (rs|ai) integrals will be sorted in core.
 Complete sort for first half transformation.
 First half transformation complete.
 Complete sort for second half transformation.
 Second half transformation complete.
 Spin components of T(2) and E(2):
     alpha-alpha T2 =       0.1556162462D-01 E2=     -0.6380304355D-01
     alpha-beta  T2 =       0.9191678836D-01 E2=     -0.3983061772D+00
     beta-beta   T2 =       0.1556162462D-01 E2=     -0.6380304355D-01
 ANorm=    0.1059735834D+01
 E2 =    -0.5259122643D+00 EUMP2 =    -0.15263333188376D+03
 Leave Link  804 at Fri Aug 26 22:47:42 2022, MaxMem=   536870912 cpu:               4.6 elap:               1.2
 (Enter /usr/site/hpc/x86_64/glibc-2.17/broadwell/gaussian/g16_a.03/pgi-16.5/g16/l913.exe)
 CIDS:  MDV=   536870912.
 Frozen-core window:  NFC=   2 NFV=   0.
 IFCWin=0 IBDFC=1 NFBD=     0     0 NFCmp=     0     0 NFFFC=     0     0
 Using DD3R+UMP44R for 1st iteration.
 Using DD4RQ for 2nd and later iterations.
 Keep R2 and R3 ints in memory in symmetry-blocked form, NReq=35357534.
 FoFCou: FMM=F IPFlag=           0 FMFlag=           0 FMFlg1=           0
         NFxFlg=           0 DoJE=F BraDBF=F KetDBF=F FulRan=T
         wScrn=  0.000000 ICntrl=       600 IOpCl=  0 I1Cent=           0 NGrid=           0
         NMat0=    1 NMatS0=   6786 NMatT0=    0 NMatD0=    1 NMtDS0=    0 NMtDT0=    0
 Petite list used in FoFCou.
 CIDS: In Core Option IDoMem=           1.
 CCSD(T)
 =======
 Iterations=  50 Convergence= 0.100D-06
 Produce multiple copies of IABC intergrals
 Iteration Nr.   1
 **********************
 DD1Dir will call FoFMem   1 times, MxPair=        72
 NAB=    36 NAA=     0 NBB=     0.
 MP4(R+Q)=  0.75546864D-02
 Maximum subspace dimension=  5
 A-vector RMS=  1.7425324D-03 Max=  6.2016596D-03 conv= 1.00D-05.
 RLE energy=       -0.5258526367
 E3=       -0.75662954D-02        EUMP3=      -0.15264089818D+03
 E4(DQ)=   -0.15518426D-02        UMP4(DQ)=   -0.15264245002D+03
 E4(SDQ)=  -0.46082325D-02        UMP4(SDQ)=  -0.15264550641D+03
 VARIATIONAL ENERGIES WITH THE FIRST-ORDER WAVEFUNCTION:
 DE(Corr)= -0.52585264     E(Corr)=     -152.63327226    
 NORM(A)=   0.10601033D+01
 Iteration Nr.   2
 **********************
 DD1Dir will call FoFMem   1 times, MxPair=        72
 NAB=    36 NAA=     0 NBB=     0.
 A-vector RMS=  2.1225363D-04 Max=  2.3219575D-03 conv= 1.00D-05.
 RLE energy=       -0.5369152228
 DE(Corr)= -0.53575519     E(CORR)=     -152.64317481     Delta=-9.90D-03
 NORM(A)=   0.10638525D+01
 Iteration Nr.   3
 **********************
 DD1Dir will call FoFMem   1 times, MxPair=        72
 NAB=    36 NAA=     0 NBB=     0.
 A-vector RMS=  1.4125065D-04 Max=  8.5126448D-04 conv= 1.00D-05.
 RLE energy=       -0.5374110540
 DE(Corr)= -0.53682512     E(CORR)=     -152.64424474     Delta=-1.07D-03
 NORM(A)=   0.10644907D+01
 Iteration Nr.   4
 **********************
 DD1Dir will call FoFMem   1 times, MxPair=        72
 NAB=    36 NAA=     0 NBB=     0.
 A-vector RMS=  2.5944708D-05 Max=  1.4112886D-04 conv= 1.00D-05.
 RLE energy=       -0.5374942079
 DE(Corr)= -0.53745890     E(CORR)=     -152.64487852     Delta=-6.34D-04
 NORM(A)=   0.10646016D+01
 Iteration Nr.   5
 **********************
 DD1Dir will call FoFMem   1 times, MxPair=        72
 NAB=    36 NAA=     0 NBB=     0.
 A-vector RMS=  1.8765559D-05 Max=  1.5815460D-04 conv= 1.00D-05.
 RLE energy=       -0.5375026207
 DE(Corr)= -0.53749584     E(CORR)=     -152.64491546     Delta=-3.69D-05
 NORM(A)=   0.10646111D+01
 Iteration Nr.   6
 **********************
 DD1Dir will call FoFMem   1 times, MxPair=        72
 NAB=    36 NAA=     0 NBB=     0.
 A-vector RMS=  5.5491644D-06 Max=  4.2509212D-05 conv= 1.00D-05.
 RLE energy=       -0.5374934452
 DE(Corr)= -0.53749902     E(CORR)=     -152.64491864     Delta=-3.18D-06
 NORM(A)=   0.10646112D+01
 Iteration Nr.   7
 **********************
 DD1Dir will call FoFMem   1 times, MxPair=        72
 NAB=    36 NAA=     0 NBB=     0.
 A-vector RMS=  2.6596795D-06 Max=  2.2800759D-05 conv= 1.00D-05.
 RLE energy=       -0.5375001640
 DE(Corr)= -0.53749917     E(CORR)=     -152.64491879     Delta=-1.44D-07
 NORM(A)=   0.10646136D+01
 Iteration Nr.   8
 **********************
 DD1Dir will call FoFMem   1 times, MxPair=        72
 NAB=    36 NAA=     0 NBB=     0.
 A-vector RMS=  5.4150644D-07 Max=  4.6878933D-06 conv= 1.00D-05.
 RLE energy=       -0.5374985647
 DE(Corr)= -0.53749873     E(CORR)=     -152.64491835     Delta= 4.34D-07
 NORM(A)=   0.10646137D+01
 Iteration Nr.   9
 **********************
 DD1Dir will call FoFMem   1 times, MxPair=        72
 NAB=    36 NAA=     0 NBB=     0.
 A-vector RMS=  1.3157056D-07 Max=  8.8804971D-07 conv= 1.00D-05.
 RLE energy=       -0.5374990143
 DE(Corr)= -0.53749901     E(CORR)=     -152.64491863     Delta=-2.80D-07
 NORM(A)=   0.10646140D+01
 Iteration Nr.  10
 **********************
 DD1Dir will call FoFMem   1 times, MxPair=        72
 NAB=    36 NAA=     0 NBB=     0.
 A-vector RMS=  4.9255176D-08 Max=  4.2062817D-07 conv= 1.00D-05.
 RLE energy=       -0.5374990255
 DE(Corr)= -0.53749900     E(CORR)=     -152.64491862     Delta= 1.53D-08
 NORM(A)=   0.10646140D+01
 CI/CC converged in   10 iterations to DelEn= 1.53D-08 Conv= 1.00D-07 ErrA1= 4.93D-08 Conv= 1.00D-05
 Wavefunction amplitudes converged. E(Corr)=     -152.64491862    
 Largest amplitude= 4.79D-02
 IPart=  3 IA=    7   11.05% done.
 IPart=  4 IA=   13   21.46% done.
 IPart=  3 IA=   19   31.21% done.
 IPart=  4 IA=   25   40.32% done.
 IPart=  1 IA=   32   50.13% done.
 IPart=  1 IA=   40   60.27% done.
 IPart=  4 IA=   49   70.30% done.
 IPart=  1 IA=   60   80.58% done.
 IPart=  3 IA=   74   90.51% done.
 Time for triples=       71.14 seconds.
 T4(CCSD)= -0.16033528D-01
 T5(CCSD)=  0.40337611D-03
 CCSD(T)= -0.15266054877D+03
 Discarding MO integrals.
 Leave Link  913 at Fri Aug 26 22:48:10 2022, MaxMem=   536870912 cpu:             110.9 elap:              27.9
 (Enter /usr/site/hpc/x86_64/glibc-2.17/broadwell/gaussian/g16_a.03/pgi-16.5/g16/l601.exe)
 Copying SCF densities to generalized density rwf, IOpCl= 0 IROHF=0.

 **********************************************************************

            Population analysis using the SCF density.

 **********************************************************************

 Orbital symmetries:
       Occupied  (A') (A') (A') (A') (A') (A') (A') (A') (A") (A")
       Virtual   (A') (A') (A') (A') (A') (A') (A') (A') (A') (A')
                 (A") (A") (A') (A') (A') (A') (A") (A") (A") (A")
                 (A') (A') (A') (A') (A') (A') (A') (A') (A") (A")
                 (A") (A") (A') (A') (A') (A') (A') (A') (A') (A')
                 (A') (A') (A") (A") (A') (A') (A") (A") (A') (A')
                 (A") (A") (A') (A') (A') (A') (A") (A") (A") (A")
                 (A') (A') (A') (A') (A") (A") (A') (A') (A') (A')
                 (A") (A") (A') (A') (A') (A') (A') (A') (A') (A')
                 (A") (A") (A') (A') (A") (A") (A") (A") (A') (A')
                 (A") (A") (A') (A') (A') (A') (A") (A") (A') (A')
                 (A') (A') (A') (A') (A') (A')
 The electronic state is 1-A'.
 Alpha  occ. eigenvalues --  -20.55592 -20.54936  -1.32890  -1.32232  -0.70297
 Alpha  occ. eigenvalues --   -0.69626  -0.56337  -0.55675  -0.50001  -0.49346
 Alpha virt. eigenvalues --    0.13875   0.14883   0.20130   0.20926   0.54232
 Alpha virt. eigenvalues --    0.54915   0.57185   0.57800   0.67373   0.69113
 Alpha virt. eigenvalues --    0.78881   0.79521   0.80264   0.80730   0.82658
 Alpha virt. eigenvalues --    0.83116   0.84756   0.85407   0.97199   0.97838
 Alpha virt. eigenvalues --    1.14548   1.15601   1.17085   1.17754   1.51609
 Alpha virt. eigenvalues --    1.51897   1.52292   1.52635   2.00616   2.01270
 Alpha virt. eigenvalues --    2.06678   2.07343   2.09327   2.10064   2.14808
 Alpha virt. eigenvalues --    2.15473   2.24746   2.25937   2.61431   2.62130
 Alpha virt. eigenvalues --    2.92790   2.93551   3.39298   3.39961   3.49854
 Alpha virt. eigenvalues --    3.50519   3.53048   3.53703   3.59426   3.60100
 Alpha virt. eigenvalues --    3.78594   3.79250   3.85356   3.86025   3.87565
 Alpha virt. eigenvalues --    3.88213   3.93501   3.94166   4.02959   4.03613
 Alpha virt. eigenvalues --    4.08114   4.08795   4.15173   4.15885   4.30041
 Alpha virt. eigenvalues --    4.30698   4.39851   4.40514   4.45491   4.46162
 Alpha virt. eigenvalues --    4.66447   4.67101   4.80798   4.81491   5.04115
 Alpha virt. eigenvalues --    5.04847   5.24008   5.24678   5.53970   5.54632
 Alpha virt. eigenvalues --    5.97851   5.98508   6.40312   6.40968   6.86102
 Alpha virt. eigenvalues --    6.86763   6.89582   6.90242   6.94513   6.95175
 Alpha virt. eigenvalues --    6.99049   6.99708   7.07812   7.08482   7.12473
 Alpha virt. eigenvalues --    7.13085   7.18217   7.18881   7.47110   7.47800
 Alpha virt. eigenvalues --    7.70243   7.70909   8.14986   8.15655  12.49195
 Alpha virt. eigenvalues --   12.49904
          Condensed to atoms (all electrons):
               1          2          3          4          5          6
     1  O    7.816967   0.344684   0.347171  -0.000001  -0.000000   0.000056
     2  H    0.344684   0.439421  -0.036594   0.000000   0.000000  -0.000003
     3  H    0.347171  -0.036594   0.432972   0.000000   0.000000  -0.000002
     4  O   -0.000001   0.000000   0.000000   7.817477   0.344197   0.346727
     5  H   -0.000000   0.000000   0.000000   0.344197   0.441993  -0.036697
     6  H    0.000056  -0.000003  -0.000002   0.346727  -0.036697   0.432098
 Mulliken charges:
               1
     1  O   -0.508876
     2  H    0.252492
     3  H    0.256453
     4  O   -0.508400
     5  H    0.250508
     6  H    0.257822
 Sum of Mulliken charges =  -0.00000
 Mulliken charges with hydrogens summed into heavy atoms:
               1
     1  O    0.000070
     4  O   -0.000070
 Electronic spatial extent (au):  <R**2>=            558.3604
 Charge=             -0.0000 electrons
 Dipole moment (field-independent basis, Debye):
    X=             -1.8548    Y=             -1.3636    Z=              0.0000  Tot=              2.3021
 Quadrupole moment (field-independent basis, Debye-Ang):
   XX=             -9.6478   YY=              3.7166   ZZ=            -14.7124
   XY=             -4.5586   XZ=              0.0000   YZ=              0.0000
 Traceless Quadrupole moment (field-independent basis, Debye-Ang):
   XX=             -2.7666   YY=             10.5978   ZZ=             -7.8312
   XY=             -4.5586   XZ=              0.0000   YZ=              0.0000
 Octapole moment (field-independent basis, Debye-Ang**2):
  XXX=             -1.0443  YYY=            -13.3567  ZZZ=              0.0000  XYY=            -10.6415
  XXY=             -7.1118  XXZ=              0.0000  XZZ=             -0.2420  YZZ=             -0.1874
  YYZ=              0.0000  XYZ=              0.0000
 Hexadecapole moment (field-independent basis, Debye-Ang**3):
 XXXX=            -11.7530 YYYY=           -237.7411 ZZZZ=            -11.3367 XXXY=              0.7378
 XXXZ=              0.0000 YYYX=            -29.9571 YYYZ=              0.0000 ZZZX=              0.0000
 ZZZY=              0.0000 XXYY=            -70.1290 XXZZ=             -4.4030 YYZZ=           -111.6870
 XXYZ=              0.0000 YYXZ=              0.0000 ZZXY=              1.4002
 N-N= 2.763023330923D+01 E-N=-4.167411360538D+02  KE= 1.518044859574D+02
 Symmetry A'   KE= 1.427674059647D+02
 Symmetry A"   KE= 9.037079992658D+00
 Leave Link  601 at Fri Aug 26 22:48:10 2022, MaxMem=   536870912 cpu:               0.3 elap:               0.1
 (Enter /usr/site/hpc/x86_64/glibc-2.17/broadwell/gaussian/g16_a.03/pgi-16.5/g16/l9999.exe)
 1\1\GINC-N050\SP\RCCSD(T)-FC\CC-pVTZ\H4O2\C7441284\26-Aug-2022\0\\#p C
 CSD(T)/cc-pVTZ\\H2O_H2O_3494\\0,1\O,0,0.,-0.009833,0.\H,0,-0.799571,-0
 .580965,0.\H,0,0.799571,-0.580965,0.\O,0,-0.009311,5.286955,0.\H,0,-0.
 29312,6.227678,0.\H,0,-0.807147,4.713401,0.\\Version=ES64L-G16RevA.03\
 State=1-A'\HF=-152.1074196\MP2=-152.6333319\MP3=-152.6408982\MP4D=-152
 .6500047\MP4DQ=-152.64245\MP4SDQ=-152.6455064\CCSD=-152.6449186\CCSD(T
 )=-152.6605488\RMSD=6.928e-09\PG=CS [SG(H4O2)]\\@


 Cherishing children is the mark of a civilized society.
 -- Joan Ganz Cooney
 Job cpu time:       0 days  0 hours  2 minutes  3.5 seconds.
 Elapsed time:       0 days  0 hours  0 minutes 31.4 seconds.
 File lengths (MBytes):  RWF=    320 Int=      0 D2E=      0 Chk=      8 Scr=      8
 Normal termination of Gaussian 16 at Fri Aug 26 22:48:10 2022.
