 Entering Gaussian System, Link 0=g16
 Input=H2O_H2O_2785.com
 Output=H2O_H2O_2785.log
 Initial command:
 /usr/site/hpc/x86_64/glibc-2.17/broadwell/gaussian/g16_a.03/pgi-16.5/g16/l1.exe "/gpfs/gpfs1/scratch/c7441284/ForceFieldModel/FittingData/Gau-3562106.inp" -scrdir="/gpfs/gpfs1/scratch/c7441284/ForceFieldModel/FittingData/"
 Entering Link 1 = /usr/site/hpc/x86_64/glibc-2.17/broadwell/gaussian/g16_a.03/pgi-16.5/g16/l1.exe PID=   3562107.
  
 Copyright (c) 1988,1990,1992,1993,1995,1998,2003,2009,2016,
            Gaussian, Inc.  All Rights Reserved.
  
 This is part of the Gaussian(R) 16 program.  It is based on
 the Gaussian(R) 09 system (copyright 2009, Gaussian, Inc.),
 the Gaussian(R) 03 system (copyright 2003, Gaussian, Inc.),
 the Gaussian(R) 98 system (copyright 1998, Gaussian, Inc.),
 the Gaussian(R) 94 system (copyright 1995, Gaussian, Inc.),
 the Gaussian 92(TM) system (copyright 1992, Gaussian, Inc.),
 the Gaussian 90(TM) system (copyright 1990, Gaussian, Inc.),
 the Gaussian 88(TM) system (copyright 1988, Gaussian, Inc.),
 the Gaussian 86(TM) system (copyright 1986, Carnegie Mellon
 University), and the Gaussian 82(TM) system (copyright 1983,
 Carnegie Mellon University). Gaussian is a federally registered
 trademark of Gaussian, Inc.
  
 This software contains proprietary and confidential information,
 including trade secrets, belonging to Gaussian, Inc.
  
 This software is provided under written license and may be
 used, copied, transmitted, or stored only in accord with that
 written license.
  
 The following legend is applicable only to US Government
 contracts under FAR:
  
                    RESTRICTED RIGHTS LEGEND
  
 Use, reproduction and disclosure by the US Government is
 subject to restrictions as set forth in subparagraphs (a)
 and (c) of the Commercial Computer Software - Restricted
 Rights clause in FAR 52.227-19.
  
 Gaussian, Inc.
 340 Quinnipiac St., Bldg. 40, Wallingford CT 06492
  
  
 ---------------------------------------------------------------
 Warning -- This program may not be used in any manner that
 competes with the business of Gaussian, Inc. or will provide
 assistance to any competitor of Gaussian, Inc.  The licensee
 of this program is prohibited from giving any competitor of
 Gaussian, Inc. access to this program.  By using this program,
 the user acknowledges that Gaussian, Inc. is engaged in the
 business of creating and licensing software in the field of
 computational chemistry and represents and warrants to the
 licensee that it is not a competitor of Gaussian, Inc. and that
 it will not use this program in any manner prohibited above.
 ---------------------------------------------------------------
  

 Cite this work as:
 Gaussian 16, Revision A.03,
 M. J. Frisch, G. W. Trucks, H. B. Schlegel, G. E. Scuseria, 
 M. A. Robb, J. R. Cheeseman, G. Scalmani, V. Barone, 
 G. A. Petersson, H. Nakatsuji, X. Li, M. Caricato, A. V. Marenich, 
 J. Bloino, B. G. Janesko, R. Gomperts, B. Mennucci, H. P. Hratchian, 
 J. V. Ortiz, A. F. Izmaylov, J. L. Sonnenberg, D. Williams-Young, 
 F. Ding, F. Lipparini, F. Egidi, J. Goings, B. Peng, A. Petrone, 
 T. Henderson, D. Ranasinghe, V. G. Zakrzewski, J. Gao, N. Rega, 
 G. Zheng, W. Liang, M. Hada, M. Ehara, K. Toyota, R. Fukuda, 
 J. Hasegawa, M. Ishida, T. Nakajima, Y. Honda, O. Kitao, H. Nakai, 
 T. Vreven, K. Throssell, J. A. Montgomery, Jr., J. E. Peralta, 
 F. Ogliaro, M. J. Bearpark, J. J. Heyd, E. N. Brothers, K. N. Kudin, 
 V. N. Staroverov, T. A. Keith, R. Kobayashi, J. Normand, 
 K. Raghavachari, A. P. Rendell, J. C. Burant, S. S. Iyengar, 
 J. Tomasi, M. Cossi, J. M. Millam, M. Klene, C. Adamo, R. Cammi, 
 J. W. Ochterski, R. L. Martin, K. Morokuma, O. Farkas, 
 J. B. Foresman, and D. J. Fox, Gaussian, Inc., Wallingford CT, 2016.
 
 ******************************************
 Gaussian 16:  ES64L-G16RevA.03 25-Dec-2016
                26-Aug-2022 
 ******************************************
 %NProcShared=4
 Will use up to    4 processors via shared memory.
 %Mem=4GB
 %Chk=H2O_H2O_2785.chk
 ------------------
 #p CCSD(T)/cc-pVTZ
 ------------------
 1/38=1,172=1/1;
 2/12=2,17=6,18=5,40=1/2;
 3/5=16,6=1,11=9,25=1,30=1/1,2,3;
 4//1;
 5/5=2,38=5/2;
 8/6=4,9=120000,10=1/1,4;
 9/5=7,14=2/13;
 6/7=2,8=2,9=2,10=2/1;
 99/5=1,9=1/99;
 Leave Link    1 at Fri Aug 26 16:08:37 2022, MaxMem=   536870912 cpu:               0.4 elap:               0.1
 (Enter /usr/site/hpc/x86_64/glibc-2.17/broadwell/gaussian/g16_a.03/pgi-16.5/g16/l101.exe)
 ------------
 H2O_H2O_2785
 ------------
 Symbolic Z-matrix:
 Charge =  0 Multiplicity = 1
 O                     0.       -0.00983   0. 
 H                    -0.79957  -0.58097   0. 
 H                     0.79957  -0.58097   0. 
 O                    -0.00599   4.54703   0. 
 H                     0.28067   5.48688   0. 
 H                    -0.98801   4.51339   0. 
 
 ITRead=  0  0  0  0  0  0
 MicOpt= -1 -1 -1 -1 -1 -1
 NAtoms=      6 NQM=        6 NQMF=       0 NMMI=      0 NMMIF=      0
                NMic=       0 NMicF=      0.
                    Isotopes and Nuclear Properties:
 (Nuclear quadrupole moments (NQMom) in fm**2, nuclear magnetic moments (NMagM)
  in nuclear magnetons)

  Atom         1           2           3           4           5           6
 IAtWgt=          16           1           1          16           1           1
 AtmWgt=  15.9949146   1.0078250   1.0078250  15.9949146   1.0078250   1.0078250
 NucSpn=           0           1           1           0           1           1
 AtZEff=  -0.0000000  -0.0000000  -0.0000000  -0.0000000  -0.0000000  -0.0000000
 NQMom=    0.0000000   0.0000000   0.0000000   0.0000000   0.0000000   0.0000000
 NMagM=    0.0000000   2.7928460   2.7928460   0.0000000   2.7928460   2.7928460
 AtZNuc=   8.0000000   1.0000000   1.0000000   8.0000000   1.0000000   1.0000000
 Leave Link  101 at Fri Aug 26 16:08:37 2022, MaxMem=   536870912 cpu:               0.4 elap:               0.1
 (Enter /usr/site/hpc/x86_64/glibc-2.17/broadwell/gaussian/g16_a.03/pgi-16.5/g16/l202.exe)
                          Input orientation:                          
 ---------------------------------------------------------------------
 Center     Atomic      Atomic             Coordinates (Angstroms)
 Number     Number       Type             X           Y           Z
 ---------------------------------------------------------------------
      1          8           0        0.000000   -0.009833    0.000000
      2          1           0       -0.799571   -0.580965    0.000000
      3          1           0        0.799571   -0.580965    0.000000
      4          8           0       -0.005986    4.547025    0.000000
      5          1           0        0.280674    5.486882    0.000000
      6          1           0       -0.988012    4.513386    0.000000
 ---------------------------------------------------------------------
                    Distance matrix (angstroms):
                    1          2          3          4          5
     1  O    0.000000
     2  H    0.982601   0.000000
     3  H    0.982601   1.599142   0.000000
     4  O    4.556862   5.189033   5.190877   0.000000
     5  H    5.503876   6.163254   6.089994   0.982601   0.000000
     6  H    4.629868   5.097835   5.398876   0.982602   1.599143
                    6
     6  H    0.000000
 Stoichiometry    H4O2
 Framework group  CS[SG(H4O2)]
 Deg. of freedom     9
 Full point group                 CS      NOp   2
 Largest Abelian subgroup         CS      NOp   2
 Largest concise Abelian subgroup C1      NOp   1
                         Standard orientation:                         
 ---------------------------------------------------------------------
 Center     Atomic      Atomic             Coordinates (Angstroms)
 Number     Number       Type             X           Y           Z
 ---------------------------------------------------------------------
      1          8           0        0.034784   -2.266674    0.000000
      2          1           0       -0.765537   -2.836756    0.000000
      3          1           0        0.833604   -2.838856    0.000000
      4          8           0        0.034784    2.290188    0.000000
      5          1           0        0.322678    3.229667    0.000000
      6          1           0       -0.947286    2.257839    0.000000
 ---------------------------------------------------------------------
 Rotational constants (GHZ):         217.6482241           2.5529153           2.5233180
 Leave Link  202 at Fri Aug 26 16:08:37 2022, MaxMem=   536870912 cpu:               0.1 elap:               0.0
 (Enter /usr/site/hpc/x86_64/glibc-2.17/broadwell/gaussian/g16_a.03/pgi-16.5/g16/l301.exe)
 Standard basis: CC-pVTZ (5D, 7F)
 Ernie: Thresh=  0.10000D-02 Tol=  0.10000D-05 Strict=F.
 Ernie:  6 primitive shells out of 84 were deleted.
 There are    92 symmetry adapted cartesian basis functions of A'  symmetry.
 There are    38 symmetry adapted cartesian basis functions of A"  symmetry.
 There are    80 symmetry adapted basis functions of A'  symmetry.
 There are    36 symmetry adapted basis functions of A"  symmetry.
   116 basis functions,   172 primitive gaussians,   130 cartesian basis functions
    10 alpha electrons       10 beta electrons
       nuclear repulsion energy        29.0170011080 Hartrees.
 IExCor=    0 DFT=F Ex=HF Corr=None ExCW=0 ScaHFX=  1.000000
 ScaDFX=  1.000000  1.000000  1.000000  1.000000 ScalE2=  1.000000  1.000000
 IRadAn=      5 IRanWt=     -1 IRanGd=            0 ICorTp=0 IEmpDi=  4
 NAtoms=    6 NActive=    6 NUniq=    6 SFac= 1.00D+00 NAtFMM=   60 NAOKFM=F Big=F
 Integral buffers will be    131072 words long.
 Raffenetti 1 integral format.
 Two-electron integral symmetry is turned on.
 Leave Link  301 at Fri Aug 26 16:08:37 2022, MaxMem=   536870912 cpu:               0.3 elap:               0.1
 (Enter /usr/site/hpc/x86_64/glibc-2.17/broadwell/gaussian/g16_a.03/pgi-16.5/g16/l302.exe)
 NPDir=0 NMtPBC=     1 NCelOv=     1 NCel=       1 NClECP=     1 NCelD=      1
         NCelK=      1 NCelE2=     1 NClLst=     1 CellRange=     0.0.
 One-electron integrals computed using PRISM.
 One-electron integral symmetry used in STVInt
 NBasis=   116 RedAO= T EigKep=  2.61D-03  NBF=    80    36
 NBsUse=   116 1.00D-06 EigRej= -1.00D+00 NBFU=    80    36
 Leave Link  302 at Fri Aug 26 16:08:38 2022, MaxMem=   536870912 cpu:               0.4 elap:               0.1
 (Enter /usr/site/hpc/x86_64/glibc-2.17/broadwell/gaussian/g16_a.03/pgi-16.5/g16/l303.exe)
 DipDrv:  MaxL=1.
 Leave Link  303 at Fri Aug 26 16:08:38 2022, MaxMem=   536870912 cpu:               0.1 elap:               0.0
 (Enter /usr/site/hpc/x86_64/glibc-2.17/broadwell/gaussian/g16_a.03/pgi-16.5/g16/l401.exe)
 ExpMin= 1.03D-01 ExpMax= 1.53D+04 ExpMxC= 5.22D+02 IAcc=3 IRadAn=         5 AccDes= 0.00D+00
 Harris functional with IExCor=  205 and IRadAn=       5 diagonalized for initial guess.
 HarFok:  IExCor=  205 AccDes= 0.00D+00 IRadAn=         5 IDoV= 1 UseB2=F ITyADJ=14
 ICtDFT=  3500011 ScaDFX=  1.000000  1.000000  1.000000  1.000000
 FoFCou: FMM=F IPFlag=           0 FMFlag=      100000 FMFlg1=           0
         NFxFlg=           0 DoJE=T BraDBF=F KetDBF=T FulRan=T
         wScrn=  0.000000 ICntrl=       500 IOpCl=  0 I1Cent=   200000004 NGrid=           0
         NMat0=    1 NMatS0=      1 NMatT0=    0 NMatD0=    1 NMtDS0=    0 NMtDT0=    0
 Petite list used in FoFCou.
 Harris En= -152.298708231248    
 JPrj=0 DoOrth=F DoCkMO=F.
 Initial guess orbital symmetries:
       Occupied  (A') (A') (A') (A') (A') (A') (A') (A') (A") (A")
       Virtual   (A') (A') (A') (A') (A') (A') (A') (A') (A') (A')
                 (A") (A") (A') (A') (A') (A') (A") (A") (A") (A")
                 (A') (A') (A') (A') (A') (A') (A') (A') (A") (A")
                 (A") (A") (A') (A') (A') (A') (A') (A') (A') (A')
                 (A') (A') (A") (A") (A') (A') (A") (A") (A") (A")
                 (A') (A') (A') (A') (A') (A') (A") (A") (A') (A')
                 (A') (A') (A") (A") (A") (A") (A') (A') (A') (A')
                 (A") (A") (A') (A') (A') (A') (A') (A') (A') (A')
                 (A") (A") (A') (A') (A") (A") (A") (A") (A') (A')
                 (A") (A") (A') (A') (A') (A') (A") (A") (A') (A')
                 (A') (A') (A') (A') (A') (A')
 The electronic state of the initial guess is 1-A'.
 Leave Link  401 at Fri Aug 26 16:08:38 2022, MaxMem=   536870912 cpu:               0.9 elap:               0.3
 (Enter /usr/site/hpc/x86_64/glibc-2.17/broadwell/gaussian/g16_a.03/pgi-16.5/g16/l502.exe)
 Keep R1 ints in memory in symmetry-blocked form, NReq=34823457.
 FoFCou: FMM=F IPFlag=           0 FMFlag=           0 FMFlg1=           0
         NFxFlg=           0 DoJE=F BraDBF=F KetDBF=F FulRan=T
         wScrn=  0.000000 ICntrl=       600 IOpCl=  0 I1Cent=           0 NGrid=           0
         NMat0=    1 NMatS0=   6786 NMatT0=    0 NMatD0=    1 NMtDS0=    0 NMtDT0=    0
 Petite list used in FoFCou.
 Closed shell SCF:
 Using DIIS extrapolation, IDIIS=  1040.
 NGot=   536870912 LenX=   525040673 LenY=   525023332
 Requested convergence on RMS density matrix=1.00D-08 within 128 cycles.
 Requested convergence on MAX density matrix=1.00D-06.
 Requested convergence on             energy=1.00D-06.
 No special actions if energy rises.

 Cycle   1  Pass 1  IDiag  1:
 E= -151.924514461214    
 DIIS: error= 6.60D-02 at cycle   1 NSaved=   1.
 NSaved= 1 IEnMin= 1 EnMin= -151.924514461214     IErMin= 1 ErrMin= 6.60D-02
 ErrMax= 6.60D-02  0.00D+00 EMaxC= 1.00D-01 BMatC= 4.01D-01 BMatP= 4.01D-01
 IDIUse=3 WtCom= 3.40D-01 WtEn= 6.60D-01
 Coeff-Com:  0.100D+01
 Coeff-En:   0.100D+01
 Coeff:      0.100D+01
 Gap=     0.514 Goal=   None    Shift=    0.000
 GapD=    0.514 DampG=2.000 DampE=0.500 DampFc=1.0000 IDamp=-1.
 RMSDP=2.53D-03 MaxDP=6.61D-02              OVMax= 1.28D-01

 Cycle   2  Pass 1  IDiag  1:
 E= -152.036731199230     Delta-E=       -0.112216738015 Rises=F Damp=F
 DIIS: error= 4.17D-02 at cycle   2 NSaved=   2.
 NSaved= 2 IEnMin= 2 EnMin= -152.036731199230     IErMin= 2 ErrMin= 4.17D-02
 ErrMax= 4.17D-02  0.00D+00 EMaxC= 1.00D-01 BMatC= 1.14D-01 BMatP= 4.01D-01
 IDIUse=3 WtCom= 5.83D-01 WtEn= 4.17D-01
 Coeff-Com:  0.321D+00 0.679D+00
 Coeff-En:   0.169D+00 0.831D+00
 Coeff:      0.257D+00 0.743D+00
 Gap=     0.657 Goal=   None    Shift=    0.000
 RMSDP=1.34D-03 MaxDP=3.95D-02 DE=-1.12D-01 OVMax= 5.76D-02

 Cycle   3  Pass 1  IDiag  1:
 E= -152.102434599605     Delta-E=       -0.065703400376 Rises=F Damp=F
 DIIS: error= 8.99D-03 at cycle   3 NSaved=   3.
 NSaved= 3 IEnMin= 3 EnMin= -152.102434599605     IErMin= 3 ErrMin= 8.99D-03
 ErrMax= 8.99D-03  0.00D+00 EMaxC= 1.00D-01 BMatC= 6.02D-03 BMatP= 1.14D-01
 IDIUse=3 WtCom= 9.10D-01 WtEn= 8.99D-02
 Coeff-Com: -0.306D-01 0.155D+00 0.876D+00
 Coeff-En:   0.000D+00 0.000D+00 0.100D+01
 Coeff:     -0.279D-01 0.141D+00 0.887D+00
 Gap=     0.629 Goal=   None    Shift=    0.000
 RMSDP=2.47D-04 MaxDP=5.67D-03 DE=-6.57D-02 OVMax= 1.35D-02

 Cycle   4  Pass 1  IDiag  1:
 E= -152.106195809091     Delta-E=       -0.003761209486 Rises=F Damp=F
 DIIS: error= 8.66D-04 at cycle   4 NSaved=   4.
 NSaved= 4 IEnMin= 4 EnMin= -152.106195809091     IErMin= 4 ErrMin= 8.66D-04
 ErrMax= 8.66D-04  0.00D+00 EMaxC= 1.00D-01 BMatC= 3.85D-05 BMatP= 6.02D-03
 IDIUse=3 WtCom= 9.91D-01 WtEn= 8.66D-03
 Coeff-Com:  0.679D-02-0.611D-01-0.239D+00 0.129D+01
 Coeff-En:   0.000D+00 0.000D+00 0.000D+00 0.100D+01
 Coeff:      0.673D-02-0.606D-01-0.237D+00 0.129D+01
 Gap=     0.632 Goal=   None    Shift=    0.000
 RMSDP=5.23D-05 MaxDP=1.04D-03 DE=-3.76D-03 OVMax= 2.28D-03

 Cycle   5  Pass 1  IDiag  1:
 E= -152.106247558183     Delta-E=       -0.000051749091 Rises=F Damp=F
 DIIS: error= 1.96D-04 at cycle   5 NSaved=   5.
 NSaved= 5 IEnMin= 5 EnMin= -152.106247558183     IErMin= 5 ErrMin= 1.96D-04
 ErrMax= 1.96D-04  0.00D+00 EMaxC= 1.00D-01 BMatC= 1.39D-06 BMatP= 3.85D-05
 IDIUse=3 WtCom= 9.98D-01 WtEn= 1.96D-03
 Coeff-Com:  0.596D-03 0.520D-04-0.453D-02-0.211D+00 0.122D+01
 Coeff-En:   0.000D+00 0.000D+00 0.000D+00 0.000D+00 0.100D+01
 Coeff:      0.595D-03 0.519D-04-0.452D-02-0.211D+00 0.121D+01
 Gap=     0.633 Goal=   None    Shift=    0.000
 RMSDP=1.40D-05 MaxDP=2.88D-04 DE=-5.17D-05 OVMax= 6.91D-04

 Cycle   6  Pass 1  IDiag  1:
 E= -152.106250448704     Delta-E=       -0.000002890521 Rises=F Damp=F
 DIIS: error= 2.97D-05 at cycle   6 NSaved=   6.
 NSaved= 6 IEnMin= 6 EnMin= -152.106250448704     IErMin= 6 ErrMin= 2.97D-05
 ErrMax= 2.97D-05  0.00D+00 EMaxC= 1.00D-01 BMatC= 3.62D-08 BMatP= 1.39D-06
 IDIUse=1 WtCom= 1.00D+00 WtEn= 0.00D+00
 Coeff-Com: -0.285D-03 0.167D-02 0.718D-02-0.868D-03-0.261D+00 0.125D+01
 Coeff:     -0.285D-03 0.167D-02 0.718D-02-0.868D-03-0.261D+00 0.125D+01
 Gap=     0.633 Goal=   None    Shift=    0.000
 RMSDP=3.04D-06 MaxDP=6.68D-05 DE=-2.89D-06 OVMax= 1.56D-04

 Cycle   7  Pass 1  IDiag  1:
 E= -152.106250550644     Delta-E=       -0.000000101940 Rises=F Damp=F
 DIIS: error= 5.48D-06 at cycle   7 NSaved=   7.
 NSaved= 7 IEnMin= 7 EnMin= -152.106250550644     IErMin= 7 ErrMin= 5.48D-06
 ErrMax= 5.48D-06  0.00D+00 EMaxC= 1.00D-01 BMatC= 1.89D-09 BMatP= 3.62D-08
 IDIUse=1 WtCom= 1.00D+00 WtEn= 0.00D+00
 Coeff-Com:  0.316D-04-0.405D-03-0.163D-02 0.142D-01-0.138D-01-0.228D+00
 Coeff-Com:  0.123D+01
 Coeff:      0.316D-04-0.405D-03-0.163D-02 0.142D-01-0.138D-01-0.228D+00
 Coeff:      0.123D+01
 Gap=     0.633 Goal=   None    Shift=    0.000
 RMSDP=4.53D-07 MaxDP=9.89D-06 DE=-1.02D-07 OVMax= 3.02D-05

 Cycle   8  Pass 1  IDiag  1:
 E= -152.106250554652     Delta-E=       -0.000000004007 Rises=F Damp=F
 DIIS: error= 1.65D-06 at cycle   8 NSaved=   8.
 NSaved= 8 IEnMin= 8 EnMin= -152.106250554652     IErMin= 8 ErrMin= 1.65D-06
 ErrMax= 1.65D-06  0.00D+00 EMaxC= 1.00D-01 BMatC= 9.83D-11 BMatP= 1.89D-09
 IDIUse=1 WtCom= 1.00D+00 WtEn= 0.00D+00
 Coeff-Com:  0.427D-05 0.526D-04 0.227D-03-0.538D-02 0.200D-01 0.136D-01
 Coeff-Com: -0.420D+00 0.139D+01
 Coeff:      0.427D-05 0.526D-04 0.227D-03-0.538D-02 0.200D-01 0.136D-01
 Coeff:     -0.420D+00 0.139D+01
 Gap=     0.633 Goal=   None    Shift=    0.000
 RMSDP=1.16D-07 MaxDP=2.41D-06 DE=-4.01D-09 OVMax= 6.55D-06

 Cycle   9  Pass 1  IDiag  1:
 E= -152.106250554880     Delta-E=       -0.000000000229 Rises=F Damp=F
 DIIS: error= 2.09D-07 at cycle   9 NSaved=   9.
 NSaved= 9 IEnMin= 9 EnMin= -152.106250554880     IErMin= 9 ErrMin= 2.09D-07
 ErrMax= 2.09D-07  0.00D+00 EMaxC= 1.00D-01 BMatC= 2.10D-12 BMatP= 9.83D-11
 IDIUse=1 WtCom= 1.00D+00 WtEn= 0.00D+00
 Coeff-Com: -0.849D-06 0.403D-05 0.113D-04 0.102D-03-0.554D-03 0.789D-04
 Coeff-Com:  0.222D-01-0.153D+00 0.113D+01
 Coeff:     -0.849D-06 0.403D-05 0.113D-04 0.102D-03-0.554D-03 0.789D-04
 Coeff:      0.222D-01-0.153D+00 0.113D+01
 Gap=     0.633 Goal=   None    Shift=    0.000
 RMSDP=1.33D-08 MaxDP=3.57D-07 DE=-2.29D-10 OVMax= 8.16D-07

 Cycle  10  Pass 1  IDiag  1:
 E= -152.106250554885     Delta-E=       -0.000000000004 Rises=F Damp=F
 DIIS: error= 6.68D-08 at cycle  10 NSaved=  10.
 NSaved=10 IEnMin=10 EnMin= -152.106250554885     IErMin=10 ErrMin= 6.68D-08
 ErrMax= 6.68D-08  0.00D+00 EMaxC= 1.00D-01 BMatC= 4.09D-13 BMatP= 2.10D-12
 IDIUse=1 WtCom= 1.00D+00 WtEn= 0.00D+00
 Coeff-Com: -0.566D-06-0.383D-05-0.187D-04 0.502D-03-0.183D-02-0.176D-02
 Coeff-Com:  0.458D-01-0.173D+00 0.316D+00 0.814D+00
 Coeff:     -0.566D-06-0.383D-05-0.187D-04 0.502D-03-0.183D-02-0.176D-02
 Coeff:      0.458D-01-0.173D+00 0.316D+00 0.814D+00
 Gap=     0.633 Goal=   None    Shift=    0.000
 RMSDP=4.23D-09 MaxDP=1.29D-07 DE=-4.35D-12 OVMax= 2.62D-07

 SCF Done:  E(RHF) =  -152.106250555     A.U. after   10 cycles
            NFock= 10  Conv=0.42D-08     -V/T= 2.0020
 KE= 1.518057397273D+02 PE=-4.195910080144D+02 EE= 8.666201662432D+01
 Leave Link  502 at Fri Aug 26 16:08:39 2022, MaxMem=   536870912 cpu:               5.2 elap:               1.4
 (Enter /usr/site/hpc/x86_64/glibc-2.17/broadwell/gaussian/g16_a.03/pgi-16.5/g16/l801.exe)
 Windowed orbitals will be sorted by symmetry type.
 ExpMin= 1.03D-01 ExpMax= 1.53D+04 ExpMxC= 5.22D+02 IAcc=3 IRadAn=         5 AccDes= 0.00D+00
 HarFok:  IExCor=  205 AccDes= 0.00D+00 IRadAn=         5 IDoV=-2 UseB2=F ITyADJ=14
 ICtDFT= 12500011 ScaDFX=  1.000000  1.000000  1.000000  1.000000
 Largest valence mixing into a core orbital is  1.12D-04
 Largest core mixing into a valence orbital is  1.77D-05
 Range of M.O.s used for correlation:     3   116
 NBasis=   116 NAE=    10 NBE=    10 NFC=     2 NFV=     0
 NROrb=    114 NOA=     8 NOB=     8 NVA=   106 NVB=   106
 Leave Link  801 at Fri Aug 26 16:08:39 2022, MaxMem=   536870912 cpu:               0.4 elap:               0.1
 (Enter /usr/site/hpc/x86_64/glibc-2.17/broadwell/gaussian/g16_a.03/pgi-16.5/g16/l804.exe)
 Closed-shell transformation, MDV=   536870912 ITran=4 ISComp=2.
 Unit  1 TFree=        834515 TCopy=        406125.
 Semi-Direct transformation.
 ModeAB=           4 MOrb=             8 LenV=     536375439
 LASXX=      2873146 LTotXX=     2873146 LenRXX=     5831278
 LTotAB=     2958132 MaxLAS=     5759280 LenRXY=           0
 NonZer=     8704424 LenScr=    13107200 LnRSAI=     5759280
 LnScr1=     8912896 LExtra=           0 Total=     33610654
 MaxDsk=          -1 SrtSym=           T ITran=            4
 DoSDTr:  NPSUse=  4
 JobTyp=0 Pass  1:  I=   1 to   8.
 (rs|ai) integrals will be sorted in core.
 Complete sort for first half transformation.
 First half transformation complete.
 Complete sort for second half transformation.
 Second half transformation complete.
 Spin components of T(2) and E(2):
     alpha-alpha T2 =       0.1557668349D-01 E2=     -0.6382014534D-01
     alpha-beta  T2 =       0.9200563061D-01 E2=     -0.3984242691D+00
     beta-beta   T2 =       0.1557668349D-01 E2=     -0.6382014534D-01
 ANorm=    0.1059791960D+01
 E2 =    -0.5260645598D+00 EUMP2 =    -0.15263231511464D+03
 Leave Link  804 at Fri Aug 26 16:08:41 2022, MaxMem=   536870912 cpu:               4.3 elap:               1.1
 (Enter /usr/site/hpc/x86_64/glibc-2.17/broadwell/gaussian/g16_a.03/pgi-16.5/g16/l913.exe)
 CIDS:  MDV=   536870912.
 Frozen-core window:  NFC=   2 NFV=   0.
 IFCWin=0 IBDFC=1 NFBD=     0     0 NFCmp=     0     0 NFFFC=     0     0
 Using DD3R+UMP44R for 1st iteration.
 Using DD4RQ for 2nd and later iterations.
 Keep R2 and R3 ints in memory in symmetry-blocked form, NReq=35357534.
 FoFCou: FMM=F IPFlag=           0 FMFlag=           0 FMFlg1=           0
         NFxFlg=           0 DoJE=F BraDBF=F KetDBF=F FulRan=T
         wScrn=  0.000000 ICntrl=       600 IOpCl=  0 I1Cent=           0 NGrid=           0
         NMat0=    1 NMatS0=   6786 NMatT0=    0 NMatD0=    1 NMtDS0=    0 NMtDT0=    0
 Petite list used in FoFCou.
 CIDS: In Core Option IDoMem=           1.
 CCSD(T)
 =======
 Iterations=  50 Convergence= 0.100D-06
 Produce multiple copies of IABC intergrals
 Iteration Nr.   1
 **********************
 DD1Dir will call FoFMem   1 times, MxPair=        72
 NAB=    36 NAA=     0 NBB=     0.
 MP4(R+Q)=  0.75685203D-02
 Maximum subspace dimension=  5
 A-vector RMS=  1.7491523D-03 Max=  6.0197285D-03 conv= 1.00D-05.
 RLE energy=       -0.5259795435
 E3=       -0.75551055D-02        EUMP3=      -0.15263987022D+03
 E4(DQ)=   -0.15532834D-02        UMP4(DQ)=   -0.15264142350D+03
 E4(SDQ)=  -0.46212603D-02        UMP4(SDQ)=  -0.15264449148D+03
 VARIATIONAL ENERGIES WITH THE FIRST-ORDER WAVEFUNCTION:
 DE(Corr)= -0.52597954     E(Corr)=     -152.63223009    
 NORM(A)=   0.10601564D+01
 Iteration Nr.   2
 **********************
 DD1Dir will call FoFMem   1 times, MxPair=        72
 NAB=    36 NAA=     0 NBB=     0.
 A-vector RMS=  2.1213303D-04 Max=  2.1429724D-03 conv= 1.00D-05.
 RLE energy=       -0.5370634844
 DE(Corr)= -0.53590368     E(CORR)=     -152.64215424     Delta=-9.92D-03
 NORM(A)=   0.10639170D+01
 Iteration Nr.   3
 **********************
 DD1Dir will call FoFMem   1 times, MxPair=        72
 NAB=    36 NAA=     0 NBB=     0.
 A-vector RMS=  1.4274755D-04 Max=  8.5606501D-04 conv= 1.00D-05.
 RLE energy=       -0.5375607023
 DE(Corr)= -0.53697267     E(CORR)=     -152.64322322     Delta=-1.07D-03
 NORM(A)=   0.10645578D+01
 Iteration Nr.   4
 **********************
 DD1Dir will call FoFMem   1 times, MxPair=        72
 NAB=    36 NAA=     0 NBB=     0.
 A-vector RMS=  2.6385951D-05 Max=  1.4126110D-04 conv= 1.00D-05.
 RLE energy=       -0.5376438618
 DE(Corr)= -0.53760848     E(CORR)=     -152.64385904     Delta=-6.36D-04
 NORM(A)=   0.10646697D+01
 Iteration Nr.   5
 **********************
 DD1Dir will call FoFMem   1 times, MxPair=        72
 NAB=    36 NAA=     0 NBB=     0.
 A-vector RMS=  1.9104737D-05 Max=  1.6056606D-04 conv= 1.00D-05.
 RLE energy=       -0.5376525925
 DE(Corr)= -0.53764569     E(CORR)=     -152.64389624     Delta=-3.72D-05
 NORM(A)=   0.10646796D+01
 Iteration Nr.   6
 **********************
 DD1Dir will call FoFMem   1 times, MxPair=        72
 NAB=    36 NAA=     0 NBB=     0.
 A-vector RMS=  5.6707318D-06 Max=  4.4220768D-05 conv= 1.00D-05.
 RLE energy=       -0.5376432694
 DE(Corr)= -0.53764892     E(CORR)=     -152.64389947     Delta=-3.23D-06
 NORM(A)=   0.10646797D+01
 Iteration Nr.   7
 **********************
 DD1Dir will call FoFMem   1 times, MxPair=        72
 NAB=    36 NAA=     0 NBB=     0.
 A-vector RMS=  2.7058069D-06 Max=  2.3727658D-05 conv= 1.00D-05.
 RLE energy=       -0.5376500052
 DE(Corr)= -0.53764906     E(CORR)=     -152.64389962     Delta=-1.44D-07
 NORM(A)=   0.10646821D+01
 Iteration Nr.   8
 **********************
 DD1Dir will call FoFMem   1 times, MxPair=        72
 NAB=    36 NAA=     0 NBB=     0.
 A-vector RMS=  5.9745086D-07 Max=  5.8337408D-06 conv= 1.00D-05.
 RLE energy=       -0.5376484389
 DE(Corr)= -0.53764861     E(CORR)=     -152.64389917     Delta= 4.50D-07
 NORM(A)=   0.10646822D+01
 Iteration Nr.   9
 **********************
 DD1Dir will call FoFMem   1 times, MxPair=        72
 NAB=    36 NAA=     0 NBB=     0.
 A-vector RMS=  1.6511213D-07 Max=  1.4896120D-06 conv= 1.00D-05.
 RLE energy=       -0.5376488460
 DE(Corr)= -0.53764888     E(CORR)=     -152.64389943     Delta=-2.69D-07
 NORM(A)=   0.10646825D+01
 Iteration Nr.  10
 **********************
 DD1Dir will call FoFMem   1 times, MxPair=        72
 NAB=    36 NAA=     0 NBB=     0.
 A-vector RMS=  6.0346403D-08 Max=  5.9632576D-07 conv= 1.00D-05.
 RLE energy=       -0.5376489068
 DE(Corr)= -0.53764888     E(CORR)=     -152.64389943     Delta= 2.79D-09
 NORM(A)=   0.10646826D+01
 CI/CC converged in   10 iterations to DelEn= 2.79D-09 Conv= 1.00D-07 ErrA1= 6.03D-08 Conv= 1.00D-05
 Wavefunction amplitudes converged. E(Corr)=     -152.64389943    
 Largest amplitude= 4.42D-02
 IPart=  2 IA=    7   11.05% done.
 IPart=  1 IA=   13   21.46% done.
 IPart=  1 IA=   19   31.21% done.
 IPart=  3 IA=   25   40.32% done.
 IPart=  2 IA=   32   50.13% done.
 IPart=  2 IA=   40   60.27% done.
 IPart=  3 IA=   49   70.30% done.
 IPart=  2 IA=   60   80.58% done.
 IPart=  3 IA=   74   90.51% done.
 Time for triples=       86.82 seconds.
 T4(CCSD)= -0.16059645D-01
 T5(CCSD)=  0.40609544D-03
 CCSD(T)= -0.15265955298D+03
 Discarding MO integrals.
 Leave Link  913 at Fri Aug 26 16:09:13 2022, MaxMem=   536870912 cpu:             124.8 elap:              32.7
 (Enter /usr/site/hpc/x86_64/glibc-2.17/broadwell/gaussian/g16_a.03/pgi-16.5/g16/l601.exe)
 Copying SCF densities to generalized density rwf, IOpCl= 0 IROHF=0.

 **********************************************************************

            Population analysis using the SCF density.

 **********************************************************************

 Orbital symmetries:
       Occupied  (A') (A') (A') (A') (A') (A') (A') (A') (A") (A")
       Virtual   (A') (A') (A') (A') (A') (A') (A') (A') (A') (A')
                 (A") (A") (A') (A') (A') (A') (A") (A") (A") (A")
                 (A') (A') (A') (A') (A') (A') (A') (A') (A") (A")
                 (A") (A") (A') (A') (A') (A') (A') (A') (A') (A')
                 (A') (A') (A") (A") (A') (A') (A") (A") (A') (A')
                 (A") (A") (A') (A') (A') (A') (A") (A") (A") (A")
                 (A') (A') (A') (A') (A") (A") (A') (A') (A') (A')
                 (A") (A") (A') (A') (A') (A') (A') (A') (A') (A')
                 (A") (A") (A') (A') (A") (A") (A") (A") (A') (A')
                 (A") (A") (A') (A') (A') (A') (A") (A") (A') (A')
                 (A') (A') (A') (A') (A') (A')
 The electronic state is 1-A'.
 Alpha  occ. eigenvalues --  -20.55028 -20.54760  -1.32320  -1.32049  -0.69731
 Alpha  occ. eigenvalues --   -0.69450  -0.55713  -0.55434  -0.49423  -0.49154
 Alpha virt. eigenvalues --    0.14117   0.15200   0.20452   0.20984   0.54523
 Alpha virt. eigenvalues --    0.55220   0.57647   0.57924   0.66111   0.71610
 Alpha virt. eigenvalues --    0.79430   0.79739   0.80792   0.81310   0.82598
 Alpha virt. eigenvalues --    0.83755   0.85244   0.85510   0.97723   0.98039
 Alpha virt. eigenvalues --    1.15129   1.15843   1.17623   1.18087   1.52089
 Alpha virt. eigenvalues --    1.52361   1.52452   1.52725   2.01204   2.01477
 Alpha virt. eigenvalues --    2.07253   2.07530   2.09865   2.10128   2.15349
 Alpha virt. eigenvalues --    2.15725   2.23871   2.28477   2.61972   2.62280
 Alpha virt. eigenvalues --    2.93305   2.93738   3.39831   3.40106   3.50383
 Alpha virt. eigenvalues --    3.50656   3.53565   3.53834   3.59943   3.60237
 Alpha virt. eigenvalues --    3.79151   3.79419   3.85909   3.86159   3.88028
 Alpha virt. eigenvalues --    3.88483   3.94024   3.94298   4.03466   4.03780
 Alpha virt. eigenvalues --    4.08652   4.08929   4.15720   4.16049   4.30582
 Alpha virt. eigenvalues --    4.30851   4.40438   4.40730   4.46009   4.46292
 Alpha virt. eigenvalues --    4.66999   4.67266   4.81350   4.81649   5.04520
 Alpha virt. eigenvalues --    5.05183   5.24571   5.24920   5.54536   5.54882
 Alpha virt. eigenvalues --    5.98435   5.98703   6.40877   6.41144   6.86676
 Alpha virt. eigenvalues --    6.86948   6.90145   6.90417   6.95073   6.95348
 Alpha virt. eigenvalues --    6.99640   6.99912   7.08383   7.08622   7.12574
 Alpha virt. eigenvalues --    7.13989   7.18808   7.19081   7.47677   7.48033
 Alpha virt. eigenvalues --    7.70836   7.71169   8.15524   8.15885  12.49496
 Alpha virt. eigenvalues --   12.50372
          Condensed to atoms (all electrons):
               1          2          3          4          5          6
     1  O    7.813084   0.342967   0.345718   0.000036  -0.000000   0.000067
     2  H    0.342967   0.444443  -0.036414   0.000004  -0.000000  -0.000005
     3  H    0.345718  -0.036414   0.437750   0.000005  -0.000000  -0.000003
     4  O    0.000036   0.000004   0.000005   7.813189   0.341892   0.346325
     5  H   -0.000000  -0.000000  -0.000000   0.341892   0.446727  -0.036591
     6  H    0.000067  -0.000005  -0.000003   0.346325  -0.036591   0.436807
 Mulliken charges:
               1
     1  O   -0.501871
     2  H    0.249005
     3  H    0.252944
     4  O   -0.501451
     5  H    0.247972
     6  H    0.253401
 Sum of Mulliken charges =  -0.00000
 Mulliken charges with hydrogens summed into heavy atoms:
               1
     1  O    0.000078
     4  O   -0.000078
 Electronic spatial extent (au):  <R**2>=            431.4054
 Charge=             -0.0000 electrons
 Dipole moment (field-independent basis, Debye):
    X=             -1.1844    Y=             -0.4185    Z=              0.0000  Tot=              1.2562
 Quadrupole moment (field-independent basis, Debye-Ang):
   XX=             -8.5744   YY=              4.9991   ZZ=            -14.7105
   XY=             -1.9051   XZ=              0.0000   YZ=              0.0000
 Traceless Quadrupole moment (field-independent basis, Debye-Ang):
   XX=             -2.4791   YY=             11.0944   ZZ=             -8.6153
   XY=             -1.9051   XZ=              0.0000   YZ=              0.0000
 Octapole moment (field-independent basis, Debye-Ang**2):
  XXX=             -1.8379  YYY=             -0.3584  ZZZ=              0.0000  XYY=             -1.0066
  XXY=             -3.1697  XXZ=              0.0000  XZZ=             -0.1528  YZZ=             -0.0585
  YYZ=              0.0000  XYZ=              0.0000
 Hexadecapole moment (field-independent basis, Debye-Ang**3):
 XXXX=            -10.9737 YYYY=           -190.1532 ZZZZ=            -11.3331 XXXY=             -2.6046
 XXXZ=              0.0000 YYYX=              5.9905 YYYZ=              0.0000 ZZZX=              0.0000
 ZZZY=              0.0000 XXYY=            -45.0405 XXZZ=             -4.5046 YYZZ=            -85.5054
 XXYZ=              0.0000 YYXZ=              0.0000 ZZXY=              0.7127
 N-N= 2.901700110797D+01 E-N=-4.195910076176D+02  KE= 1.518057397273D+02
 Symmetry A'   KE= 1.427674438569D+02
 Symmetry A"   KE= 9.038295870397D+00
 Leave Link  601 at Fri Aug 26 16:09:13 2022, MaxMem=   536870912 cpu:               0.3 elap:               0.1
 (Enter /usr/site/hpc/x86_64/glibc-2.17/broadwell/gaussian/g16_a.03/pgi-16.5/g16/l9999.exe)
 1\1\GINC-N050\SP\RCCSD(T)-FC\CC-pVTZ\H4O2\C7441284\26-Aug-2022\0\\#p C
 CSD(T)/cc-pVTZ\\H2O_H2O_2785\\0,1\O,0,0.,-0.009833,0.\H,0,-0.799571,-0
 .580965,0.\H,0,0.799571,-0.580965,0.\O,0,-0.005986,4.547025,0.\H,0,0.2
 80674,5.486882,0.\H,0,-0.988012,4.513386,0.\\Version=ES64L-G16RevA.03\
 State=1-A'\HF=-152.1062506\MP2=-152.6323151\MP3=-152.6398702\MP4D=-152
 .648992\MP4DQ=-152.6414235\MP4SDQ=-152.6444915\CCSD=-152.6438994\CCSD(
 T)=-152.659553\RMSD=4.233e-09\PG=CS [SG(H4O2)]\\@


 I DON'T PRETEND TO UNDERSTAND THE UNIVERSE --
 IT'S A GREAT DEAL BIGGER THAN I AM.
       -- ATTR. TO WILLIAM ALLINGHAM (1828-89)
 Job cpu time:       0 days  0 hours  2 minutes 17.9 seconds.
 Elapsed time:       0 days  0 hours  0 minutes 36.3 seconds.
 File lengths (MBytes):  RWF=    328 Int=      0 D2E=      0 Chk=      8 Scr=      8
 Normal termination of Gaussian 16 at Fri Aug 26 16:09:14 2022.
