 Entering Gaussian System, Link 0=g16
 Input=H2O_H2O_1321.com
 Output=H2O_H2O_1321.log
 Initial command:
 /usr/site/hpc/x86_64/glibc-2.17/broadwell/gaussian/g16_a.03/pgi-16.5/g16/l1.exe "/gpfs/gpfs1/scratch/c7441284/ForceFieldModel/FittingData/Gau-3581526.inp" -scrdir="/gpfs/gpfs1/scratch/c7441284/ForceFieldModel/FittingData/"
 Entering Link 1 = /usr/site/hpc/x86_64/glibc-2.17/broadwell/gaussian/g16_a.03/pgi-16.5/g16/l1.exe PID=   3581527.
  
 Copyright (c) 1988,1990,1992,1993,1995,1998,2003,2009,2016,
            Gaussian, Inc.  All Rights Reserved.
  
 This is part of the Gaussian(R) 16 program.  It is based on
 the Gaussian(R) 09 system (copyright 2009, Gaussian, Inc.),
 the Gaussian(R) 03 system (copyright 2003, Gaussian, Inc.),
 the Gaussian(R) 98 system (copyright 1998, Gaussian, Inc.),
 the Gaussian(R) 94 system (copyright 1995, Gaussian, Inc.),
 the Gaussian 92(TM) system (copyright 1992, Gaussian, Inc.),
 the Gaussian 90(TM) system (copyright 1990, Gaussian, Inc.),
 the Gaussian 88(TM) system (copyright 1988, Gaussian, Inc.),
 the Gaussian 86(TM) system (copyright 1986, Carnegie Mellon
 University), and the Gaussian 82(TM) system (copyright 1983,
 Carnegie Mellon University). Gaussian is a federally registered
 trademark of Gaussian, Inc.
  
 This software contains proprietary and confidential information,
 including trade secrets, belonging to Gaussian, Inc.
  
 This software is provided under written license and may be
 used, copied, transmitted, or stored only in accord with that
 written license.
  
 The following legend is applicable only to US Government
 contracts under FAR:
  
                    RESTRICTED RIGHTS LEGEND
  
 Use, reproduction and disclosure by the US Government is
 subject to restrictions as set forth in subparagraphs (a)
 and (c) of the Commercial Computer Software - Restricted
 Rights clause in FAR 52.227-19.
  
 Gaussian, Inc.
 340 Quinnipiac St., Bldg. 40, Wallingford CT 06492
  
  
 ---------------------------------------------------------------
 Warning -- This program may not be used in any manner that
 competes with the business of Gaussian, Inc. or will provide
 assistance to any competitor of Gaussian, Inc.  The licensee
 of this program is prohibited from giving any competitor of
 Gaussian, Inc. access to this program.  By using this program,
 the user acknowledges that Gaussian, Inc. is engaged in the
 business of creating and licensing software in the field of
 computational chemistry and represents and warrants to the
 licensee that it is not a competitor of Gaussian, Inc. and that
 it will not use this program in any manner prohibited above.
 ---------------------------------------------------------------
  

 Cite this work as:
 Gaussian 16, Revision A.03,
 M. J. Frisch, G. W. Trucks, H. B. Schlegel, G. E. Scuseria, 
 M. A. Robb, J. R. Cheeseman, G. Scalmani, V. Barone, 
 G. A. Petersson, H. Nakatsuji, X. Li, M. Caricato, A. V. Marenich, 
 J. Bloino, B. G. Janesko, R. Gomperts, B. Mennucci, H. P. Hratchian, 
 J. V. Ortiz, A. F. Izmaylov, J. L. Sonnenberg, D. Williams-Young, 
 F. Ding, F. Lipparini, F. Egidi, J. Goings, B. Peng, A. Petrone, 
 T. Henderson, D. Ranasinghe, V. G. Zakrzewski, J. Gao, N. Rega, 
 G. Zheng, W. Liang, M. Hada, M. Ehara, K. Toyota, R. Fukuda, 
 J. Hasegawa, M. Ishida, T. Nakajima, Y. Honda, O. Kitao, H. Nakai, 
 T. Vreven, K. Throssell, J. A. Montgomery, Jr., J. E. Peralta, 
 F. Ogliaro, M. J. Bearpark, J. J. Heyd, E. N. Brothers, K. N. Kudin, 
 V. N. Staroverov, T. A. Keith, R. Kobayashi, J. Normand, 
 K. Raghavachari, A. P. Rendell, J. C. Burant, S. S. Iyengar, 
 J. Tomasi, M. Cossi, J. M. Millam, M. Klene, C. Adamo, R. Cammi, 
 J. W. Ochterski, R. L. Martin, K. Morokuma, O. Farkas, 
 J. B. Foresman, and D. J. Fox, Gaussian, Inc., Wallingford CT, 2016.
 
 ******************************************
 Gaussian 16:  ES64L-G16RevA.03 25-Dec-2016
                27-Aug-2022 
 ******************************************
 %NProcShared=4
 Will use up to    4 processors via shared memory.
 %Mem=4GB
 %Chk=H2O_H2O_1321.chk
 ------------------
 #p CCSD(T)/cc-pVTZ
 ------------------
 1/38=1,172=1/1;
 2/12=2,17=6,18=5,40=1/2;
 3/5=16,6=1,11=9,25=1,30=1/1,2,3;
 4//1;
 5/5=2,38=5/2;
 8/6=4,9=120000,10=1/1,4;
 9/5=7,14=2/13;
 6/7=2,8=2,9=2,10=2/1;
 99/5=1,9=1/99;
 Leave Link    1 at Sat Aug 27 03:53:27 2022, MaxMem=   536870912 cpu:               0.3 elap:               0.1
 (Enter /usr/site/hpc/x86_64/glibc-2.17/broadwell/gaussian/g16_a.03/pgi-16.5/g16/l101.exe)
 ------------
 H2O_H2O_1321
 ------------
 Symbolic Z-matrix:
 Charge =  0 Multiplicity = 1
 O                     0.       -0.00983   0. 
 H                    -0.79957  -0.58097   0. 
 H                     0.79957  -0.58097   0. 
 O                    -0.00964   2.97223   0. 
 H                    -0.41381   3.86786   0. 
 H                    -0.72579   2.29944   0. 
 
 ITRead=  0  0  0  0  0  0
 MicOpt= -1 -1 -1 -1 -1 -1
 NAtoms=      6 NQM=        6 NQMF=       0 NMMI=      0 NMMIF=      0
                NMic=       0 NMicF=      0.
                    Isotopes and Nuclear Properties:
 (Nuclear quadrupole moments (NQMom) in fm**2, nuclear magnetic moments (NMagM)
  in nuclear magnetons)

  Atom         1           2           3           4           5           6
 IAtWgt=          16           1           1          16           1           1
 AtmWgt=  15.9949146   1.0078250   1.0078250  15.9949146   1.0078250   1.0078250
 NucSpn=           0           1           1           0           1           1
 AtZEff=  -0.0000000  -0.0000000  -0.0000000  -0.0000000  -0.0000000  -0.0000000
 NQMom=    0.0000000   0.0000000   0.0000000   0.0000000   0.0000000   0.0000000
 NMagM=    0.0000000   2.7928460   2.7928460   0.0000000   2.7928460   2.7928460
 AtZNuc=   8.0000000   1.0000000   1.0000000   8.0000000   1.0000000   1.0000000
 Leave Link  101 at Sat Aug 27 03:53:27 2022, MaxMem=   536870912 cpu:               0.3 elap:               0.1
 (Enter /usr/site/hpc/x86_64/glibc-2.17/broadwell/gaussian/g16_a.03/pgi-16.5/g16/l202.exe)
                          Input orientation:                          
 ---------------------------------------------------------------------
 Center     Atomic      Atomic             Coordinates (Angstroms)
 Number     Number       Type             X           Y           Z
 ---------------------------------------------------------------------
      1          8           0        0.000000   -0.009833    0.000000
      2          1           0       -0.799571   -0.580965    0.000000
      3          1           0        0.799571   -0.580965    0.000000
      4          8           0       -0.009644    2.972225    0.000000
      5          1           0       -0.413813    3.867855    0.000000
      6          1           0       -0.725791    2.299439    0.000000
 ---------------------------------------------------------------------
                    Distance matrix (angstroms):
                    1          2          3          4          5
     1  O    0.000000
     2  H    0.982601   0.000000
     3  H    0.982601   1.599142   0.000000
     4  O    2.982074   3.639937   3.644172   0.000000
     5  H    3.899706   4.465513   4.611323   0.982601   0.000000
     6  H    2.420642   2.881349   3.259364   0.982602   1.599143
                    6
     6  H    0.000000
 Stoichiometry    H4O2
 Framework group  CS[SG(H4O2)]
 Deg. of freedom     9
 Full point group                 CS      NOp   2
 Largest Abelian subgroup         CS      NOp   2
 Largest concise Abelian subgroup C1      NOp   1
                         Standard orientation:                         
 ---------------------------------------------------------------------
 Center     Atomic      Atomic             Coordinates (Angstroms)
 Number     Number       Type             X           Y           Z
 ---------------------------------------------------------------------
      1          8           0        0.056164   -1.445247    0.000000
      2          1           0       -0.745250   -2.013790    0.000000
      3          1           0        0.853884   -2.018962    0.000000
      4          8           0        0.056164    1.536826    0.000000
      5          1           0       -0.345106    2.433759    0.000000
      6          1           0       -0.662155    0.866360    0.000000
 ---------------------------------------------------------------------
 Rotational constants (GHZ):         265.2219581           5.8681116           5.7410883
 Leave Link  202 at Sat Aug 27 03:53:27 2022, MaxMem=   536870912 cpu:               0.0 elap:               0.0
 (Enter /usr/site/hpc/x86_64/glibc-2.17/broadwell/gaussian/g16_a.03/pgi-16.5/g16/l301.exe)
 Standard basis: CC-pVTZ (5D, 7F)
 Ernie: Thresh=  0.10000D-02 Tol=  0.10000D-05 Strict=F.
 Ernie:  6 primitive shells out of 84 were deleted.
 There are    92 symmetry adapted cartesian basis functions of A'  symmetry.
 There are    38 symmetry adapted cartesian basis functions of A"  symmetry.
 There are    80 symmetry adapted basis functions of A'  symmetry.
 There are    36 symmetry adapted basis functions of A"  symmetry.
   116 basis functions,   172 primitive gaussians,   130 cartesian basis functions
    10 alpha electrons       10 beta electrons
       nuclear repulsion energy        34.9907768827 Hartrees.
 IExCor=    0 DFT=F Ex=HF Corr=None ExCW=0 ScaHFX=  1.000000
 ScaDFX=  1.000000  1.000000  1.000000  1.000000 ScalE2=  1.000000  1.000000
 IRadAn=      5 IRanWt=     -1 IRanGd=            0 ICorTp=0 IEmpDi=  4
 NAtoms=    6 NActive=    6 NUniq=    6 SFac= 1.00D+00 NAtFMM=   60 NAOKFM=F Big=F
 Integral buffers will be    131072 words long.
 Raffenetti 1 integral format.
 Two-electron integral symmetry is turned on.
 Leave Link  301 at Sat Aug 27 03:53:27 2022, MaxMem=   536870912 cpu:               0.2 elap:               0.1
 (Enter /usr/site/hpc/x86_64/glibc-2.17/broadwell/gaussian/g16_a.03/pgi-16.5/g16/l302.exe)
 NPDir=0 NMtPBC=     1 NCelOv=     1 NCel=       1 NClECP=     1 NCelD=      1
         NCelK=      1 NCelE2=     1 NClLst=     1 CellRange=     0.0.
 One-electron integrals computed using PRISM.
 One-electron integral symmetry used in STVInt
 NBasis=   116 RedAO= T EigKep=  2.17D-03  NBF=    80    36
 NBsUse=   116 1.00D-06 EigRej= -1.00D+00 NBFU=    80    36
 Leave Link  302 at Sat Aug 27 03:53:27 2022, MaxMem=   536870912 cpu:               0.4 elap:               0.1
 (Enter /usr/site/hpc/x86_64/glibc-2.17/broadwell/gaussian/g16_a.03/pgi-16.5/g16/l303.exe)
 DipDrv:  MaxL=1.
 Leave Link  303 at Sat Aug 27 03:53:27 2022, MaxMem=   536870912 cpu:               0.1 elap:               0.0
 (Enter /usr/site/hpc/x86_64/glibc-2.17/broadwell/gaussian/g16_a.03/pgi-16.5/g16/l401.exe)
 ExpMin= 1.03D-01 ExpMax= 1.53D+04 ExpMxC= 5.22D+02 IAcc=3 IRadAn=         5 AccDes= 0.00D+00
 Harris functional with IExCor=  205 and IRadAn=       5 diagonalized for initial guess.
 HarFok:  IExCor=  205 AccDes= 0.00D+00 IRadAn=         5 IDoV= 1 UseB2=F ITyADJ=14
 ICtDFT=  3500011 ScaDFX=  1.000000  1.000000  1.000000  1.000000
 FoFCou: FMM=F IPFlag=           0 FMFlag=      100000 FMFlg1=           0
         NFxFlg=           0 DoJE=T BraDBF=F KetDBF=T FulRan=T
         wScrn=  0.000000 ICntrl=       500 IOpCl=  0 I1Cent=   200000004 NGrid=           0
         NMat0=    1 NMatS0=      1 NMatT0=    0 NMatD0=    1 NMtDS0=    0 NMtDT0=    0
 Petite list used in FoFCou.
 Harris En= -152.301204923503    
 JPrj=0 DoOrth=F DoCkMO=F.
 Initial guess orbital symmetries:
       Occupied  (A') (A') (A') (A') (A') (A') (A') (A') (A") (A")
       Virtual   (A') (A') (A') (A') (A') (A') (A') (A') (A') (A")
                 (A') (A") (A') (A') (A") (A") (A') (A") (A") (A')
                 (A') (A') (A') (A') (A') (A') (A') (A') (A") (A")
                 (A") (A") (A') (A') (A') (A') (A') (A') (A') (A')
                 (A') (A') (A") (A") (A') (A') (A") (A") (A") (A")
                 (A') (A') (A') (A') (A') (A") (A") (A') (A') (A')
                 (A") (A') (A") (A') (A") (A") (A') (A') (A') (A")
                 (A') (A") (A') (A') (A') (A') (A') (A') (A') (A')
                 (A") (A") (A') (A') (A") (A") (A") (A") (A') (A')
                 (A") (A") (A') (A') (A') (A') (A") (A") (A') (A')
                 (A') (A') (A') (A') (A') (A')
 The electronic state of the initial guess is 1-A'.
 Leave Link  401 at Sat Aug 27 03:53:27 2022, MaxMem=   536870912 cpu:               0.8 elap:               0.2
 (Enter /usr/site/hpc/x86_64/glibc-2.17/broadwell/gaussian/g16_a.03/pgi-16.5/g16/l502.exe)
 Keep R1 ints in memory in symmetry-blocked form, NReq=34823457.
 FoFCou: FMM=F IPFlag=           0 FMFlag=           0 FMFlg1=           0
         NFxFlg=           0 DoJE=F BraDBF=F KetDBF=F FulRan=T
         wScrn=  0.000000 ICntrl=       600 IOpCl=  0 I1Cent=           0 NGrid=           0
         NMat0=    1 NMatS0=   6786 NMatT0=    0 NMatD0=    1 NMtDS0=    0 NMtDT0=    0
 Petite list used in FoFCou.
 Closed shell SCF:
 Using DIIS extrapolation, IDIIS=  1040.
 NGot=   536870912 LenX=   525040673 LenY=   525023332
 Requested convergence on RMS density matrix=1.00D-08 within 128 cycles.
 Requested convergence on MAX density matrix=1.00D-06.
 Requested convergence on             energy=1.00D-06.
 No special actions if energy rises.

 Cycle   1  Pass 1  IDiag  1:
 E= -151.929958778471    
 DIIS: error= 6.63D-02 at cycle   1 NSaved=   1.
 NSaved= 1 IEnMin= 1 EnMin= -151.929958778471     IErMin= 1 ErrMin= 6.63D-02
 ErrMax= 6.63D-02  0.00D+00 EMaxC= 1.00D-01 BMatC= 3.96D-01 BMatP= 3.96D-01
 IDIUse=3 WtCom= 3.37D-01 WtEn= 6.63D-01
 Coeff-Com:  0.100D+01
 Coeff-En:   0.100D+01
 Coeff:      0.100D+01
 Gap=     0.502 Goal=   None    Shift=    0.000
 GapD=    0.502 DampG=2.000 DampE=0.500 DampFc=1.0000 IDamp=-1.
 RMSDP=2.65D-03 MaxDP=6.78D-02              OVMax= 1.26D-01

 Cycle   2  Pass 1  IDiag  1:
 E= -152.040134770825     Delta-E=       -0.110175992353 Rises=F Damp=F
 DIIS: error= 4.13D-02 at cycle   2 NSaved=   2.
 NSaved= 2 IEnMin= 2 EnMin= -152.040134770825     IErMin= 2 ErrMin= 4.13D-02
 ErrMax= 4.13D-02  0.00D+00 EMaxC= 1.00D-01 BMatC= 1.11D-01 BMatP= 3.96D-01
 IDIUse=3 WtCom= 5.87D-01 WtEn= 4.13D-01
 Coeff-Com:  0.318D+00 0.682D+00
 Coeff-En:   0.165D+00 0.835D+00
 Coeff:      0.255D+00 0.745D+00
 Gap=     0.633 Goal=   None    Shift=    0.000
 RMSDP=1.42D-03 MaxDP=4.00D-02 DE=-1.10D-01 OVMax= 5.76D-02

 Cycle   3  Pass 1  IDiag  1:
 E= -152.104041812312     Delta-E=       -0.063907041488 Rises=F Damp=F
 DIIS: error= 9.19D-03 at cycle   3 NSaved=   3.
 NSaved= 3 IEnMin= 3 EnMin= -152.104041812312     IErMin= 3 ErrMin= 9.19D-03
 ErrMax= 9.19D-03  0.00D+00 EMaxC= 1.00D-01 BMatC= 6.09D-03 BMatP= 1.11D-01
 IDIUse=3 WtCom= 9.08D-01 WtEn= 9.19D-02
 Coeff-Com: -0.309D-01 0.158D+00 0.873D+00
 Coeff-En:   0.000D+00 0.000D+00 0.100D+01
 Coeff:     -0.280D-01 0.143D+00 0.885D+00
 Gap=     0.605 Goal=   None    Shift=    0.000
 RMSDP=2.62D-04 MaxDP=6.23D-03 DE=-6.39D-02 OVMax= 1.35D-02

 Cycle   4  Pass 1  IDiag  1:
 E= -152.107841610599     Delta-E=       -0.003799798287 Rises=F Damp=F
 DIIS: error= 8.56D-04 at cycle   4 NSaved=   4.
 NSaved= 4 IEnMin= 4 EnMin= -152.107841610599     IErMin= 4 ErrMin= 8.56D-04
 ErrMax= 8.56D-04  0.00D+00 EMaxC= 1.00D-01 BMatC= 3.88D-05 BMatP= 6.09D-03
 IDIUse=3 WtCom= 9.91D-01 WtEn= 8.56D-03
 Coeff-Com:  0.688D-02-0.623D-01-0.238D+00 0.129D+01
 Coeff-En:   0.000D+00 0.000D+00 0.000D+00 0.100D+01
 Coeff:      0.682D-02-0.617D-01-0.236D+00 0.129D+01
 Gap=     0.608 Goal=   None    Shift=    0.000
 RMSDP=5.34D-05 MaxDP=1.03D-03 DE=-3.80D-03 OVMax= 2.62D-03

 Cycle   5  Pass 1  IDiag  1:
 E= -152.107894391074     Delta-E=       -0.000052780475 Rises=F Damp=F
 DIIS: error= 1.92D-04 at cycle   5 NSaved=   5.
 NSaved= 5 IEnMin= 5 EnMin= -152.107894391074     IErMin= 5 ErrMin= 1.92D-04
 ErrMax= 1.92D-04  0.00D+00 EMaxC= 1.00D-01 BMatC= 1.40D-06 BMatP= 3.88D-05
 IDIUse=3 WtCom= 9.98D-01 WtEn= 1.92D-03
 Coeff-Com:  0.675D-03-0.720D-03-0.736D-02-0.192D+00 0.120D+01
 Coeff-En:   0.000D+00 0.000D+00 0.000D+00 0.000D+00 0.100D+01
 Coeff:      0.674D-03-0.718D-03-0.735D-02-0.192D+00 0.120D+01
 Gap=     0.609 Goal=   None    Shift=    0.000
 RMSDP=1.42D-05 MaxDP=3.13D-04 DE=-5.28D-05 OVMax= 7.38D-04

 Cycle   6  Pass 1  IDiag  1:
 E= -152.107897239126     Delta-E=       -0.000002848051 Rises=F Damp=F
 DIIS: error= 3.15D-05 at cycle   6 NSaved=   6.
 NSaved= 6 IEnMin= 6 EnMin= -152.107897239126     IErMin= 6 ErrMin= 3.15D-05
 ErrMax= 3.15D-05  0.00D+00 EMaxC= 1.00D-01 BMatC= 5.24D-08 BMatP= 1.40D-06
 IDIUse=1 WtCom= 1.00D+00 WtEn= 0.00D+00
 Coeff-Com: -0.197D-03 0.191D-02 0.724D-02-0.459D-01-0.177D-01 0.105D+01
 Coeff:     -0.197D-03 0.191D-02 0.724D-02-0.459D-01-0.177D-01 0.105D+01
 Gap=     0.609 Goal=   None    Shift=    0.000
 RMSDP=2.91D-06 MaxDP=7.16D-05 DE=-2.85D-06 OVMax= 1.51D-04

 Cycle   7  Pass 1  IDiag  1:
 E= -152.107897344471     Delta-E=       -0.000000105345 Rises=F Damp=F
 DIIS: error= 1.00D-05 at cycle   7 NSaved=   7.
 NSaved= 7 IEnMin= 7 EnMin= -152.107897344471     IErMin= 7 ErrMin= 1.00D-05
 ErrMax= 1.00D-05  0.00D+00 EMaxC= 1.00D-01 BMatC= 9.15D-09 BMatP= 5.24D-08
 IDIUse=1 WtCom= 1.00D+00 WtEn= 0.00D+00
 Coeff-Com: -0.108D-03 0.443D-03 0.201D-02 0.112D-01-0.134D+00 0.260D+00
 Coeff-Com:  0.861D+00
 Coeff:     -0.108D-03 0.443D-03 0.201D-02 0.112D-01-0.134D+00 0.260D+00
 Coeff:      0.861D+00
 Gap=     0.609 Goal=   None    Shift=    0.000
 RMSDP=8.25D-07 MaxDP=2.40D-05 DE=-1.05D-07 OVMax= 4.92D-05

 Cycle   8  Pass 1  IDiag  1:
 E= -152.107897355745     Delta-E=       -0.000000011274 Rises=F Damp=F
 DIIS: error= 2.27D-06 at cycle   8 NSaved=   8.
 NSaved= 8 IEnMin= 8 EnMin= -152.107897355745     IErMin= 8 ErrMin= 2.27D-06
 ErrMax= 2.27D-06  0.00D+00 EMaxC= 1.00D-01 BMatC= 5.46D-10 BMatP= 9.15D-09
 IDIUse=1 WtCom= 1.00D+00 WtEn= 0.00D+00
 Coeff-Com:  0.243D-04-0.238D-03-0.928D-03 0.588D-02 0.295D-02-0.109D+00
 Coeff-Com: -0.197D-01 0.112D+01
 Coeff:      0.243D-04-0.238D-03-0.928D-03 0.588D-02 0.295D-02-0.109D+00
 Coeff:     -0.197D-01 0.112D+01
 Gap=     0.609 Goal=   None    Shift=    0.000
 RMSDP=2.24D-07 MaxDP=4.91D-06 DE=-1.13D-08 OVMax= 1.50D-05

 Cycle   9  Pass 1  IDiag  1:
 E= -152.107897356755     Delta-E=       -0.000000001010 Rises=F Damp=F
 DIIS: error= 7.96D-07 at cycle   9 NSaved=   9.
 NSaved= 9 IEnMin= 9 EnMin= -152.107897356755     IErMin= 9 ErrMin= 7.96D-07
 ErrMax= 7.96D-07  0.00D+00 EMaxC= 1.00D-01 BMatC= 3.01D-11 BMatP= 5.46D-10
 IDIUse=1 WtCom= 1.00D+00 WtEn= 0.00D+00
 Coeff-Com:  0.243D-05 0.221D-04 0.878D-04-0.242D-02 0.973D-02 0.673D-02
 Coeff-Com: -0.583D-01-0.240D+00 0.128D+01
 Coeff:      0.243D-05 0.221D-04 0.878D-04-0.242D-02 0.973D-02 0.673D-02
 Coeff:     -0.583D-01-0.240D+00 0.128D+01
 Gap=     0.609 Goal=   None    Shift=    0.000
 RMSDP=6.23D-08 MaxDP=1.30D-06 DE=-1.01D-09 OVMax= 3.39D-06

 Cycle  10  Pass 1  IDiag  1:
 E= -152.107897356820     Delta-E=       -0.000000000065 Rises=F Damp=F
 DIIS: error= 1.16D-07 at cycle  10 NSaved=  10.
 NSaved=10 IEnMin=10 EnMin= -152.107897356820     IErMin=10 ErrMin= 1.16D-07
 ErrMax= 1.16D-07  0.00D+00 EMaxC= 1.00D-01 BMatC= 6.27D-13 BMatP= 3.01D-11
 IDIUse=1 WtCom= 1.00D+00 WtEn= 0.00D+00
 Coeff-Com: -0.855D-06 0.269D-05 0.845D-05 0.175D-03-0.106D-02 0.242D-03
 Coeff-Com:  0.812D-02 0.221D-01-0.238D+00 0.121D+01
 Coeff:     -0.855D-06 0.269D-05 0.845D-05 0.175D-03-0.106D-02 0.242D-03
 Coeff:      0.812D-02 0.221D-01-0.238D+00 0.121D+01
 Gap=     0.609 Goal=   None    Shift=    0.000
 RMSDP=8.13D-09 MaxDP=1.51D-07 DE=-6.49D-11 OVMax= 4.87D-07

 SCF Done:  E(RHF) =  -152.107897357     A.U. after   10 cycles
            NFock= 10  Conv=0.81D-08     -V/T= 2.0020
 KE= 1.518091162322D+02 PE=-4.315713868279D+02 EE= 9.266359635625D+01
 Leave Link  502 at Sat Aug 27 03:53:29 2022, MaxMem=   536870912 cpu:               4.1 elap:               1.1
 (Enter /usr/site/hpc/x86_64/glibc-2.17/broadwell/gaussian/g16_a.03/pgi-16.5/g16/l801.exe)
 Windowed orbitals will be sorted by symmetry type.
 ExpMin= 1.03D-01 ExpMax= 1.53D+04 ExpMxC= 5.22D+02 IAcc=3 IRadAn=         5 AccDes= 0.00D+00
 HarFok:  IExCor=  205 AccDes= 0.00D+00 IRadAn=         5 IDoV=-2 UseB2=F ITyADJ=14
 ICtDFT= 12500011 ScaDFX=  1.000000  1.000000  1.000000  1.000000
 Largest valence mixing into a core orbital is  1.12D-04
 Largest core mixing into a valence orbital is  1.77D-05
 Range of M.O.s used for correlation:     3   116
 NBasis=   116 NAE=    10 NBE=    10 NFC=     2 NFV=     0
 NROrb=    114 NOA=     8 NOB=     8 NVA=   106 NVB=   106
 Leave Link  801 at Sat Aug 27 03:53:29 2022, MaxMem=   536870912 cpu:               0.3 elap:               0.1
 (Enter /usr/site/hpc/x86_64/glibc-2.17/broadwell/gaussian/g16_a.03/pgi-16.5/g16/l804.exe)
 Closed-shell transformation, MDV=   536870912 ITran=4 ISComp=2.
 Unit  1 TFree=        834515 TCopy=        406125.
 Semi-Direct transformation.
 ModeAB=           4 MOrb=             8 LenV=     536364313
 LASXX=      2873146 LTotXX=     2873146 LenRXX=     5831278
 LTotAB=     2958132 MaxLAS=     7508496 LenRXY=           0
 NonZer=     8704424 LenScr=    13107200 LnRSAI=     7508496
 LnScr1=    11534336 LExtra=           0 Total=     37981310
 MaxDsk=          -1 SrtSym=           T ITran=            4
 DoSDTr:  NPSUse=  4
 JobTyp=0 Pass  1:  I=   1 to   8.
 (rs|ai) integrals will be sorted in core.
 Complete sort for first half transformation.
 First half transformation complete.
 Complete sort for second half transformation.
 Second half transformation complete.
 Spin components of T(2) and E(2):
     alpha-alpha T2 =       0.1570692762D-01 E2=     -0.6417338328D-01
     alpha-beta  T2 =       0.9227362837D-01 E2=     -0.3991675002D+00
     beta-beta   T2 =       0.1570692762D-01 E2=     -0.6417338328D-01
 ANorm=    0.1060041265D+01
 E2 =    -0.5275142668D+00 EUMP2 =    -0.15263541162358D+03
 Leave Link  804 at Sat Aug 27 03:53:30 2022, MaxMem=   536870912 cpu:               4.4 elap:               1.1
 (Enter /usr/site/hpc/x86_64/glibc-2.17/broadwell/gaussian/g16_a.03/pgi-16.5/g16/l913.exe)
 CIDS:  MDV=   536870912.
 Frozen-core window:  NFC=   2 NFV=   0.
 IFCWin=0 IBDFC=1 NFBD=     0     0 NFCmp=     0     0 NFFFC=     0     0
 Using DD3R+UMP44R for 1st iteration.
 Using DD4RQ for 2nd and later iterations.
 Keep R2 and R3 ints in memory in symmetry-blocked form, NReq=35357534.
 FoFCou: FMM=F IPFlag=           0 FMFlag=           0 FMFlg1=           0
         NFxFlg=           0 DoJE=F BraDBF=F KetDBF=F FulRan=T
         wScrn=  0.000000 ICntrl=       600 IOpCl=  0 I1Cent=           0 NGrid=           0
         NMat0=    1 NMatS0=   6786 NMatT0=    0 NMatD0=    1 NMtDS0=    0 NMtDT0=    0
 Petite list used in FoFCou.
 CIDS: In Core Option IDoMem=           1.
 CCSD(T)
 =======
 Iterations=  50 Convergence= 0.100D-06
 Produce multiple copies of IABC intergrals
 Iteration Nr.   1
 **********************
 DD1Dir will call FoFMem   1 times, MxPair=        72
 NAB=    36 NAA=     0 NBB=     0.
 MP4(R+Q)=  0.76653647D-02
 Maximum subspace dimension=  5
 A-vector RMS=  1.8063150D-03 Max=  5.4688189D-03 conv= 1.00D-05.
 RLE energy=       -0.5270402224
 E3=       -0.72614430D-02        EUMP3=      -0.15264267307D+03
 E4(DQ)=   -0.14756312D-02        UMP4(DQ)=   -0.15264414870D+03
 E4(SDQ)=  -0.46121223D-02        UMP4(SDQ)=  -0.15264728519D+03
 VARIATIONAL ENERGIES WITH THE FIRST-ORDER WAVEFUNCTION:
 DE(Corr)= -0.52703981     E(Corr)=     -152.63493716    
 NORM(A)=   0.10603002D+01
 Iteration Nr.   2
 **********************
 DD1Dir will call FoFMem   1 times, MxPair=        72
 NAB=    36 NAA=     0 NBB=     0.
 A-vector RMS=  2.1044443D-04 Max=  1.6165100D-03 conv= 1.00D-05.
 RLE energy=       -0.5381734648
 DE(Corr)= -0.53704382     E(CORR)=     -152.64494118     Delta=-1.00D-02
 NORM(A)=   0.10640865D+01
 Iteration Nr.   3
 **********************
 DD1Dir will call FoFMem   1 times, MxPair=        72
 NAB=    36 NAA=     0 NBB=     0.
 A-vector RMS=  1.5567458D-04 Max=  9.1177985D-04 conv= 1.00D-05.
 RLE energy=       -0.5386736128
 DE(Corr)= -0.53807817     E(CORR)=     -152.64597553     Delta=-1.03D-03
 NORM(A)=   0.10647292D+01
 Iteration Nr.   4
 **********************
 DD1Dir will call FoFMem   1 times, MxPair=        72
 NAB=    36 NAA=     0 NBB=     0.
 A-vector RMS=  3.0458960D-05 Max=  1.5067891D-04 conv= 1.00D-05.
 RLE energy=       -0.5387537449
 DE(Corr)= -0.53871917     E(CORR)=     -152.64661653     Delta=-6.41D-04
 NORM(A)=   0.10648441D+01
 Iteration Nr.   5
 **********************
 DD1Dir will call FoFMem   1 times, MxPair=        72
 NAB=    36 NAA=     0 NBB=     0.
 A-vector RMS=  1.9413699D-05 Max=  1.5671881D-04 conv= 1.00D-05.
 RLE energy=       -0.5387657663
 DE(Corr)= -0.53875822     E(CORR)=     -152.64665558     Delta=-3.91D-05
 NORM(A)=   0.10648564D+01
 Iteration Nr.   6
 **********************
 DD1Dir will call FoFMem   1 times, MxPair=        72
 NAB=    36 NAA=     0 NBB=     0.
 A-vector RMS=  6.0191205D-06 Max=  4.7719348D-05 conv= 1.00D-05.
 RLE energy=       -0.5387570349
 DE(Corr)= -0.53876185     E(CORR)=     -152.64665921     Delta=-3.63D-06
 NORM(A)=   0.10648562D+01
 Iteration Nr.   7
 **********************
 DD1Dir will call FoFMem   1 times, MxPair=        72
 NAB=    36 NAA=     0 NBB=     0.
 A-vector RMS=  2.6085444D-06 Max=  2.2048537D-05 conv= 1.00D-05.
 RLE energy=       -0.5387617531
 DE(Corr)= -0.53876203     E(CORR)=     -152.64665939     Delta=-1.77D-07
 NORM(A)=   0.10648581D+01
 Iteration Nr.   8
 **********************
 DD1Dir will call FoFMem   1 times, MxPair=        72
 NAB=    36 NAA=     0 NBB=     0.
 A-vector RMS=  9.6594268D-07 Max=  8.9140516D-06 conv= 1.00D-05.
 RLE energy=       -0.5387613387
 DE(Corr)= -0.53876155     E(CORR)=     -152.64665891     Delta= 4.79D-07
 NORM(A)=   0.10648583D+01
 Iteration Nr.   9
 **********************
 DD1Dir will call FoFMem   1 times, MxPair=        72
 NAB=    36 NAA=     0 NBB=     0.
 A-vector RMS=  1.8970298D-07 Max=  2.0348186D-06 conv= 1.00D-05.
 RLE energy=       -0.5387616048
 DE(Corr)= -0.53876168     E(CORR)=     -152.64665903     Delta=-1.25D-07
 NORM(A)=   0.10648587D+01
 Iteration Nr.  10
 **********************
 DD1Dir will call FoFMem   1 times, MxPair=        72
 NAB=    36 NAA=     0 NBB=     0.
 A-vector RMS=  7.4891557D-08 Max=  6.5210585D-07 conv= 1.00D-05.
 RLE energy=       -0.5387618081
 DE(Corr)= -0.53876179     E(CORR)=     -152.64665915     Delta=-1.15D-07
 NORM(A)=   0.10648588D+01
 Iteration Nr.  11
 **********************
 DD1Dir will call FoFMem   1 times, MxPair=        72
 NAB=    36 NAA=     0 NBB=     0.
 A-vector RMS=  2.6604175D-08 Max=  2.3903629D-07 conv= 1.00D-05.
 RLE energy=       -0.5387618633
 DE(Corr)= -0.53876185     E(CORR)=     -152.64665920     Delta=-5.57D-08
 NORM(A)=   0.10648589D+01
 CI/CC converged in   11 iterations to DelEn=-5.57D-08 Conv= 1.00D-07 ErrA1= 2.66D-08 Conv= 1.00D-05
 Wavefunction amplitudes converged. E(Corr)=     -152.64665920    
 Largest amplitude= 3.39D-02
 IPart=  3 IA=    7   11.05% done.
 IPart=  1 IA=   13   21.46% done.
 IPart=  2 IA=   19   31.21% done.
 IPart=  2 IA=   25   40.32% done.
 IPart=  2 IA=   32   50.13% done.
 IPart=  2 IA=   40   60.27% done.
 IPart=  2 IA=   49   70.30% done.
 IPart=  1 IA=   60   80.58% done.
 IPart=  3 IA=   74   90.51% done.
 Time for triples=       74.25 seconds.
 T4(CCSD)= -0.16277299D-01
 T5(CCSD)=  0.42097354D-03
 CCSD(T)= -0.15266251553D+03
 Discarding MO integrals.
 Leave Link  913 at Sat Aug 27 03:53:58 2022, MaxMem=   536870912 cpu:             106.1 elap:              28.3
 (Enter /usr/site/hpc/x86_64/glibc-2.17/broadwell/gaussian/g16_a.03/pgi-16.5/g16/l601.exe)
 Copying SCF densities to generalized density rwf, IOpCl= 0 IROHF=0.

 **********************************************************************

            Population analysis using the SCF density.

 **********************************************************************

 Orbital symmetries:
       Occupied  (A') (A') (A') (A') (A') (A') (A') (A') (A") (A")
       Virtual   (A') (A') (A') (A') (A') (A') (A') (A') (A') (A')
                 (A") (A') (A') (A") (A") (A") (A') (A") (A") (A')
                 (A') (A') (A') (A') (A') (A') (A') (A') (A") (A")
                 (A") (A") (A') (A') (A') (A') (A') (A') (A') (A')
                 (A') (A') (A") (A") (A') (A') (A") (A") (A') (A')
                 (A") (A") (A') (A') (A') (A") (A") (A') (A") (A")
                 (A') (A') (A') (A') (A") (A") (A') (A') (A') (A')
                 (A") (A") (A') (A') (A') (A') (A') (A') (A') (A')
                 (A") (A") (A') (A') (A") (A") (A") (A") (A') (A")
                 (A') (A") (A') (A') (A') (A") (A') (A") (A') (A')
                 (A') (A') (A') (A') (A') (A')
 The electronic state is 1-A'.
 Alpha  occ. eigenvalues --  -20.56179 -20.53276  -1.33513  -1.30579  -0.70916
 Alpha  occ. eigenvalues --   -0.68115  -0.56799  -0.54050  -0.50625  -0.47702
 Alpha virt. eigenvalues --    0.13191   0.17245   0.19698   0.24746   0.52714
 Alpha virt. eigenvalues --    0.56025   0.56858   0.58764   0.68803   0.75001
 Alpha virt. eigenvalues --    0.75577   0.77743   0.81206   0.82052   0.84322
 Alpha virt. eigenvalues --    0.86924   0.87809   0.98415   1.00743   1.06437
 Alpha virt. eigenvalues --    1.12392   1.18542   1.19303   1.35543   1.50860
 Alpha virt. eigenvalues --    1.51652   1.54221   1.58616   1.99942   2.02795
 Alpha virt. eigenvalues --    2.06139   2.09342   2.09852   2.14377   2.19140
 Alpha virt. eigenvalues --    2.28901   2.30983   2.34357   2.60969   2.65848
 Alpha virt. eigenvalues --    2.92896   2.96469   3.38759   3.41705   3.49279
 Alpha virt. eigenvalues --    3.52359   3.52549   3.55509   3.58776   3.63668
 Alpha virt. eigenvalues --    3.78027   3.80753   3.84926   3.89521   3.89816
 Alpha virt. eigenvalues --    3.92954   3.95626   4.00686   4.04204   4.05334
 Alpha virt. eigenvalues --    4.08537   4.11438   4.16625   4.20679   4.29467
 Alpha virt. eigenvalues --    4.32589   4.41240   4.44763   4.46427   4.51906
 Alpha virt. eigenvalues --    4.65905   4.69197   4.83524   4.86385   5.04042
 Alpha virt. eigenvalues --    5.08370   5.26422   5.28885   5.55787   5.56904
 Alpha virt. eigenvalues --    5.97224   6.00169   6.39703   6.43394   6.85498
 Alpha virt. eigenvalues --    6.88411   6.89002   6.91927   6.95001   6.98403
 Alpha virt. eigenvalues --    6.98507   7.01410   7.08009   7.10179   7.14696
 Alpha virt. eigenvalues --    7.17563   7.18113   7.20684   7.46881   7.52596
 Alpha virt. eigenvalues --    7.70583   7.74757   8.16788   8.18727  12.52567
 Alpha virt. eigenvalues --   12.65723
          Condensed to atoms (all electrons):
               1          2          3          4          5          6
     1  O    7.831558   0.314089   0.335123  -0.004281  -0.000064   0.011933
     2  H    0.314089   0.470995  -0.025747   0.000238  -0.000012  -0.001652
     3  H    0.335123  -0.025747   0.433235   0.000425  -0.000010  -0.000950
     4  O   -0.004281   0.000238   0.000425   7.842706   0.330036   0.337915
     5  H   -0.000064  -0.000012  -0.000010   0.330036   0.469571  -0.033456
     6  H    0.011933  -0.001652  -0.000950   0.337915  -0.033456   0.424761
 Mulliken charges:
               1
     1  O   -0.488359
     2  H    0.242089
     3  H    0.257925
     4  O   -0.507039
     5  H    0.233935
     6  H    0.261449
 Sum of Mulliken charges =  -0.00000
 Mulliken charges with hydrogens summed into heavy atoms:
               1
     1  O    0.011655
     4  O   -0.011655
 Electronic spatial extent (au):  <R**2>=            207.4079
 Charge=             -0.0000 electrons
 Dipole moment (field-independent basis, Debye):
    X=             -1.8300    Y=             -1.8015    Z=              0.0000  Tot=              2.5680
 Quadrupole moment (field-independent basis, Debye-Ang):
   XX=             -9.7920   YY=             -3.2342   ZZ=            -14.7250
   XY=             -2.8076   XZ=              0.0000   YZ=              0.0000
 Traceless Quadrupole moment (field-independent basis, Debye-Ang):
   XX=             -0.5416   YY=              6.0162   ZZ=             -5.4746
   XY=             -2.8076   XZ=              0.0000   YZ=              0.0000
 Octapole moment (field-independent basis, Debye-Ang**2):
  XXX=             -0.7139  YYY=             -3.0729  ZZZ=              0.0000  XYY=             -4.0375
  XXY=             -5.1220  XXZ=              0.0000  XZZ=             -0.2162  YZZ=             -0.2996
  YYZ=              0.0000  XYZ=              0.0000
 Hexadecapole moment (field-independent basis, Debye-Ang**3):
 XXXX=            -12.0129 YYYY=           -116.0919 ZZZZ=            -11.3736 XXXY=              0.6449
 XXXZ=              0.0000 YYYX=             -9.0921 YYYZ=              0.0000 ZZZX=              0.0000
 ZZZY=              0.0000 XXYY=            -23.9196 XXZZ=             -4.4079 YYZZ=            -39.3174
 XXYZ=              0.0000 YYXZ=              0.0000 ZZXY=              0.7967
 N-N= 3.499077688267D+01 E-N=-4.315713862418D+02  KE= 1.518091162322D+02
 Symmetry A'   KE= 1.427749673069D+02
 Symmetry A"   KE= 9.034148925348D+00
 Leave Link  601 at Sat Aug 27 03:53:58 2022, MaxMem=   536870912 cpu:               0.2 elap:               0.1
 (Enter /usr/site/hpc/x86_64/glibc-2.17/broadwell/gaussian/g16_a.03/pgi-16.5/g16/l9999.exe)
 1\1\GINC-N003\SP\RCCSD(T)-FC\CC-pVTZ\H4O2\C7441284\27-Aug-2022\0\\#p C
 CSD(T)/cc-pVTZ\\H2O_H2O_1321\\0,1\O,0,0.,-0.009833,0.\H,0,-0.799571,-0
 .580965,0.\H,0,0.799571,-0.580965,0.\O,0,-0.009644,2.972225,0.\H,0,-0.
 413813,3.867855,0.\H,0,-0.725791,2.299439,0.\\Version=ES64L-G16RevA.03
 \State=1-A'\HF=-152.1078974\MP2=-152.6354116\MP3=-152.6426731\MP4D=-15
 2.6518141\MP4DQ=-152.6441487\MP4SDQ=-152.6472852\CCSD=-152.6466592\CCS
 D(T)=-152.6625155\RMSD=8.133e-09\PG=CS [SG(H4O2)]\\@


 ADAM SMITH SAID, "THE REAL PRICE OF ANYTHING IS THE TOIL AND TROUBLE
 OF ACQUIRING IT."  BUT IN ALL UNDERTAKINGS WITH NATURE WE SHOULD FIRST
 READ CAREFULLY THE SMALL PRINT IN THE CONTRACT. THIS MIGHT DISCLOSE
 THAT THE REAL PRICE IS TO BE PAID BY THOSE WHO INHERIT THE DEPLETION
 AND DESPOILATION THAT FOLLOWS.
                               -- E. R. HARRISON IN "COSMOLOGY" (1980)
 Job cpu time:       0 days  0 hours  1 minutes 57.3 seconds.
 Elapsed time:       0 days  0 hours  0 minutes 31.4 seconds.
 File lengths (MBytes):  RWF=    360 Int=      0 D2E=      0 Chk=      8 Scr=      8
 Normal termination of Gaussian 16 at Sat Aug 27 03:53:58 2022.
