 Entering Gaussian System, Link 0=g16
 Input=H2O_H2O_3561.com
 Output=H2O_H2O_3561.log
 Initial command:
 /usr/site/hpc/x86_64/glibc-2.17/broadwell/gaussian/g16_a.03/pgi-16.5/g16/l1.exe "/gpfs/gpfs1/scratch/c7441284/ForceFieldModel/FittingData/Gau-3505279.inp" -scrdir="/gpfs/gpfs1/scratch/c7441284/ForceFieldModel/FittingData/"
 Entering Link 1 = /usr/site/hpc/x86_64/glibc-2.17/broadwell/gaussian/g16_a.03/pgi-16.5/g16/l1.exe PID=   3505280.
  
 Copyright (c) 1988,1990,1992,1993,1995,1998,2003,2009,2016,
            Gaussian, Inc.  All Rights Reserved.
  
 This is part of the Gaussian(R) 16 program.  It is based on
 the Gaussian(R) 09 system (copyright 2009, Gaussian, Inc.),
 the Gaussian(R) 03 system (copyright 2003, Gaussian, Inc.),
 the Gaussian(R) 98 system (copyright 1998, Gaussian, Inc.),
 the Gaussian(R) 94 system (copyright 1995, Gaussian, Inc.),
 the Gaussian 92(TM) system (copyright 1992, Gaussian, Inc.),
 the Gaussian 90(TM) system (copyright 1990, Gaussian, Inc.),
 the Gaussian 88(TM) system (copyright 1988, Gaussian, Inc.),
 the Gaussian 86(TM) system (copyright 1986, Carnegie Mellon
 University), and the Gaussian 82(TM) system (copyright 1983,
 Carnegie Mellon University). Gaussian is a federally registered
 trademark of Gaussian, Inc.
  
 This software contains proprietary and confidential information,
 including trade secrets, belonging to Gaussian, Inc.
  
 This software is provided under written license and may be
 used, copied, transmitted, or stored only in accord with that
 written license.
  
 The following legend is applicable only to US Government
 contracts under FAR:
  
                    RESTRICTED RIGHTS LEGEND
  
 Use, reproduction and disclosure by the US Government is
 subject to restrictions as set forth in subparagraphs (a)
 and (c) of the Commercial Computer Software - Restricted
 Rights clause in FAR 52.227-19.
  
 Gaussian, Inc.
 340 Quinnipiac St., Bldg. 40, Wallingford CT 06492
  
  
 ---------------------------------------------------------------
 Warning -- This program may not be used in any manner that
 competes with the business of Gaussian, Inc. or will provide
 assistance to any competitor of Gaussian, Inc.  The licensee
 of this program is prohibited from giving any competitor of
 Gaussian, Inc. access to this program.  By using this program,
 the user acknowledges that Gaussian, Inc. is engaged in the
 business of creating and licensing software in the field of
 computational chemistry and represents and warrants to the
 licensee that it is not a competitor of Gaussian, Inc. and that
 it will not use this program in any manner prohibited above.
 ---------------------------------------------------------------
  

 Cite this work as:
 Gaussian 16, Revision A.03,
 M. J. Frisch, G. W. Trucks, H. B. Schlegel, G. E. Scuseria, 
 M. A. Robb, J. R. Cheeseman, G. Scalmani, V. Barone, 
 G. A. Petersson, H. Nakatsuji, X. Li, M. Caricato, A. V. Marenich, 
 J. Bloino, B. G. Janesko, R. Gomperts, B. Mennucci, H. P. Hratchian, 
 J. V. Ortiz, A. F. Izmaylov, J. L. Sonnenberg, D. Williams-Young, 
 F. Ding, F. Lipparini, F. Egidi, J. Goings, B. Peng, A. Petrone, 
 T. Henderson, D. Ranasinghe, V. G. Zakrzewski, J. Gao, N. Rega, 
 G. Zheng, W. Liang, M. Hada, M. Ehara, K. Toyota, R. Fukuda, 
 J. Hasegawa, M. Ishida, T. Nakajima, Y. Honda, O. Kitao, H. Nakai, 
 T. Vreven, K. Throssell, J. A. Montgomery, Jr., J. E. Peralta, 
 F. Ogliaro, M. J. Bearpark, J. J. Heyd, E. N. Brothers, K. N. Kudin, 
 V. N. Staroverov, T. A. Keith, R. Kobayashi, J. Normand, 
 K. Raghavachari, A. P. Rendell, J. C. Burant, S. S. Iyengar, 
 J. Tomasi, M. Cossi, J. M. Millam, M. Klene, C. Adamo, R. Cammi, 
 J. W. Ochterski, R. L. Martin, K. Morokuma, O. Farkas, 
 J. B. Foresman, and D. J. Fox, Gaussian, Inc., Wallingford CT, 2016.
 
 ******************************************
 Gaussian 16:  ES64L-G16RevA.03 25-Dec-2016
                27-Aug-2022 
 ******************************************
 %NProcShared=4
 Will use up to    4 processors via shared memory.
 %Mem=4GB
 %Chk=H2O_H2O_3561.chk
 ------------------
 #p CCSD(T)/cc-pVTZ
 ------------------
 1/38=1,172=1/1;
 2/12=2,17=6,18=5,40=1/2;
 3/5=16,6=1,11=9,25=1,30=1/1,2,3;
 4//1;
 5/5=2,38=5/2;
 8/6=4,9=120000,10=1/1,4;
 9/5=7,14=2/13;
 6/7=2,8=2,9=2,10=2/1;
 99/5=1,9=1/99;
 Leave Link    1 at Sat Aug 27 01:29:56 2022, MaxMem=   536870912 cpu:               0.4 elap:               0.1
 (Enter /usr/site/hpc/x86_64/glibc-2.17/broadwell/gaussian/g16_a.03/pgi-16.5/g16/l101.exe)
 ------------
 H2O_H2O_3561
 ------------
 Symbolic Z-matrix:
 Charge =  0 Multiplicity = 1
 O                     0.       -0.00983   0. 
 H                    -0.79957  -0.58097   0. 
 H                     0.79957  -0.58097   0. 
 O                    -0.00648   5.37096   0. 
 H                     0.21809   6.32756   0. 
 H                    -0.98421   5.27317   0. 
 
 ITRead=  0  0  0  0  0  0
 MicOpt= -1 -1 -1 -1 -1 -1
 NAtoms=      6 NQM=        6 NQMF=       0 NMMI=      0 NMMIF=      0
                NMic=       0 NMicF=      0.
                    Isotopes and Nuclear Properties:
 (Nuclear quadrupole moments (NQMom) in fm**2, nuclear magnetic moments (NMagM)
  in nuclear magnetons)

  Atom         1           2           3           4           5           6
 IAtWgt=          16           1           1          16           1           1
 AtmWgt=  15.9949146   1.0078250   1.0078250  15.9949146   1.0078250   1.0078250
 NucSpn=           0           1           1           0           1           1
 AtZEff=  -0.0000000  -0.0000000  -0.0000000  -0.0000000  -0.0000000  -0.0000000
 NQMom=    0.0000000   0.0000000   0.0000000   0.0000000   0.0000000   0.0000000
 NMagM=    0.0000000   2.7928460   2.7928460   0.0000000   2.7928460   2.7928460
 AtZNuc=   8.0000000   1.0000000   1.0000000   8.0000000   1.0000000   1.0000000
 Leave Link  101 at Sat Aug 27 01:29:56 2022, MaxMem=   536870912 cpu:               0.6 elap:               0.2
 (Enter /usr/site/hpc/x86_64/glibc-2.17/broadwell/gaussian/g16_a.03/pgi-16.5/g16/l202.exe)
                          Input orientation:                          
 ---------------------------------------------------------------------
 Center     Atomic      Atomic             Coordinates (Angstroms)
 Number     Number       Type             X           Y           Z
 ---------------------------------------------------------------------
      1          8           0        0.000000   -0.009833    0.000000
      2          1           0       -0.799571   -0.580965    0.000000
      3          1           0        0.799571   -0.580965    0.000000
      4          8           0       -0.006483    5.370963    0.000000
      5          1           0        0.218093    6.327557    0.000000
      6          1           0       -0.984207    5.273169    0.000000
 ---------------------------------------------------------------------
                    Distance matrix (angstroms):
                    1          2          3          4          5
     1  O    0.000000
     2  H    0.982601   0.000000
     3  H    0.982601   1.599142   0.000000
     4  O    5.380800   6.004535   6.006261   0.000000
     5  H    6.341142   6.983074   6.932950   0.982602   0.000000
     6  H    5.373897   5.857045   6.119865   0.982603   1.599143
                    6
     6  H    0.000000
 Stoichiometry    H4O2
 Framework group  CS[SG(H4O2)]
 Deg. of freedom     9
 Full point group                 CS      NOp   2
 Largest Abelian subgroup         CS      NOp   2
 Largest concise Abelian subgroup C1      NOp   1
                         Standard orientation:                         
 ---------------------------------------------------------------------
 Center     Atomic      Atomic             Coordinates (Angstroms)
 Number     Number       Type             X           Y           Z
 ---------------------------------------------------------------------
      1          8           0        0.037674   -2.676272    0.000000
      2          1           0       -0.762584   -3.246440    0.000000
      3          1           0        0.836557   -3.248367    0.000000
      4          8           0        0.037674    2.704528    0.000000
      5          1           0        0.263403    3.660850    0.000000
      6          1           0       -0.940167    2.607912    0.000000
 ---------------------------------------------------------------------
 Rotational constants (GHZ):         221.9897170           1.8499590           1.8346697
 Leave Link  202 at Sat Aug 27 01:29:57 2022, MaxMem=   536870912 cpu:               0.0 elap:               0.0
 (Enter /usr/site/hpc/x86_64/glibc-2.17/broadwell/gaussian/g16_a.03/pgi-16.5/g16/l301.exe)
 Standard basis: CC-pVTZ (5D, 7F)
 Ernie: Thresh=  0.10000D-02 Tol=  0.10000D-05 Strict=F.
 Ernie:  6 primitive shells out of 84 were deleted.
 There are    92 symmetry adapted cartesian basis functions of A'  symmetry.
 There are    38 symmetry adapted cartesian basis functions of A"  symmetry.
 There are    80 symmetry adapted basis functions of A'  symmetry.
 There are    36 symmetry adapted basis functions of A"  symmetry.
   116 basis functions,   172 primitive gaussians,   130 cartesian basis functions
    10 alpha electrons       10 beta electrons
       nuclear repulsion energy        27.3836191732 Hartrees.
 IExCor=    0 DFT=F Ex=HF Corr=None ExCW=0 ScaHFX=  1.000000
 ScaDFX=  1.000000  1.000000  1.000000  1.000000 ScalE2=  1.000000  1.000000
 IRadAn=      5 IRanWt=     -1 IRanGd=            0 ICorTp=0 IEmpDi=  4
 NAtoms=    6 NActive=    6 NUniq=    6 SFac= 1.00D+00 NAtFMM=   60 NAOKFM=F Big=F
 Integral buffers will be    131072 words long.
 Raffenetti 1 integral format.
 Two-electron integral symmetry is turned on.
 Leave Link  301 at Sat Aug 27 01:29:57 2022, MaxMem=   536870912 cpu:               0.1 elap:               0.0
 (Enter /usr/site/hpc/x86_64/glibc-2.17/broadwell/gaussian/g16_a.03/pgi-16.5/g16/l302.exe)
 NPDir=0 NMtPBC=     1 NCelOv=     1 NCel=       1 NClECP=     1 NCelD=      1
         NCelK=      1 NCelE2=     1 NClLst=     1 CellRange=     0.0.
 One-electron integrals computed using PRISM.
 One-electron integral symmetry used in STVInt
 NBasis=   116 RedAO= T EigKep=  2.68D-03  NBF=    80    36
 NBsUse=   116 1.00D-06 EigRej= -1.00D+00 NBFU=    80    36
 Leave Link  302 at Sat Aug 27 01:29:57 2022, MaxMem=   536870912 cpu:               0.5 elap:               0.1
 (Enter /usr/site/hpc/x86_64/glibc-2.17/broadwell/gaussian/g16_a.03/pgi-16.5/g16/l303.exe)
 DipDrv:  MaxL=1.
 Leave Link  303 at Sat Aug 27 01:29:57 2022, MaxMem=   536870912 cpu:               0.1 elap:               0.0
 (Enter /usr/site/hpc/x86_64/glibc-2.17/broadwell/gaussian/g16_a.03/pgi-16.5/g16/l401.exe)
 ExpMin= 1.03D-01 ExpMax= 1.53D+04 ExpMxC= 5.22D+02 IAcc=3 IRadAn=         5 AccDes= 0.00D+00
 Harris functional with IExCor=  205 and IRadAn=       5 diagonalized for initial guess.
 HarFok:  IExCor=  205 AccDes= 0.00D+00 IRadAn=         5 IDoV= 1 UseB2=F ITyADJ=14
 ICtDFT=  3500011 ScaDFX=  1.000000  1.000000  1.000000  1.000000
 FoFCou: FMM=F IPFlag=           0 FMFlag=      100000 FMFlg1=           0
         NFxFlg=           0 DoJE=T BraDBF=F KetDBF=T FulRan=T
         wScrn=  0.000000 ICntrl=       500 IOpCl=  0 I1Cent=   200000004 NGrid=           0
         NMat0=    1 NMatS0=      1 NMatT0=    0 NMatD0=    1 NMtDS0=    0 NMtDT0=    0
 Petite list used in FoFCou.
 Harris En= -152.298680502251    
 JPrj=0 DoOrth=F DoCkMO=F.
 Initial guess orbital symmetries:
       Occupied  (A') (A') (A') (A') (A') (A') (A') (A') (A") (A")
       Virtual   (A') (A') (A') (A') (A') (A') (A') (A') (A') (A')
                 (A") (A") (A') (A') (A') (A') (A") (A") (A") (A")
                 (A') (A') (A') (A') (A') (A') (A') (A') (A") (A")
                 (A") (A") (A') (A') (A') (A') (A') (A') (A') (A')
                 (A') (A') (A") (A") (A') (A') (A") (A") (A") (A")
                 (A') (A') (A') (A') (A') (A') (A") (A") (A') (A')
                 (A') (A') (A") (A") (A") (A") (A') (A') (A') (A')
                 (A") (A") (A') (A') (A') (A') (A') (A') (A') (A')
                 (A") (A") (A') (A') (A") (A") (A") (A") (A') (A')
                 (A") (A") (A') (A') (A') (A') (A") (A") (A') (A')
                 (A') (A') (A') (A') (A') (A')
 The electronic state of the initial guess is 1-A'.
 Leave Link  401 at Sat Aug 27 01:29:57 2022, MaxMem=   536870912 cpu:               0.7 elap:               0.2
 (Enter /usr/site/hpc/x86_64/glibc-2.17/broadwell/gaussian/g16_a.03/pgi-16.5/g16/l502.exe)
 Keep R1 ints in memory in symmetry-blocked form, NReq=34823457.
 FoFCou: FMM=F IPFlag=           0 FMFlag=           0 FMFlg1=           0
         NFxFlg=           0 DoJE=F BraDBF=F KetDBF=F FulRan=T
         wScrn=  0.000000 ICntrl=       600 IOpCl=  0 I1Cent=           0 NGrid=           0
         NMat0=    1 NMatS0=   6786 NMatT0=    0 NMatD0=    1 NMtDS0=    0 NMtDT0=    0
 Petite list used in FoFCou.
 Closed shell SCF:
 Using DIIS extrapolation, IDIIS=  1040.
 NGot=   536870912 LenX=   525040673 LenY=   525023332
 Requested convergence on RMS density matrix=1.00D-08 within 128 cycles.
 Requested convergence on MAX density matrix=1.00D-06.
 Requested convergence on             energy=1.00D-06.
 No special actions if energy rises.

 Cycle   1  Pass 1  IDiag  1:
 E= -151.925564459155    
 DIIS: error= 6.51D-02 at cycle   1 NSaved=   1.
 NSaved= 1 IEnMin= 1 EnMin= -151.925564459155     IErMin= 1 ErrMin= 6.51D-02
 ErrMax= 6.51D-02  0.00D+00 EMaxC= 1.00D-01 BMatC= 4.01D-01 BMatP= 4.01D-01
 IDIUse=3 WtCom= 3.49D-01 WtEn= 6.51D-01
 Coeff-Com:  0.100D+01
 Coeff-En:   0.100D+01
 Coeff:      0.100D+01
 Gap=     0.519 Goal=   None    Shift=    0.000
 GapD=    0.519 DampG=2.000 DampE=0.500 DampFc=1.0000 IDamp=-1.
 RMSDP=2.52D-03 MaxDP=6.62D-02              OVMax= 1.28D-01

 Cycle   2  Pass 1  IDiag  1:
 E= -152.037636185359     Delta-E=       -0.112071726203 Rises=F Damp=F
 DIIS: error= 4.11D-02 at cycle   2 NSaved=   2.
 NSaved= 2 IEnMin= 2 EnMin= -152.037636185359     IErMin= 2 ErrMin= 4.11D-02
 ErrMax= 4.11D-02  0.00D+00 EMaxC= 1.00D-01 BMatC= 1.14D-01 BMatP= 4.01D-01
 IDIUse=3 WtCom= 5.89D-01 WtEn= 4.11D-01
 Coeff-Com:  0.320D+00 0.680D+00
 Coeff-En:   0.168D+00 0.832D+00
 Coeff:      0.258D+00 0.742D+00
 Gap=     0.661 Goal=   None    Shift=    0.000
 RMSDP=1.33D-03 MaxDP=3.95D-02 DE=-1.12D-01 OVMax= 5.74D-02

 Cycle   3  Pass 1  IDiag  1:
 E= -152.103001491729     Delta-E=       -0.065365306371 Rises=F Damp=F
 DIIS: error= 8.81D-03 at cycle   3 NSaved=   3.
 NSaved= 3 IEnMin= 3 EnMin= -152.103001491729     IErMin= 3 ErrMin= 8.81D-03
 ErrMax= 8.81D-03  0.00D+00 EMaxC= 1.00D-01 BMatC= 5.93D-03 BMatP= 1.14D-01
 IDIUse=3 WtCom= 9.12D-01 WtEn= 8.81D-02
 Coeff-Com: -0.305D-01 0.154D+00 0.876D+00
 Coeff-En:   0.000D+00 0.000D+00 0.100D+01
 Coeff:     -0.278D-01 0.141D+00 0.887D+00
 Gap=     0.634 Goal=   None    Shift=    0.000
 RMSDP=2.43D-04 MaxDP=5.63D-03 DE=-6.54D-02 OVMax= 1.34D-02

 Cycle   4  Pass 1  IDiag  1:
 E= -152.106706802799     Delta-E=       -0.003705311070 Rises=F Damp=F
 DIIS: error= 8.39D-04 at cycle   4 NSaved=   4.
 NSaved= 4 IEnMin= 4 EnMin= -152.106706802799     IErMin= 4 ErrMin= 8.39D-04
 ErrMax= 8.39D-04  0.00D+00 EMaxC= 1.00D-01 BMatC= 3.72D-05 BMatP= 5.93D-03
 IDIUse=3 WtCom= 9.92D-01 WtEn= 8.39D-03
 Coeff-Com:  0.682D-02-0.608D-01-0.241D+00 0.129D+01
 Coeff-En:   0.000D+00 0.000D+00 0.000D+00 0.100D+01
 Coeff:      0.676D-02-0.603D-01-0.239D+00 0.129D+01
 Gap=     0.636 Goal=   None    Shift=    0.000
 RMSDP=5.19D-05 MaxDP=1.03D-03 DE=-3.71D-03 OVMax= 2.26D-03

 Cycle   5  Pass 1  IDiag  1:
 E= -152.106757514725     Delta-E=       -0.000050711926 Rises=F Damp=F
 DIIS: error= 1.93D-04 at cycle   5 NSaved=   5.
 NSaved= 5 IEnMin= 5 EnMin= -152.106757514725     IErMin= 5 ErrMin= 1.93D-04
 ErrMax= 1.93D-04  0.00D+00 EMaxC= 1.00D-01 BMatC= 1.37D-06 BMatP= 3.72D-05
 IDIUse=3 WtCom= 9.98D-01 WtEn= 1.93D-03
 Coeff-Com:  0.569D-03 0.198D-03-0.364D-02-0.214D+00 0.122D+01
 Coeff-En:   0.000D+00 0.000D+00 0.000D+00 0.000D+00 0.100D+01
 Coeff:      0.568D-03 0.198D-03-0.364D-02-0.214D+00 0.122D+01
 Gap=     0.637 Goal=   None    Shift=    0.000
 RMSDP=1.40D-05 MaxDP=2.88D-04 DE=-5.07D-05 OVMax= 6.88D-04

 Cycle   6  Pass 1  IDiag  1:
 E= -152.106760365922     Delta-E=       -0.000002851198 Rises=F Damp=F
 DIIS: error= 2.92D-05 at cycle   6 NSaved=   6.
 NSaved= 6 IEnMin= 6 EnMin= -152.106760365922     IErMin= 6 ErrMin= 2.92D-05
 ErrMax= 2.92D-05  0.00D+00 EMaxC= 1.00D-01 BMatC= 3.50D-08 BMatP= 1.37D-06
 IDIUse=1 WtCom= 1.00D+00 WtEn= 0.00D+00
 Coeff-Com: -0.280D-03 0.162D-02 0.702D-02 0.273D-04-0.261D+00 0.125D+01
 Coeff:     -0.280D-03 0.162D-02 0.702D-02 0.273D-04-0.261D+00 0.125D+01
 Gap=     0.637 Goal=   None    Shift=    0.000
 RMSDP=3.03D-06 MaxDP=6.64D-05 DE=-2.85D-06 OVMax= 1.55D-04

 Cycle   7  Pass 1  IDiag  1:
 E= -152.106760464934     Delta-E=       -0.000000099011 Rises=F Damp=F
 DIIS: error= 5.42D-06 at cycle   7 NSaved=   7.
 NSaved= 7 IEnMin= 7 EnMin= -152.106760464934     IErMin= 7 ErrMin= 5.42D-06
 ErrMax= 5.42D-06  0.00D+00 EMaxC= 1.00D-01 BMatC= 1.84D-09 BMatP= 3.50D-08
 IDIUse=1 WtCom= 1.00D+00 WtEn= 0.00D+00
 Coeff-Com:  0.302D-04-0.388D-03-0.158D-02 0.139D-01-0.145D-01-0.221D+00
 Coeff-Com:  0.122D+01
 Coeff:      0.302D-04-0.388D-03-0.158D-02 0.139D-01-0.145D-01-0.221D+00
 Coeff:      0.122D+01
 Gap=     0.637 Goal=   None    Shift=    0.000
 RMSDP=4.44D-07 MaxDP=9.34D-06 DE=-9.90D-08 OVMax= 3.04D-05

 Cycle   8  Pass 1  IDiag  1:
 E= -152.106760468802     Delta-E=       -0.000000003869 Rises=F Damp=F
 DIIS: error= 1.62D-06 at cycle   8 NSaved=   8.
 NSaved= 8 IEnMin= 8 EnMin= -152.106760468802     IErMin= 8 ErrMin= 1.62D-06
 ErrMax= 1.62D-06  0.00D+00 EMaxC= 1.00D-01 BMatC= 1.11D-10 BMatP= 1.84D-09
 IDIUse=1 WtCom= 1.00D+00 WtEn= 0.00D+00
 Coeff-Com:  0.881D-05-0.696D-05-0.135D-04-0.325D-02 0.180D-01-0.210D-01
 Coeff-Com: -0.241D+00 0.125D+01
 Coeff:      0.881D-05-0.696D-05-0.135D-04-0.325D-02 0.180D-01-0.210D-01
 Coeff:     -0.241D+00 0.125D+01
 Gap=     0.637 Goal=   None    Shift=    0.000
 RMSDP=1.08D-07 MaxDP=2.51D-06 DE=-3.87D-09 OVMax= 6.84D-06

 Cycle   9  Pass 1  IDiag  1:
 E= -152.106760469027     Delta-E=       -0.000000000225 Rises=F Damp=F
 DIIS: error= 4.50D-07 at cycle   9 NSaved=   9.
 NSaved= 9 IEnMin= 9 EnMin= -152.106760469027     IErMin= 9 ErrMin= 4.50D-07
 ErrMax= 4.50D-07  0.00D+00 EMaxC= 1.00D-01 BMatC= 1.67D-11 BMatP= 1.11D-10
 IDIUse=1 WtCom= 1.00D+00 WtEn= 0.00D+00
 Coeff-Com:  0.694D-06 0.288D-04 0.123D-03-0.229D-02 0.789D-02 0.834D-02
 Coeff-Com: -0.171D+00 0.406D+00 0.752D+00
 Coeff:      0.694D-06 0.288D-04 0.123D-03-0.229D-02 0.789D-02 0.834D-02
 Coeff:     -0.171D+00 0.406D+00 0.752D+00
 Gap=     0.637 Goal=   None    Shift=    0.000
 RMSDP=2.17D-08 MaxDP=4.78D-07 DE=-2.25D-10 OVMax= 1.46D-06

 Cycle  10  Pass 1  IDiag  1:
 E= -152.106760469043     Delta-E=       -0.000000000016 Rises=F Damp=F
 DIIS: error= 1.01D-07 at cycle  10 NSaved=  10.
 NSaved=10 IEnMin=10 EnMin= -152.106760469043     IErMin=10 ErrMin= 1.01D-07
 ErrMax= 1.01D-07  0.00D+00 EMaxC= 1.00D-01 BMatC= 5.19D-13 BMatP= 1.67D-11
 IDIUse=1 WtCom= 1.00D+00 WtEn= 0.00D+00
 Coeff-Com: -0.605D-06-0.438D-05-0.221D-04 0.568D-03-0.206D-02-0.193D-02
 Coeff-Com:  0.516D-01-0.169D+00-0.146D+00 0.127D+01
 Coeff:     -0.605D-06-0.438D-05-0.221D-04 0.568D-03-0.206D-02-0.193D-02
 Coeff:      0.516D-01-0.169D+00-0.146D+00 0.127D+01
 Gap=     0.637 Goal=   None    Shift=    0.000
 RMSDP=7.39D-09 MaxDP=2.13D-07 DE=-1.56D-11 OVMax= 4.51D-07

 SCF Done:  E(RHF) =  -152.106760469     A.U. after   10 cycles
            NFock= 10  Conv=0.74D-08     -V/T= 2.0020
 KE= 1.518053580921D+02 PE=-4.162794175882D+02 EE= 8.498367985385D+01
 Leave Link  502 at Sat Aug 27 01:29:58 2022, MaxMem=   536870912 cpu:               4.5 elap:               1.3
 (Enter /usr/site/hpc/x86_64/glibc-2.17/broadwell/gaussian/g16_a.03/pgi-16.5/g16/l801.exe)
 Windowed orbitals will be sorted by symmetry type.
 ExpMin= 1.03D-01 ExpMax= 1.53D+04 ExpMxC= 5.22D+02 IAcc=3 IRadAn=         5 AccDes= 0.00D+00
 HarFok:  IExCor=  205 AccDes= 0.00D+00 IRadAn=         5 IDoV=-2 UseB2=F ITyADJ=14
 ICtDFT= 12500011 ScaDFX=  1.000000  1.000000  1.000000  1.000000
 Largest valence mixing into a core orbital is  1.12D-04
 Largest core mixing into a valence orbital is  1.77D-05
 Range of M.O.s used for correlation:     3   116
 NBasis=   116 NAE=    10 NBE=    10 NFC=     2 NFV=     0
 NROrb=    114 NOA=     8 NOB=     8 NVA=   106 NVB=   106
 Leave Link  801 at Sat Aug 27 01:29:58 2022, MaxMem=   536870912 cpu:               0.3 elap:               0.1
 (Enter /usr/site/hpc/x86_64/glibc-2.17/broadwell/gaussian/g16_a.03/pgi-16.5/g16/l804.exe)
 Closed-shell transformation, MDV=   536870912 ITran=4 ISComp=2.
 Unit  1 TFree=        834515 TCopy=        406125.
 Semi-Direct transformation.
 ModeAB=           4 MOrb=             8 LenV=     536379123
 LASXX=      2873146 LTotXX=     2873146 LenRXX=     5831278
 LTotAB=     2958132 MaxLAS=     5134560 LenRXY=           0
 NonZer=     8704424 LenScr=    13107200 LnRSAI=     5134560
 LnScr1=     7864320 LExtra=           0 Total=     31937358
 MaxDsk=          -1 SrtSym=           T ITran=            4
 DoSDTr:  NPSUse=  4
 JobTyp=0 Pass  1:  I=   1 to   8.
 (rs|ai) integrals will be sorted in core.
 Complete sort for first half transformation.
 First half transformation complete.
 Complete sort for second half transformation.
 Second half transformation complete.
 Spin components of T(2) and E(2):
     alpha-alpha T2 =       0.1556585699D-01 E2=     -0.6380391248D-01
     alpha-beta  T2 =       0.9195314999D-01 E2=     -0.3983490284D+00
     beta-beta   T2 =       0.1556585699D-01 E2=     -0.6380391248D-01
 ANorm=    0.1059756983D+01
 E2 =    -0.5259568534D+00 EUMP2 =    -0.15263271732241D+03
 Leave Link  804 at Sat Aug 27 01:29:59 2022, MaxMem=   536870912 cpu:               3.1 elap:               0.8
 (Enter /usr/site/hpc/x86_64/glibc-2.17/broadwell/gaussian/g16_a.03/pgi-16.5/g16/l913.exe)
 CIDS:  MDV=   536870912.
 Frozen-core window:  NFC=   2 NFV=   0.
 IFCWin=0 IBDFC=1 NFBD=     0     0 NFCmp=     0     0 NFFFC=     0     0
 Using DD3R+UMP44R for 1st iteration.
 Using DD4RQ for 2nd and later iterations.
 Keep R2 and R3 ints in memory in symmetry-blocked form, NReq=35357534.
 FoFCou: FMM=F IPFlag=           0 FMFlag=           0 FMFlg1=           0
         NFxFlg=           0 DoJE=F BraDBF=F KetDBF=F FulRan=T
         wScrn=  0.000000 ICntrl=       600 IOpCl=  0 I1Cent=           0 NGrid=           0
         NMat0=    1 NMatS0=   6786 NMatT0=    0 NMatD0=    1 NMtDS0=    0 NMtDT0=    0
 Petite list used in FoFCou.
 CIDS: In Core Option IDoMem=           1.
 CCSD(T)
 =======
 Iterations=  50 Convergence= 0.100D-06
 Produce multiple copies of IABC intergrals
 Iteration Nr.   1
 **********************
 DD1Dir will call FoFMem   1 times, MxPair=        72
 NAB=    36 NAA=     0 NBB=     0.
 MP4(R+Q)=  0.75603572D-02
 Maximum subspace dimension=  5
 A-vector RMS=  1.7451924D-03 Max=  6.2157212D-03 conv= 1.00D-05.
 RLE energy=       -0.5258940687
 E3=       -0.75689952D-02        EUMP3=      -0.15264028632D+03
 E4(DQ)=   -0.15530645D-02        UMP4(DQ)=   -0.15264183938D+03
 E4(SDQ)=  -0.46142991D-02        UMP4(SDQ)=  -0.15264490062D+03
 VARIATIONAL ENERGIES WITH THE FIRST-ORDER WAVEFUNCTION:
 DE(Corr)= -0.52589407     E(Corr)=     -152.63265454    
 NORM(A)=   0.10601258D+01
 Iteration Nr.   2
 **********************
 DD1Dir will call FoFMem   1 times, MxPair=        72
 NAB=    36 NAA=     0 NBB=     0.
 A-vector RMS=  2.1215874D-04 Max=  2.3224043D-03 conv= 1.00D-05.
 RLE energy=       -0.5369665934
 DE(Corr)= -0.53580606     E(CORR)=     -152.64256653     Delta=-9.91D-03
 NORM(A)=   0.10638805D+01
 Iteration Nr.   3
 **********************
 DD1Dir will call FoFMem   1 times, MxPair=        72
 NAB=    36 NAA=     0 NBB=     0.
 A-vector RMS=  1.4194602D-04 Max=  8.3415286D-04 conv= 1.00D-05.
 RLE energy=       -0.5374630802
 DE(Corr)= -0.53687616     E(CORR)=     -152.64363663     Delta=-1.07D-03
 NORM(A)=   0.10645202D+01
 Iteration Nr.   4
 **********************
 DD1Dir will call FoFMem   1 times, MxPair=        72
 NAB=    36 NAA=     0 NBB=     0.
 A-vector RMS=  2.5990360D-05 Max=  1.4156814D-04 conv= 1.00D-05.
 RLE energy=       -0.5375463113
 DE(Corr)= -0.53751094     E(CORR)=     -152.64427141     Delta=-6.35D-04
 NORM(A)=   0.10646316D+01
 Iteration Nr.   5
 **********************
 DD1Dir will call FoFMem   1 times, MxPair=        72
 NAB=    36 NAA=     0 NBB=     0.
 A-vector RMS=  1.8939380D-05 Max=  1.5549667D-04 conv= 1.00D-05.
 RLE energy=       -0.5375548156
 DE(Corr)= -0.53754798     E(CORR)=     -152.64430845     Delta=-3.70D-05
 NORM(A)=   0.10646413D+01
 Iteration Nr.   6
 **********************
 DD1Dir will call FoFMem   1 times, MxPair=        72
 NAB=    36 NAA=     0 NBB=     0.
 A-vector RMS=  5.5815245D-06 Max=  4.0826356D-05 conv= 1.00D-05.
 RLE energy=       -0.5375455434
 DE(Corr)= -0.53755118     E(CORR)=     -152.64431165     Delta=-3.20D-06
 NORM(A)=   0.10646414D+01
 Iteration Nr.   7
 **********************
 DD1Dir will call FoFMem   1 times, MxPair=        72
 NAB=    36 NAA=     0 NBB=     0.
 A-vector RMS=  2.6768384D-06 Max=  2.2473832D-05 conv= 1.00D-05.
 RLE energy=       -0.5375523573
 DE(Corr)= -0.53755133     E(CORR)=     -152.64431179     Delta=-1.42D-07
 NORM(A)=   0.10646438D+01
 Iteration Nr.   8
 **********************
 DD1Dir will call FoFMem   1 times, MxPair=        72
 NAB=    36 NAA=     0 NBB=     0.
 A-vector RMS=  5.2027116D-07 Max=  4.2767331D-06 conv= 1.00D-05.
 RLE energy=       -0.5375507174
 DE(Corr)= -0.53755089     E(CORR)=     -152.64431136     Delta= 4.39D-07
 NORM(A)=   0.10646440D+01
 Iteration Nr.   9
 **********************
 DD1Dir will call FoFMem   1 times, MxPair=        72
 NAB=    36 NAA=     0 NBB=     0.
 A-vector RMS=  1.1701087D-07 Max=  8.8141973D-07 conv= 1.00D-05.
 RLE energy=       -0.5375512145
 DE(Corr)= -0.53755118     E(CORR)=     -152.64431165     Delta=-2.92D-07
 NORM(A)=   0.10646442D+01
 Iteration Nr.  10
 **********************
 DD1Dir will call FoFMem   1 times, MxPair=        72
 NAB=    36 NAA=     0 NBB=     0.
 A-vector RMS=  4.0259607D-08 Max=  3.5088553D-07 conv= 1.00D-05.
 RLE energy=       -0.5375511736
 DE(Corr)= -0.53755116     E(CORR)=     -152.64431163     Delta= 2.22D-08
 NORM(A)=   0.10646443D+01
 CI/CC converged in   10 iterations to DelEn= 2.22D-08 Conv= 1.00D-07 ErrA1= 4.03D-08 Conv= 1.00D-05
 Wavefunction amplitudes converged. E(Corr)=     -152.64431163    
 Largest amplitude= 4.79D-02
 IPart=  3 IA=    7   11.05% done.
 IPart=  3 IA=   13   21.46% done.
 IPart=  1 IA=   19   31.21% done.
 IPart=  3 IA=   25   40.32% done.
 IPart=  1 IA=   32   50.13% done.
 IPart=  1 IA=   40   60.27% done.
 IPart=  3 IA=   49   70.30% done.
 IPart=  4 IA=   60   80.58% done.
 IPart=  2 IA=   74   90.51% done.
 Time for triples=      170.16 seconds.
 T4(CCSD)= -0.16042802D-01
 T5(CCSD)=  0.40450707D-03
 CCSD(T)= -0.15265994992D+03
 Discarding MO integrals.
 Leave Link  913 at Sat Aug 27 01:30:59 2022, MaxMem=   536870912 cpu:             198.3 elap:              59.7
 (Enter /usr/site/hpc/x86_64/glibc-2.17/broadwell/gaussian/g16_a.03/pgi-16.5/g16/l601.exe)
 Copying SCF densities to generalized density rwf, IOpCl= 0 IROHF=0.

 **********************************************************************

            Population analysis using the SCF density.

 **********************************************************************

 Orbital symmetries:
       Occupied  (A') (A') (A') (A') (A') (A') (A') (A') (A") (A")
       Virtual   (A') (A') (A') (A') (A') (A') (A') (A') (A') (A')
                 (A") (A") (A') (A') (A') (A') (A") (A") (A") (A")
                 (A') (A') (A') (A') (A') (A') (A') (A') (A") (A")
                 (A") (A") (A') (A') (A') (A') (A') (A') (A') (A')
                 (A') (A') (A") (A") (A') (A') (A") (A") (A') (A')
                 (A") (A") (A') (A') (A') (A') (A") (A") (A") (A")
                 (A') (A') (A') (A') (A") (A") (A') (A') (A') (A')
                 (A") (A") (A') (A') (A') (A') (A') (A') (A') (A')
                 (A") (A") (A') (A') (A") (A") (A") (A") (A') (A')
                 (A") (A") (A') (A') (A') (A') (A") (A") (A') (A')
                 (A') (A') (A') (A') (A') (A')
 The electronic state is 1-A'.
 Alpha  occ. eigenvalues --  -20.55226 -20.54998  -1.32521  -1.32292  -0.69929
 Alpha  occ. eigenvalues --   -0.69694  -0.55938  -0.55709  -0.49628  -0.49400
 Alpha virt. eigenvalues --    0.14298   0.14712   0.20413   0.20705   0.54618
 Alpha virt. eigenvalues --    0.54897   0.57498   0.57731   0.67924   0.68937
 Alpha virt. eigenvalues --    0.79251   0.79475   0.80687   0.80940   0.82660
 Alpha virt. eigenvalues --    0.82849   0.85079   0.85306   0.97556   0.97777
 Alpha virt. eigenvalues --    1.14967   1.15461   1.17420   1.17665   1.51940
 Alpha virt. eigenvalues --    1.52163   1.52250   1.52476   2.00995   2.01222
 Alpha virt. eigenvalues --    2.07050   2.07283   2.09741   2.09994   2.15172
 Alpha virt. eigenvalues --    2.15409   2.25052   2.25861   2.61786   2.62022
 Alpha virt. eigenvalues --    2.93155   2.93411   3.39646   3.39878   3.50200
 Alpha virt. eigenvalues --    3.50431   3.53387   3.53615   3.59767   3.60001
 Alpha virt. eigenvalues --    3.78955   3.79183   3.85714   3.85949   3.87888
 Alpha virt. eigenvalues --    3.88118   3.93844   3.94076   4.03305   4.03532
 Alpha virt. eigenvalues --    4.08464   4.08694   4.15522   4.15785   4.30393
 Alpha virt. eigenvalues --    4.30621   4.40221   4.40454   4.45830   4.46063
 Alpha virt. eigenvalues --    4.66806   4.67033   4.81158   4.81394   5.04467
 Alpha virt. eigenvalues --    5.04746   5.24370   5.24622   5.54338   5.54571
 Alpha virt. eigenvalues --    5.98227   5.98454   6.40678   6.40904   6.86473
 Alpha virt. eigenvalues --    6.86703   6.89947   6.90177   6.94876   6.95107
 Alpha virt. eigenvalues --    6.99430   6.99659   7.08183   7.08418   7.12797
 Alpha virt. eigenvalues --    7.13063   7.18598   7.18829   7.47489   7.47731
 Alpha virt. eigenvalues --    7.70626   7.70859   8.15348   8.15581  12.49560
 Alpha virt. eigenvalues --   12.49785
          Condensed to atoms (all electrons):
               1          2          3          4          5          6
     1  O    7.814319   0.344569   0.346190   0.000000  -0.000000   0.000004
     2  H    0.344569   0.440862  -0.036627   0.000000  -0.000000  -0.000000
     3  H    0.346190  -0.036627   0.436545   0.000000   0.000000  -0.000000
     4  O    0.000000   0.000000   0.000000   7.814336   0.343969   0.346499
     5  H   -0.000000  -0.000000   0.000000   0.343969   0.442358  -0.036718
     6  H    0.000004  -0.000000  -0.000000   0.346499  -0.036718   0.435806
 Mulliken charges:
               1
     1  O   -0.505082
     2  H    0.251195
     3  H    0.253892
     4  O   -0.504806
     5  H    0.250391
     6  H    0.254409
 Sum of Mulliken charges =  -0.00000
 Mulliken charges with hydrogens summed into heavy atoms:
               1
     1  O    0.000005
     4  O   -0.000005
 Electronic spatial extent (au):  <R**2>=            580.8111
 Charge=             -0.0000 electrons
 Dipole moment (field-independent basis, Debye):
    X=             -1.2904    Y=             -0.4966    Z=              0.0000  Tot=              1.3827
 Quadrupole moment (field-independent basis, Debye-Ang):
   XX=             -8.6990   YY=              7.6708   ZZ=            -14.7109
   XY=             -2.6437   XZ=              0.0000   YZ=              0.0000
 Traceless Quadrupole moment (field-independent basis, Debye-Ang):
   XX=             -3.4526   YY=             12.9171   ZZ=             -9.4645
   XY=             -2.6437   XZ=              0.0000   YZ=              0.0000
 Octapole moment (field-independent basis, Debye-Ang**2):
  XXX=             -1.8476  YYY=             -2.4978  ZZZ=              0.0000  XYY=             -3.3397
  XXY=             -4.0352  XXZ=              0.0000  XZZ=             -0.1682  YZZ=             -0.0678
  YYZ=              0.0000  XYZ=              0.0000
 Hexadecapole moment (field-independent basis, Debye-Ang**3):
 XXXX=            -10.9683 YYYY=           -214.6877 ZZZZ=            -11.3337 XXXY=             -2.7680
 XXXZ=              0.0000 YYYX=              0.9698 YYYZ=              0.0000 ZZZX=              0.0000
 ZZZY=              0.0000 XXYY=            -63.8347 XXZZ=             -4.4898 YYZZ=           -116.3320
 XXYZ=              0.0000 YYXZ=              0.0000 ZZXY=              0.9377
 N-N= 2.738361917320D+01 E-N=-4.162794162753D+02  KE= 1.518053580921D+02
 Symmetry A'   KE= 1.427674847842D+02
 Symmetry A"   KE= 9.037873307897D+00
 Leave Link  601 at Sat Aug 27 01:30:59 2022, MaxMem=   536870912 cpu:               0.3 elap:               0.1
 (Enter /usr/site/hpc/x86_64/glibc-2.17/broadwell/gaussian/g16_a.03/pgi-16.5/g16/l9999.exe)
 1\1\GINC-N003\SP\RCCSD(T)-FC\CC-pVTZ\H4O2\C7441284\27-Aug-2022\0\\#p C
 CSD(T)/cc-pVTZ\\H2O_H2O_3561\\0,1\O,0,0.,-0.009833,0.\H,0,-0.799571,-0
 .580965,0.\H,0,0.799571,-0.580965,0.\O,0,-0.006483,5.370963,0.\H,0,0.2
 18093,6.327557,0.\H,0,-0.984207,5.273169,0.\\Version=ES64L-G16RevA.03\
 State=1-A'\HF=-152.1067605\MP2=-152.6327173\MP3=-152.6402863\MP4D=-152
 .6493997\MP4DQ=-152.6418394\MP4SDQ=-152.6449006\CCSD=-152.6443116\CCSD
 (T)=-152.6599499\RMSD=7.391e-09\PG=CS [SG(H4O2)]\\@


 A COMPUTER IS LIKE A HORSE, IT WILL SENSE WEAKNESS.
     -- GREG WETTSTEIN
 Job cpu time:       0 days  0 hours  3 minutes 29.5 seconds.
 Elapsed time:       0 days  0 hours  1 minutes  2.8 seconds.
 File lengths (MBytes):  RWF=    316 Int=      0 D2E=      0 Chk=      8 Scr=      8
 Normal termination of Gaussian 16 at Sat Aug 27 01:30:59 2022.
