 Entering Gaussian System, Link 0=g16
 Input=H2O_H2O_6.com
 Output=H2O_H2O_6.log
 Initial command:
 /usr/site/hpc/x86_64/glibc-2.17/broadwell/gaussian/g16_a.03/pgi-16.5/g16/l1.exe "/gpfs/gpfs1/scratch/c7441284/ForceFieldModel/FittingData/Gau-3391603.inp" -scrdir="/gpfs/gpfs1/scratch/c7441284/ForceFieldModel/FittingData/"
 Entering Link 1 = /usr/site/hpc/x86_64/glibc-2.17/broadwell/gaussian/g16_a.03/pgi-16.5/g16/l1.exe PID=   3391604.
  
 Copyright (c) 1988,1990,1992,1993,1995,1998,2003,2009,2016,
            Gaussian, Inc.  All Rights Reserved.
  
 This is part of the Gaussian(R) 16 program.  It is based on
 the Gaussian(R) 09 system (copyright 2009, Gaussian, Inc.),
 the Gaussian(R) 03 system (copyright 2003, Gaussian, Inc.),
 the Gaussian(R) 98 system (copyright 1998, Gaussian, Inc.),
 the Gaussian(R) 94 system (copyright 1995, Gaussian, Inc.),
 the Gaussian 92(TM) system (copyright 1992, Gaussian, Inc.),
 the Gaussian 90(TM) system (copyright 1990, Gaussian, Inc.),
 the Gaussian 88(TM) system (copyright 1988, Gaussian, Inc.),
 the Gaussian 86(TM) system (copyright 1986, Carnegie Mellon
 University), and the Gaussian 82(TM) system (copyright 1983,
 Carnegie Mellon University). Gaussian is a federally registered
 trademark of Gaussian, Inc.
  
 This software contains proprietary and confidential information,
 including trade secrets, belonging to Gaussian, Inc.
  
 This software is provided under written license and may be
 used, copied, transmitted, or stored only in accord with that
 written license.
  
 The following legend is applicable only to US Government
 contracts under FAR:
  
                    RESTRICTED RIGHTS LEGEND
  
 Use, reproduction and disclosure by the US Government is
 subject to restrictions as set forth in subparagraphs (a)
 and (c) of the Commercial Computer Software - Restricted
 Rights clause in FAR 52.227-19.
  
 Gaussian, Inc.
 340 Quinnipiac St., Bldg. 40, Wallingford CT 06492
  
  
 ---------------------------------------------------------------
 Warning -- This program may not be used in any manner that
 competes with the business of Gaussian, Inc. or will provide
 assistance to any competitor of Gaussian, Inc.  The licensee
 of this program is prohibited from giving any competitor of
 Gaussian, Inc. access to this program.  By using this program,
 the user acknowledges that Gaussian, Inc. is engaged in the
 business of creating and licensing software in the field of
 computational chemistry and represents and warrants to the
 licensee that it is not a competitor of Gaussian, Inc. and that
 it will not use this program in any manner prohibited above.
 ---------------------------------------------------------------
  

 Cite this work as:
 Gaussian 16, Revision A.03,
 M. J. Frisch, G. W. Trucks, H. B. Schlegel, G. E. Scuseria, 
 M. A. Robb, J. R. Cheeseman, G. Scalmani, V. Barone, 
 G. A. Petersson, H. Nakatsuji, X. Li, M. Caricato, A. V. Marenich, 
 J. Bloino, B. G. Janesko, R. Gomperts, B. Mennucci, H. P. Hratchian, 
 J. V. Ortiz, A. F. Izmaylov, J. L. Sonnenberg, D. Williams-Young, 
 F. Ding, F. Lipparini, F. Egidi, J. Goings, B. Peng, A. Petrone, 
 T. Henderson, D. Ranasinghe, V. G. Zakrzewski, J. Gao, N. Rega, 
 G. Zheng, W. Liang, M. Hada, M. Ehara, K. Toyota, R. Fukuda, 
 J. Hasegawa, M. Ishida, T. Nakajima, Y. Honda, O. Kitao, H. Nakai, 
 T. Vreven, K. Throssell, J. A. Montgomery, Jr., J. E. Peralta, 
 F. Ogliaro, M. J. Bearpark, J. J. Heyd, E. N. Brothers, K. N. Kudin, 
 V. N. Staroverov, T. A. Keith, R. Kobayashi, J. Normand, 
 K. Raghavachari, A. P. Rendell, J. C. Burant, S. S. Iyengar, 
 J. Tomasi, M. Cossi, J. M. Millam, M. Klene, C. Adamo, R. Cammi, 
 J. W. Ochterski, R. L. Martin, K. Morokuma, O. Farkas, 
 J. B. Foresman, and D. J. Fox, Gaussian, Inc., Wallingford CT, 2016.
 
 ******************************************
 Gaussian 16:  ES64L-G16RevA.03 25-Dec-2016
                26-Aug-2022 
 ******************************************
 %NProcShared=4
 Will use up to    4 processors via shared memory.
 %Mem=4GB
 %Chk=H2O_H2O_6.chk
 ------------------
 #p CCSD(T)/cc-pVTZ
 ------------------
 1/38=1,172=1/1;
 2/12=2,17=6,18=5,40=1/2;
 3/5=16,6=1,11=9,25=1,30=1/1,2,3;
 4//1;
 5/5=2,38=5/2;
 8/6=4,9=120000,10=1/1,4;
 9/5=7,14=2/13;
 6/7=2,8=2,9=2,10=2/1;
 99/5=1,9=1/99;
 Leave Link    1 at Fri Aug 26 11:49:12 2022, MaxMem=   536870912 cpu:               0.5 elap:               0.2
 (Enter /usr/site/hpc/x86_64/glibc-2.17/broadwell/gaussian/g16_a.03/pgi-16.5/g16/l101.exe)
 ---------
 H2O_H2O_6
 ---------
 Symbolic Z-matrix:
 Charge =  0 Multiplicity = 1
 O                     0.       -0.00983   0. 
 H                    -0.79957  -0.58097   0. 
 H                     0.79957  -0.58097   0. 
 O                    -0.00376   1.59662   0. 
 H                     0.51638   2.43026   0. 
 H                    -0.96103   1.81829   0. 
 
 ITRead=  0  0  0  0  0  0
 MicOpt= -1 -1 -1 -1 -1 -1
 NAtoms=      6 NQM=        6 NQMF=       0 NMMI=      0 NMMIF=      0
                NMic=       0 NMicF=      0.
                    Isotopes and Nuclear Properties:
 (Nuclear quadrupole moments (NQMom) in fm**2, nuclear magnetic moments (NMagM)
  in nuclear magnetons)

  Atom         1           2           3           4           5           6
 IAtWgt=          16           1           1          16           1           1
 AtmWgt=  15.9949146   1.0078250   1.0078250  15.9949146   1.0078250   1.0078250
 NucSpn=           0           1           1           0           1           1
 AtZEff=  -0.0000000  -0.0000000  -0.0000000  -0.0000000  -0.0000000  -0.0000000
 NQMom=    0.0000000   0.0000000   0.0000000   0.0000000   0.0000000   0.0000000
 NMagM=    0.0000000   2.7928460   2.7928460   0.0000000   2.7928460   2.7928460
 AtZNuc=   8.0000000   1.0000000   1.0000000   8.0000000   1.0000000   1.0000000
 Leave Link  101 at Fri Aug 26 11:49:12 2022, MaxMem=   536870912 cpu:               0.3 elap:               0.1
 (Enter /usr/site/hpc/x86_64/glibc-2.17/broadwell/gaussian/g16_a.03/pgi-16.5/g16/l202.exe)
                          Input orientation:                          
 ---------------------------------------------------------------------
 Center     Atomic      Atomic             Coordinates (Angstroms)
 Number     Number       Type             X           Y           Z
 ---------------------------------------------------------------------
      1          8           0        0.000000   -0.009833    0.000000
      2          1           0       -0.799571   -0.580965    0.000000
      3          1           0        0.799571   -0.580965    0.000000
      4          8           0       -0.003763    1.596616    0.000000
      5          1           0        0.516382    2.430256    0.000000
      6          1           0       -0.961033    1.818291    0.000000
 ---------------------------------------------------------------------
                    Distance matrix (angstroms):
                    1          2          3          4          5
     1  O    0.000000
     2  H    0.982601   0.000000
     3  H    0.982601   1.599142   0.000000
     4  O    1.606453   2.318441   2.321035   0.000000
     5  H    2.494130   3.286211   3.024508   0.982602   0.000000
     6  H    2.065338   2.404683   2.975929   0.982601   1.599142
                    6
     6  H    0.000000
 Stoichiometry    H4O2
 Framework group  CS[SG(H4O2)]
 Deg. of freedom     9
 Full point group                 CS      NOp   2
 Largest Abelian subgroup         CS      NOp   2
 Largest concise Abelian subgroup C1      NOp   1
                         Standard orientation:                         
 ---------------------------------------------------------------------
 Center     Atomic      Atomic             Coordinates (Angstroms)
 Number     Number       Type             X           Y           Z
 ---------------------------------------------------------------------
      1          8           0        0.021866   -0.798930    0.000000
      2          1           0       -0.779040   -1.368188    0.000000
      3          1           0        0.820097   -1.371934    0.000000
      4          8           0        0.021866    0.807523    0.000000
      5          1           0        0.543963    1.639942    0.000000
      6          1           0       -0.934882    1.031440    0.000000
 ---------------------------------------------------------------------
 Rotational constants (GHZ):         203.7962000          17.9172620          16.4693198
 Leave Link  202 at Fri Aug 26 11:49:12 2022, MaxMem=   536870912 cpu:               0.1 elap:               0.0
 (Enter /usr/site/hpc/x86_64/glibc-2.17/broadwell/gaussian/g16_a.03/pgi-16.5/g16/l301.exe)
 Standard basis: CC-pVTZ (5D, 7F)
 Ernie: Thresh=  0.10000D-02 Tol=  0.10000D-05 Strict=F.
 Ernie:  6 primitive shells out of 84 were deleted.
 There are    92 symmetry adapted cartesian basis functions of A'  symmetry.
 There are    38 symmetry adapted cartesian basis functions of A"  symmetry.
 There are    80 symmetry adapted basis functions of A'  symmetry.
 There are    36 symmetry adapted basis functions of A"  symmetry.
   116 basis functions,   172 primitive gaussians,   130 cartesian basis functions
    10 alpha electrons       10 beta electrons
       nuclear repulsion energy        47.1082718328 Hartrees.
 IExCor=    0 DFT=F Ex=HF Corr=None ExCW=0 ScaHFX=  1.000000
 ScaDFX=  1.000000  1.000000  1.000000  1.000000 ScalE2=  1.000000  1.000000
 IRadAn=      5 IRanWt=     -1 IRanGd=            0 ICorTp=0 IEmpDi=  4
 NAtoms=    6 NActive=    6 NUniq=    6 SFac= 1.00D+00 NAtFMM=   60 NAOKFM=F Big=F
 Integral buffers will be    131072 words long.
 Raffenetti 1 integral format.
 Two-electron integral symmetry is turned on.
 Leave Link  301 at Fri Aug 26 11:49:12 2022, MaxMem=   536870912 cpu:               0.3 elap:               0.1
 (Enter /usr/site/hpc/x86_64/glibc-2.17/broadwell/gaussian/g16_a.03/pgi-16.5/g16/l302.exe)
 NPDir=0 NMtPBC=     1 NCelOv=     1 NCel=       1 NClECP=     1 NCelD=      1
         NCelK=      1 NCelE2=     1 NClLst=     1 CellRange=     0.0.
 One-electron integrals computed using PRISM.
 One-electron integral symmetry used in STVInt
 NBasis=   116 RedAO= T EigKep=  1.67D-03  NBF=    80    36
 NBsUse=   116 1.00D-06 EigRej= -1.00D+00 NBFU=    80    36
 Leave Link  302 at Fri Aug 26 11:49:12 2022, MaxMem=   536870912 cpu:               0.5 elap:               0.1
 (Enter /usr/site/hpc/x86_64/glibc-2.17/broadwell/gaussian/g16_a.03/pgi-16.5/g16/l303.exe)
 DipDrv:  MaxL=1.
 Leave Link  303 at Fri Aug 26 11:49:12 2022, MaxMem=   536870912 cpu:               0.1 elap:               0.1
 (Enter /usr/site/hpc/x86_64/glibc-2.17/broadwell/gaussian/g16_a.03/pgi-16.5/g16/l401.exe)
 ExpMin= 1.03D-01 ExpMax= 1.53D+04 ExpMxC= 5.22D+02 IAcc=3 IRadAn=         5 AccDes= 0.00D+00
 Harris functional with IExCor=  205 and IRadAn=       5 diagonalized for initial guess.
 HarFok:  IExCor=  205 AccDes= 0.00D+00 IRadAn=         5 IDoV= 1 UseB2=F ITyADJ=14
 ICtDFT=  3500011 ScaDFX=  1.000000  1.000000  1.000000  1.000000
 FoFCou: FMM=F IPFlag=           0 FMFlag=      100000 FMFlg1=           0
         NFxFlg=           0 DoJE=T BraDBF=F KetDBF=T FulRan=T
         wScrn=  0.000000 ICntrl=       500 IOpCl=  0 I1Cent=   200000004 NGrid=           0
         NMat0=    1 NMatS0=      1 NMatT0=    0 NMatD0=    1 NMtDS0=    0 NMtDT0=    0
 Petite list used in FoFCou.
 Harris En= -152.154648071494    
 JPrj=0 DoOrth=F DoCkMO=F.
 Initial guess orbital symmetries:
       Occupied  (A') (A') (A') (A') (A') (A') (A') (A") (A") (A')
       Virtual   (A') (A') (A') (A') (A') (A') (A') (A') (A') (A")
                 (A") (A') (A') (A") (A") (A") (A') (A') (A') (A')
                 (A") (A') (A') (A') (A') (A') (A') (A") (A') (A")
                 (A') (A") (A') (A') (A") (A') (A') (A') (A') (A')
                 (A') (A') (A") (A") (A") (A') (A") (A") (A') (A')
                 (A') (A') (A") (A') (A') (A") (A') (A") (A") (A')
                 (A') (A") (A') (A") (A') (A") (A') (A') (A") (A")
                 (A') (A') (A') (A') (A') (A') (A') (A') (A') (A")
                 (A') (A") (A') (A') (A") (A") (A") (A') (A") (A")
                 (A') (A") (A") (A') (A") (A') (A') (A') (A') (A')
                 (A') (A') (A') (A') (A') (A')
 The electronic state of the initial guess is 1-A'.
 Leave Link  401 at Fri Aug 26 11:49:13 2022, MaxMem=   536870912 cpu:               1.0 elap:               0.3
 (Enter /usr/site/hpc/x86_64/glibc-2.17/broadwell/gaussian/g16_a.03/pgi-16.5/g16/l502.exe)
 Keep R1 ints in memory in symmetry-blocked form, NReq=34823469.
 FoFCou: FMM=F IPFlag=           0 FMFlag=           0 FMFlg1=           0
         NFxFlg=           0 DoJE=F BraDBF=F KetDBF=F FulRan=T
         wScrn=  0.000000 ICntrl=       600 IOpCl=  0 I1Cent=           0 NGrid=           0
         NMat0=    1 NMatS0=   6786 NMatT0=    0 NMatD0=    1 NMtDS0=    0 NMtDT0=    0
 Petite list used in FoFCou.
 Closed shell SCF:
 Using DIIS extrapolation, IDIIS=  1040.
 NGot=   536870912 LenX=   525040661 LenY=   525023320
 Requested convergence on RMS density matrix=1.00D-08 within 128 cycles.
 Requested convergence on MAX density matrix=1.00D-06.
 Requested convergence on             energy=1.00D-06.
 No special actions if energy rises.

 Cycle   1  Pass 1  IDiag  1:
 E= -151.684211301267    
 DIIS: error= 6.80D-02 at cycle   1 NSaved=   1.
 NSaved= 1 IEnMin= 1 EnMin= -151.684211301267     IErMin= 1 ErrMin= 6.80D-02
 ErrMax= 6.80D-02  0.00D+00 EMaxC= 1.00D-01 BMatC= 4.67D-01 BMatP= 4.67D-01
 IDIUse=3 WtCom= 3.20D-01 WtEn= 6.80D-01
 Coeff-Com:  0.100D+01
 Coeff-En:   0.100D+01
 Coeff:      0.100D+01
 Gap=     0.298 Goal=   None    Shift=    0.000
 GapD=    0.298 DampG=1.000 DampE=0.500 DampFc=0.5000 IDamp=-1.
 Damping current iteration by 5.00D-01
 RMSDP=9.27D-03 MaxDP=3.63D-01              OVMax= 2.39D-01

 Cycle   2  Pass 1  IDiag  1:
 E= -151.800023338535     Delta-E=       -0.115812037268 Rises=F Damp=T
 DIIS: error= 2.55D-02 at cycle   2 NSaved=   2.
 NSaved= 2 IEnMin= 2 EnMin= -151.800023338535     IErMin= 2 ErrMin= 2.55D-02
 ErrMax= 2.55D-02  0.00D+00 EMaxC= 1.00D-01 BMatC= 5.45D-02 BMatP= 4.67D-01
 IDIUse=3 WtCom= 7.45D-01 WtEn= 2.55D-01
 Coeff-Com: -0.220D+00 0.122D+01
 Coeff-En:   0.000D+00 0.100D+01
 Coeff:     -0.164D+00 0.116D+01
 Gap=     0.464 Goal=   None    Shift=    0.000
 RMSDP=1.42D-03 MaxDP=5.07D-02 DE=-1.16D-01 OVMax= 1.28D-01

 Cycle   3  Pass 1  IDiag  1:
 E= -151.908537310166     Delta-E=       -0.108513971631 Rises=F Damp=F
 DIIS: error= 5.26D-03 at cycle   3 NSaved=   3.
 NSaved= 3 IEnMin= 3 EnMin= -151.908537310166     IErMin= 3 ErrMin= 5.26D-03
 ErrMax= 5.26D-03  0.00D+00 EMaxC= 1.00D-01 BMatC= 1.70D-03 BMatP= 5.45D-02
 IDIUse=3 WtCom= 9.47D-01 WtEn= 5.26D-02
 Coeff-Com: -0.683D-01 0.680D-01 0.100D+01
 Coeff-En:   0.000D+00 0.000D+00 0.100D+01
 Coeff:     -0.647D-01 0.645D-01 0.100D+01
 Gap=     0.462 Goal=   None    Shift=    0.000
 RMSDP=1.93D-04 MaxDP=4.15D-03 DE=-1.09D-01 OVMax= 9.94D-03

 Cycle   4  Pass 1  IDiag  1:
 E= -151.909917882906     Delta-E=       -0.001380572740 Rises=F Damp=F
 DIIS: error= 7.98D-04 at cycle   4 NSaved=   4.
 NSaved= 4 IEnMin= 4 EnMin= -151.909917882906     IErMin= 4 ErrMin= 7.98D-04
 ErrMax= 7.98D-04  0.00D+00 EMaxC= 1.00D-01 BMatC= 3.97D-05 BMatP= 1.70D-03
 IDIUse=3 WtCom= 9.92D-01 WtEn= 7.98D-03
 Coeff-Com:  0.208D-01-0.321D-01-0.208D+00 0.122D+01
 Coeff-En:   0.000D+00 0.000D+00 0.000D+00 0.100D+01
 Coeff:      0.207D-01-0.318D-01-0.206D+00 0.122D+01
 Gap=     0.465 Goal=   None    Shift=    0.000
 RMSDP=1.41D-04 MaxDP=5.41D-03 DE=-1.38D-03 OVMax= 2.84D-03

 Cycle   5  Pass 1  IDiag  1:
 E= -151.909989841739     Delta-E=       -0.000071958832 Rises=F Damp=F
 DIIS: error= 2.22D-04 at cycle   5 NSaved=   5.
 NSaved= 5 IEnMin= 5 EnMin= -151.909989841739     IErMin= 5 ErrMin= 2.22D-04
 ErrMax= 2.22D-04  0.00D+00 EMaxC= 1.00D-01 BMatC= 2.68D-06 BMatP= 3.97D-05
 IDIUse=3 WtCom= 9.98D-01 WtEn= 2.22D-03
 Coeff-Com:  0.539D-02-0.582D-02-0.756D-01-0.546D-02 0.108D+01
 Coeff-En:   0.000D+00 0.000D+00 0.000D+00 0.000D+00 0.100D+01
 Coeff:      0.538D-02-0.580D-02-0.754D-01-0.545D-02 0.108D+01
 Gap=     0.465 Goal=   None    Shift=    0.000
 RMSDP=2.48D-05 MaxDP=8.70D-04 DE=-7.20D-05 OVMax= 7.20D-04

 Cycle   6  Pass 1  IDiag  1:
 E= -151.909994611684     Delta-E=       -0.000004769946 Rises=F Damp=F
 DIIS: error= 4.88D-05 at cycle   6 NSaved=   6.
 NSaved= 6 IEnMin= 6 EnMin= -151.909994611684     IErMin= 6 ErrMin= 4.88D-05
 ErrMax= 4.88D-05  0.00D+00 EMaxC= 1.00D-01 BMatC= 1.20D-07 BMatP= 2.68D-06
 IDIUse=1 WtCom= 1.00D+00 WtEn= 0.00D+00
 Coeff-Com: -0.696D-03 0.978D-03 0.892D-02-0.400D-01-0.202D-01 0.105D+01
 Coeff:     -0.696D-03 0.978D-03 0.892D-02-0.400D-01-0.202D-01 0.105D+01
 Gap=     0.465 Goal=   None    Shift=    0.000
 RMSDP=6.93D-06 MaxDP=2.00D-04 DE=-4.77D-06 OVMax= 1.91D-04

 Cycle   7  Pass 1  IDiag  1:
 E= -151.909994816795     Delta-E=       -0.000000205111 Rises=F Damp=F
 DIIS: error= 1.62D-05 at cycle   7 NSaved=   7.
 NSaved= 7 IEnMin= 7 EnMin= -151.909994816795     IErMin= 7 ErrMin= 1.62D-05
 ErrMax= 1.62D-05  0.00D+00 EMaxC= 1.00D-01 BMatC= 2.46D-08 BMatP= 1.20D-07
 IDIUse=1 WtCom= 1.00D+00 WtEn= 0.00D+00
 Coeff-Com: -0.761D-03 0.829D-03 0.113D-01-0.121D-01-0.121D+00 0.256D+00
 Coeff-Com:  0.865D+00
 Coeff:     -0.761D-03 0.829D-03 0.113D-01-0.121D-01-0.121D+00 0.256D+00
 Coeff:      0.865D+00
 Gap=     0.465 Goal=   None    Shift=    0.000
 RMSDP=3.25D-06 MaxDP=1.31D-04 DE=-2.05D-07 OVMax= 9.31D-05

 Cycle   8  Pass 1  IDiag  1:
 E= -151.909994850624     Delta-E=       -0.000000033829 Rises=F Damp=F
 DIIS: error= 6.02D-06 at cycle   8 NSaved=   8.
 NSaved= 8 IEnMin= 8 EnMin= -151.909994850624     IErMin= 8 ErrMin= 6.02D-06
 ErrMax= 6.02D-06  0.00D+00 EMaxC= 1.00D-01 BMatC= 2.10D-09 BMatP= 2.46D-08
 IDIUse=1 WtCom= 1.00D+00 WtEn= 0.00D+00
 Coeff-Com:  0.222D-03-0.304D-03-0.248D-02 0.273D-02 0.298D-01-0.146D+00
 Coeff-Com: -0.152D+00 0.127D+01
 Coeff:      0.222D-03-0.304D-03-0.248D-02 0.273D-02 0.298D-01-0.146D+00
 Coeff:     -0.152D+00 0.127D+01
 Gap=     0.465 Goal=   None    Shift=    0.000
 RMSDP=1.59D-06 MaxDP=5.29D-05 DE=-3.38D-08 OVMax= 5.61D-05

 Cycle   9  Pass 1  IDiag  1:
 E= -151.909994855849     Delta-E=       -0.000000005224 Rises=F Damp=F
 DIIS: error= 1.65D-06 at cycle   9 NSaved=   9.
 NSaved= 9 IEnMin= 9 EnMin= -151.909994855849     IErMin= 9 ErrMin= 1.65D-06
 ErrMax= 1.65D-06  0.00D+00 EMaxC= 1.00D-01 BMatC= 1.74D-10 BMatP= 2.10D-09
 IDIUse=1 WtCom= 1.00D+00 WtEn= 0.00D+00
 Coeff-Com:  0.379D-04-0.479D-04-0.421D-03 0.291D-03 0.565D-02-0.399D-03
 Coeff-Com: -0.360D-01-0.164D+00 0.120D+01
 Coeff:      0.379D-04-0.479D-04-0.421D-03 0.291D-03 0.565D-02-0.399D-03
 Coeff:     -0.360D-01-0.164D+00 0.120D+01
 Gap=     0.465 Goal=   None    Shift=    0.000
 RMSDP=3.98D-07 MaxDP=1.33D-05 DE=-5.22D-09 OVMax= 1.81D-05

 Cycle  10  Pass 1  IDiag  1:
 E= -151.909994856382     Delta-E=       -0.000000000534 Rises=F Damp=F
 DIIS: error= 6.58D-07 at cycle  10 NSaved=  10.
 NSaved=10 IEnMin=10 EnMin= -151.909994856382     IErMin=10 ErrMin= 6.58D-07
 ErrMax= 6.58D-07  0.00D+00 EMaxC= 1.00D-01 BMatC= 2.01D-11 BMatP= 1.74D-10
 IDIUse=1 WtCom= 1.00D+00 WtEn= 0.00D+00
 Coeff-Com: -0.280D-04 0.360D-04 0.346D-03-0.222D-03-0.456D-02 0.165D-01
 Coeff-Com:  0.274D-01-0.132D+00-0.301D+00 0.139D+01
 Coeff:     -0.280D-04 0.360D-04 0.346D-03-0.222D-03-0.456D-02 0.165D-01
 Coeff:      0.274D-01-0.132D+00-0.301D+00 0.139D+01
 Gap=     0.465 Goal=   None    Shift=    0.000
 RMSDP=1.73D-07 MaxDP=5.90D-06 DE=-5.34D-10 OVMax= 8.52D-06

 Cycle  11  Pass 1  IDiag  1:
 E= -151.909994856458     Delta-E=       -0.000000000076 Rises=F Damp=F
 DIIS: error= 1.16D-07 at cycle  11 NSaved=  11.
 NSaved=11 IEnMin=11 EnMin= -151.909994856458     IErMin=11 ErrMin= 1.16D-07
 ErrMax= 1.16D-07  0.00D+00 EMaxC= 1.00D-01 BMatC= 6.10D-13 BMatP= 2.01D-11
 IDIUse=1 WtCom= 1.00D+00 WtEn= 0.00D+00
 Coeff-Com:  0.401D-05-0.508D-05-0.569D-04 0.263D-04 0.568D-03-0.393D-02
 Coeff-Com: -0.215D-02 0.441D-01-0.182D-01-0.281D+00 0.126D+01
 Coeff:      0.401D-05-0.508D-05-0.569D-04 0.263D-04 0.568D-03-0.393D-02
 Coeff:     -0.215D-02 0.441D-01-0.182D-01-0.281D+00 0.126D+01
 Gap=     0.465 Goal=   None    Shift=    0.000
 RMSDP=2.01D-08 MaxDP=7.79D-07 DE=-7.58D-11 OVMax= 9.08D-07

 Cycle  12  Pass 1  IDiag  1:
 E= -151.909994856460     Delta-E=       -0.000000000002 Rises=F Damp=F
 DIIS: error= 1.49D-08 at cycle  12 NSaved=  12.
 NSaved=12 IEnMin=12 EnMin= -151.909994856460     IErMin=12 ErrMin= 1.49D-08
 ErrMax= 1.49D-08  0.00D+00 EMaxC= 1.00D-01 BMatC= 1.63D-14 BMatP= 6.10D-13
 IDIUse=1 WtCom= 1.00D+00 WtEn= 0.00D+00
 Coeff-Com: -0.119D-05 0.152D-05 0.177D-04-0.779D-05-0.145D-03 0.116D-02
 Coeff-Com:  0.579D-03-0.148D-01 0.850D-02 0.875D-01-0.479D+00 0.140D+01
 Coeff:     -0.119D-05 0.152D-05 0.177D-04-0.779D-05-0.145D-03 0.116D-02
 Coeff:      0.579D-03-0.148D-01 0.850D-02 0.875D-01-0.479D+00 0.140D+01
 Gap=     0.465 Goal=   None    Shift=    0.000
 RMSDP=6.61D-09 MaxDP=3.26D-07 DE=-2.27D-12 OVMax= 2.45D-07

 SCF Done:  E(RHF) =  -151.909994856     A.U. after   12 cycles
            NFock= 12  Conv=0.66D-08     -V/T= 1.9946
 KE= 1.527307149828D+02 PE=-4.567002556451D+02 EE= 1.049512739730D+02
 Leave Link  502 at Fri Aug 26 11:49:14 2022, MaxMem=   536870912 cpu:               5.5 elap:               1.5
 (Enter /usr/site/hpc/x86_64/glibc-2.17/broadwell/gaussian/g16_a.03/pgi-16.5/g16/l801.exe)
 Windowed orbitals will be sorted by symmetry type.
 ExpMin= 1.03D-01 ExpMax= 1.53D+04 ExpMxC= 5.22D+02 IAcc=3 IRadAn=         5 AccDes= 0.00D+00
 HarFok:  IExCor=  205 AccDes= 0.00D+00 IRadAn=         5 IDoV=-2 UseB2=F ITyADJ=14
 ICtDFT= 12500011 ScaDFX=  1.000000  1.000000  1.000000  1.000000
 Largest valence mixing into a core orbital is  1.12D-04
 Largest core mixing into a valence orbital is  2.18D-05
 Range of M.O.s used for correlation:     3   116
 NBasis=   116 NAE=    10 NBE=    10 NFC=     2 NFV=     0
 NROrb=    114 NOA=     8 NOB=     8 NVA=   106 NVB=   106
 Leave Link  801 at Fri Aug 26 11:49:14 2022, MaxMem=   536870912 cpu:               0.5 elap:               0.2
 (Enter /usr/site/hpc/x86_64/glibc-2.17/broadwell/gaussian/g16_a.03/pgi-16.5/g16/l804.exe)
 Closed-shell transformation, MDV=   536870912 ITran=4 ISComp=2.
 Unit  1 TFree=        834515 TCopy=        406137.
 Semi-Direct transformation.
 ModeAB=           2 MOrb=             8 LenV=     536357971
 LASXX=      2873146 LTotXX=     2873146 LenRXX=     2873146
 LTotAB=     2958132 MaxLAS=     7765680 LenRXY=     7765680
 NonZer=     7995504 LenScr=    12058624 LnRSAI=           0
 LnScr1=           0 LExtra=           0 Total=     22697450
 MaxDsk=          -1 SrtSym=           F ITran=            4
 DoSDTr:  NPSUse=  4
 JobTyp=0 Pass  1:  I=   1 to   8.
 (rs|ai) integrals will be sorted in core.
 Complete sort for first half transformation.
 First half transformation complete.
 Complete sort for second half transformation.
 Second half transformation complete.
 Spin components of T(2) and E(2):
     alpha-alpha T2 =       0.1774522783D-01 E2=     -0.6956692825D-01
     alpha-beta  T2 =       0.9957990475D-01 E2=     -0.4139720049D+00
     beta-beta   T2 =       0.1774522783D-01 E2=     -0.6956692825D-01
 ANorm=    0.1065396809D+01
 E2 =    -0.5531058614D+00 EUMP2 =    -0.15246310071785D+03
 Leave Link  804 at Fri Aug 26 11:49:16 2022, MaxMem=   536870912 cpu:               5.9 elap:               1.5
 (Enter /usr/site/hpc/x86_64/glibc-2.17/broadwell/gaussian/g16_a.03/pgi-16.5/g16/l913.exe)
 CIDS:  MDV=   536870912.
 Frozen-core window:  NFC=   2 NFV=   0.
 IFCWin=0 IBDFC=1 NFBD=     0     0 NFCmp=     0     0 NFFFC=     0     0
 Using DD3R+UMP44R for 1st iteration.
 Using DD4RQ for 2nd and later iterations.
 Keep R2 and R3 ints in memory in symmetry-blocked form, NReq=35357546.
 FoFCou: FMM=F IPFlag=           0 FMFlag=           0 FMFlg1=           0
         NFxFlg=           0 DoJE=F BraDBF=F KetDBF=F FulRan=T
         wScrn=  0.000000 ICntrl=       600 IOpCl=  0 I1Cent=           0 NGrid=           0
         NMat0=    1 NMatS0=   6786 NMatT0=    0 NMatD0=    1 NMtDS0=    0 NMtDT0=    0
 Petite list used in FoFCou.
 CIDS: In Core Option IDoMem=           1.
 CCSD(T)
 =======
 Iterations=  50 Convergence= 0.100D-06
 Produce multiple copies of IABC intergrals
 Iteration Nr.   1
 **********************
 DD1Dir will call FoFMem   1 times, MxPair=        72
 NAB=    36 NAA=     0 NBB=     0.
 MP4(R+Q)=  0.90431380D-02
 Maximum subspace dimension=  5
 A-vector RMS=  2.8384288D-03 Max=  2.2763288D-02 conv= 1.00D-05.
 RLE energy=       -0.5440637434
 E3=        0.52379439D-04        EUMP3=      -0.15246304834D+03
 E4(DQ)=   -0.22125235D-02        UMP4(DQ)=   -0.15246526086D+03
 E4(SDQ)=  -0.66969765D-02        UMP4(SDQ)=  -0.15246974531D+03
 VARIATIONAL ENERGIES WITH THE FIRST-ORDER WAVEFUNCTION:
 DE(Corr)= -0.54391348     E(Corr)=     -152.45390834    
 NORM(A)=   0.10636953D+01
 Iteration Nr.   2
 **********************
 DD1Dir will call FoFMem   1 times, MxPair=        72
 NAB=    36 NAA=     0 NBB=     0.
 A-vector RMS=  4.0802777D-04 Max=  5.4088983D-03 conv= 1.00D-05.
 RLE energy=       -0.5573364498
 DE(Corr)= -0.55679786     E(CORR)=     -152.46679271     Delta=-1.29D-02
 NORM(A)=   0.10684552D+01
 Iteration Nr.   3
 **********************
 DD1Dir will call FoFMem   1 times, MxPair=        72
 NAB=    36 NAA=     0 NBB=     0.
 A-vector RMS=  6.1256233D-04 Max=  6.7341502D-03 conv= 1.00D-05.
 RLE energy=       -0.5581270143
 DE(Corr)= -0.55716800     E(CORR)=     -152.46716285     Delta=-3.70D-04
 NORM(A)=   0.10696329D+01
 Iteration Nr.   4
 **********************
 DD1Dir will call FoFMem   1 times, MxPair=        72
 NAB=    36 NAA=     0 NBB=     0.
 A-vector RMS=  1.0342664D-04 Max=  1.1828701D-03 conv= 1.00D-05.
 RLE energy=       -0.5582155846
 DE(Corr)= -0.55810912     E(CORR)=     -152.46810397     Delta=-9.41D-04
 NORM(A)=   0.10700567D+01
 Iteration Nr.   5
 **********************
 DD1Dir will call FoFMem   1 times, MxPair=        72
 NAB=    36 NAA=     0 NBB=     0.
 A-vector RMS=  9.6865846D-05 Max=  1.0538932D-03 conv= 1.00D-05.
 RLE energy=       -0.5582746128
 DE(Corr)= -0.55824129     E(CORR)=     -152.46823615     Delta=-1.32D-04
 NORM(A)=   0.10702740D+01
 Iteration Nr.   6
 **********************
 DD1Dir will call FoFMem   1 times, MxPair=        72
 NAB=    36 NAA=     0 NBB=     0.
 A-vector RMS=  2.7157005D-05 Max=  2.2878630D-04 conv= 1.00D-05.
 RLE energy=       -0.5582479100
 DE(Corr)= -0.55825723     E(CORR)=     -152.46825208     Delta=-1.59D-05
 NORM(A)=   0.10703235D+01
 Iteration Nr.   7
 **********************
 DD1Dir will call FoFMem   1 times, MxPair=        72
 NAB=    36 NAA=     0 NBB=     0.
 A-vector RMS=  6.9352421D-06 Max=  6.5090869D-05 conv= 1.00D-05.
 RLE energy=       -0.5582490825
 DE(Corr)= -0.55825719     E(CORR)=     -152.46825204     Delta= 4.23D-08
 NORM(A)=   0.10703353D+01
 Iteration Nr.   8
 **********************
 DD1Dir will call FoFMem   1 times, MxPair=        72
 NAB=    36 NAA=     0 NBB=     0.
 A-vector RMS=  2.7660969D-06 Max=  2.8109623D-05 conv= 1.00D-05.
 RLE energy=       -0.5582541730
 DE(Corr)= -0.55825502     E(CORR)=     -152.46824988     Delta= 2.16D-06
 NORM(A)=   0.10703400D+01
 Iteration Nr.   9
 **********************
 DD1Dir will call FoFMem   1 times, MxPair=        72
 NAB=    36 NAA=     0 NBB=     0.
 A-vector RMS=  4.5321986D-07 Max=  2.8085972D-06 conv= 1.00D-05.
 RLE energy=       -0.5582550354
 DE(Corr)= -0.55825515     E(CORR)=     -152.46825000     Delta=-1.21D-07
 NORM(A)=   0.10703408D+01
 Iteration Nr.  10
 **********************
 DD1Dir will call FoFMem   1 times, MxPair=        72
 NAB=    36 NAA=     0 NBB=     0.
 A-vector RMS=  4.0677331D-07 Max=  4.7523585D-06 conv= 1.00D-05.
 RLE energy=       -0.5582554518
 DE(Corr)= -0.55825542     E(CORR)=     -152.46825028     Delta=-2.77D-07
 NORM(A)=   0.10703414D+01
 Iteration Nr.  11
 **********************
 DD1Dir will call FoFMem   1 times, MxPair=        72
 NAB=    36 NAA=     0 NBB=     0.
 A-vector RMS=  1.1789086D-07 Max=  1.0157565D-06 conv= 1.00D-05.
 RLE energy=       -0.5582557692
 DE(Corr)= -0.55825569     E(CORR)=     -152.46825055     Delta=-2.67D-07
 NORM(A)=   0.10703416D+01
 Iteration Nr.  12
 **********************
 DD1Dir will call FoFMem   1 times, MxPair=        72
 NAB=    36 NAA=     0 NBB=     0.
 A-vector RMS=  8.6604405D-08 Max=  1.0855366D-06 conv= 1.00D-05.
 RLE energy=       -0.5582557700
 DE(Corr)= -0.55825573     E(CORR)=     -152.46825059     Delta=-4.43D-08
 NORM(A)=   0.10703417D+01
 CI/CC converged in   12 iterations to DelEn=-4.43D-08 Conv= 1.00D-07 ErrA1= 8.66D-08 Conv= 1.00D-05
 Wavefunction amplitudes converged. E(Corr)=     -152.46825059    
 Largest amplitude= 3.00D-02
 IPart=  3 IA=    7   11.05% done.
 IPart=  3 IA=   13   21.46% done.
 IPart=  3 IA=   19   31.21% done.
 IPart=  3 IA=   25   40.32% done.
 IPart=  1 IA=   32   50.13% done.
 IPart=  1 IA=   40   60.27% done.
 IPart=  4 IA=   49   70.30% done.
 IPart=  1 IA=   60   80.58% done.
 IPart=  3 IA=   74   90.51% done.
 Time for triples=       66.68 seconds.
 T4(CCSD)= -0.19670352D-01
 T5(CCSD)=  0.80433601D-03
 CCSD(T)= -0.15248711661D+03
 Discarding MO integrals.
 Leave Link  913 at Fri Aug 26 11:49:42 2022, MaxMem=   536870912 cpu:             103.0 elap:              26.0
 (Enter /usr/site/hpc/x86_64/glibc-2.17/broadwell/gaussian/g16_a.03/pgi-16.5/g16/l601.exe)
 Copying SCF densities to generalized density rwf, IOpCl= 0 IROHF=0.

 **********************************************************************

            Population analysis using the SCF density.

 **********************************************************************

 Orbital symmetries:
       Occupied  (A') (A') (A') (A') (A') (A') (A') (A") (A") (A')
       Virtual   (A') (A') (A') (A') (A') (A') (A') (A') (A') (A")
                 (A') (A") (A') (A") (A") (A") (A') (A') (A') (A')
                 (A") (A') (A') (A') (A') (A') (A') (A") (A') (A")
                 (A') (A') (A") (A') (A") (A') (A') (A') (A') (A')
                 (A') (A') (A") (A") (A') (A") (A") (A') (A') (A')
                 (A") (A') (A") (A') (A") (A") (A') (A") (A') (A')
                 (A") (A') (A') (A") (A') (A") (A') (A') (A") (A")
                 (A') (A') (A') (A') (A') (A') (A') (A') (A') (A')
                 (A") (A') (A") (A') (A") (A") (A") (A') (A") (A")
                 (A') (A") (A") (A') (A") (A') (A') (A') (A') (A')
                 (A') (A') (A') (A') (A') (A')
 The electronic state is 1-A'.
 Alpha  occ. eigenvalues --  -20.51889 -20.51635  -1.37856  -1.26811  -0.72408
 Alpha  occ. eigenvalues --   -0.69576  -0.64040  -0.53660  -0.43144  -0.32330
 Alpha virt. eigenvalues --    0.14202   0.19373   0.20018   0.23260   0.52019
 Alpha virt. eigenvalues --    0.56861   0.58964   0.65688   0.69865   0.78659
 Alpha virt. eigenvalues --    0.80150   0.83332   0.83385   0.85092   0.88551
 Alpha virt. eigenvalues --    0.94953   0.97691   1.06172   1.08250   1.17568
 Alpha virt. eigenvalues --    1.24843   1.30332   1.34247   1.49016   1.51492
 Alpha virt. eigenvalues --    1.53257   1.61665   1.84011   1.85417   1.99785
 Alpha virt. eigenvalues --    2.08134   2.10620   2.14935   2.25412   2.29431
 Alpha virt. eigenvalues --    2.31013   2.51111   2.57590   2.64466   2.78971
 Alpha virt. eigenvalues --    2.98867   3.32096   3.37342   3.45176   3.52281
 Alpha virt. eigenvalues --    3.54941   3.56796   3.57841   3.63957   3.64525
 Alpha virt. eigenvalues --    3.71061   3.80315   3.90581   3.91543   3.97785
 Alpha virt. eigenvalues --    4.01382   4.02165   4.03948   4.07284   4.12143
 Alpha virt. eigenvalues --    4.20194   4.23128   4.26455   4.27159   4.37495
 Alpha virt. eigenvalues --    4.47056   4.49204   4.51647   4.70117   4.77759
 Alpha virt. eigenvalues --    4.80704   4.90000   4.95532   5.00455   5.05302
 Alpha virt. eigenvalues --    5.31873   5.41819   5.53987   5.64072   5.79409
 Alpha virt. eigenvalues --    5.80877   6.24577   6.28293   6.78630   6.84395
 Alpha virt. eigenvalues --    6.87869   6.92044   6.93617   6.98810   7.04735
 Alpha virt. eigenvalues --    7.05596   7.19401   7.21968   7.26663   7.32821
 Alpha virt. eigenvalues --    7.40796   7.45731   7.58353   7.64984   7.74040
 Alpha virt. eigenvalues --    7.82846   7.96772   8.35603   8.58566  12.63629
 Alpha virt. eigenvalues --   13.68353
          Condensed to atoms (all electrons):
               1          2          3          4          5          6
     1  O    8.595557   0.150149   0.154723  -0.699970   0.076457   0.056187
     2  H    0.150149   0.612863   0.041894   0.065097  -0.008565  -0.017902
     3  H    0.154723   0.041894   0.571957   0.072988  -0.013691  -0.006605
     4  O   -0.699970   0.065097   0.072988   8.584789   0.072672   0.223411
     5  H    0.076457  -0.008565  -0.013691   0.072672   0.737635   0.029230
     6  H    0.056187  -0.017902  -0.006605   0.223411   0.029230   0.505043
 Mulliken charges:
               1
     1  O   -0.333104
     2  H    0.156463
     3  H    0.178733
     4  O   -0.318987
     5  H    0.106261
     6  H    0.210635
 Sum of Mulliken charges =  -0.00000
 Mulliken charges with hydrogens summed into heavy atoms:
               1
     1  O    0.002091
     4  O   -0.002091
 Electronic spatial extent (au):  <R**2>=             97.0092
 Charge=             -0.0000 electrons
 Dipole moment (field-independent basis, Debye):
    X=             -0.6217    Y=             -0.2461    Z=              0.0000  Tot=              0.6686
 Quadrupole moment (field-independent basis, Debye-Ang):
   XX=             -8.7678   YY=             -9.5150   ZZ=            -14.7528
   XY=             -0.3604   XZ=              0.0000   YZ=              0.0000
 Traceless Quadrupole moment (field-independent basis, Debye-Ang):
   XX=              2.2441   YY=              1.4968   ZZ=             -3.7410
   XY=             -0.3604   XZ=              0.0000   YZ=              0.0000
 Octapole moment (field-independent basis, Debye-Ang**2):
  XXX=             -1.2074  YYY=              0.0243  ZZZ=              0.0000  XYY=              1.1362
  XXY=             -0.7162  XXZ=              0.0000  XZZ=             -0.0402  YZZ=             -0.0309
  YYZ=              0.0000  XYZ=              0.0000
 Hexadecapole moment (field-independent basis, Debye-Ang**3):
 XXXX=            -13.3489 YYYY=            -75.3264 ZZZZ=            -11.6931 XXXY=             -1.4089
 XXXZ=              0.0000 YYYX=              1.9850 YYYZ=              0.0000 ZZZX=              0.0000
 ZZZY=              0.0000 XXYY=             -9.8386 XXZZ=             -4.9350 YYZZ=            -17.6204
 XXYZ=              0.0000 YYXZ=              0.0000 ZZXY=              0.0281
 N-N= 4.710827183275D+01 E-N=-4.567002559055D+02  KE= 1.527307149828D+02
 Symmetry A'   KE= 1.436145874543D+02
 Symmetry A"   KE= 9.116127528479D+00
 Leave Link  601 at Fri Aug 26 11:49:42 2022, MaxMem=   536870912 cpu:               0.2 elap:               0.1
 (Enter /usr/site/hpc/x86_64/glibc-2.17/broadwell/gaussian/g16_a.03/pgi-16.5/g16/l9999.exe)
 1\1\GINC-N050\SP\RCCSD(T)-FC\CC-pVTZ\H4O2\C7441284\26-Aug-2022\0\\#p C
 CSD(T)/cc-pVTZ\\H2O_H2O_6\\0,1\O,0,0.,-0.009833,0.\H,0,-0.799571,-0.58
 0965,0.\H,0,0.799571,-0.580965,0.\O,0,-0.003763,1.596616,0.\H,0,0.5163
 82,2.430256,0.\H,0,-0.961033,1.818291,0.\\Version=ES64L-G16RevA.03\Sta
 te=1-A'\HF=-151.9099949\MP2=-152.4631007\MP3=-152.4630483\MP4D=-152.47
 4304\MP4DQ=-152.4652609\MP4SDQ=-152.4697453\CCSD=-152.4682506\CCSD(T)=
 -152.4871166\RMSD=6.613e-09\PG=CS [SG(H4O2)]\\@


 FORGIVE MY NONSENSE AS I ALSO FORGIVE THOSE WHO THINK THEY TALK SENSE

                                                       -- ROBERT FROST
 Job cpu time:       0 days  0 hours  1 minutes 58.1 seconds.
 Elapsed time:       0 days  0 hours  0 minutes 30.2 seconds.
 File lengths (MBytes):  RWF=    572 Int=      0 D2E=      0 Chk=      8 Scr=      8
 Normal termination of Gaussian 16 at Fri Aug 26 11:49:42 2022.
