 Entering Gaussian System, Link 0=g16
 Input=H2O_H2O_3661.com
 Output=H2O_H2O_3661.log
 Initial command:
 /usr/site/hpc/x86_64/glibc-2.17/broadwell/gaussian/g16_a.03/pgi-16.5/g16/l1.exe "/gpfs/gpfs1/scratch/c7441284/ForceFieldModel/FittingData/Gau-3530717.inp" -scrdir="/gpfs/gpfs1/scratch/c7441284/ForceFieldModel/FittingData/"
 Entering Link 1 = /usr/site/hpc/x86_64/glibc-2.17/broadwell/gaussian/g16_a.03/pgi-16.5/g16/l1.exe PID=   3530718.
  
 Copyright (c) 1988,1990,1992,1993,1995,1998,2003,2009,2016,
            Gaussian, Inc.  All Rights Reserved.
  
 This is part of the Gaussian(R) 16 program.  It is based on
 the Gaussian(R) 09 system (copyright 2009, Gaussian, Inc.),
 the Gaussian(R) 03 system (copyright 2003, Gaussian, Inc.),
 the Gaussian(R) 98 system (copyright 1998, Gaussian, Inc.),
 the Gaussian(R) 94 system (copyright 1995, Gaussian, Inc.),
 the Gaussian 92(TM) system (copyright 1992, Gaussian, Inc.),
 the Gaussian 90(TM) system (copyright 1990, Gaussian, Inc.),
 the Gaussian 88(TM) system (copyright 1988, Gaussian, Inc.),
 the Gaussian 86(TM) system (copyright 1986, Carnegie Mellon
 University), and the Gaussian 82(TM) system (copyright 1983,
 Carnegie Mellon University). Gaussian is a federally registered
 trademark of Gaussian, Inc.
  
 This software contains proprietary and confidential information,
 including trade secrets, belonging to Gaussian, Inc.
  
 This software is provided under written license and may be
 used, copied, transmitted, or stored only in accord with that
 written license.
  
 The following legend is applicable only to US Government
 contracts under FAR:
  
                    RESTRICTED RIGHTS LEGEND
  
 Use, reproduction and disclosure by the US Government is
 subject to restrictions as set forth in subparagraphs (a)
 and (c) of the Commercial Computer Software - Restricted
 Rights clause in FAR 52.227-19.
  
 Gaussian, Inc.
 340 Quinnipiac St., Bldg. 40, Wallingford CT 06492
  
  
 ---------------------------------------------------------------
 Warning -- This program may not be used in any manner that
 competes with the business of Gaussian, Inc. or will provide
 assistance to any competitor of Gaussian, Inc.  The licensee
 of this program is prohibited from giving any competitor of
 Gaussian, Inc. access to this program.  By using this program,
 the user acknowledges that Gaussian, Inc. is engaged in the
 business of creating and licensing software in the field of
 computational chemistry and represents and warrants to the
 licensee that it is not a competitor of Gaussian, Inc. and that
 it will not use this program in any manner prohibited above.
 ---------------------------------------------------------------
  

 Cite this work as:
 Gaussian 16, Revision A.03,
 M. J. Frisch, G. W. Trucks, H. B. Schlegel, G. E. Scuseria, 
 M. A. Robb, J. R. Cheeseman, G. Scalmani, V. Barone, 
 G. A. Petersson, H. Nakatsuji, X. Li, M. Caricato, A. V. Marenich, 
 J. Bloino, B. G. Janesko, R. Gomperts, B. Mennucci, H. P. Hratchian, 
 J. V. Ortiz, A. F. Izmaylov, J. L. Sonnenberg, D. Williams-Young, 
 F. Ding, F. Lipparini, F. Egidi, J. Goings, B. Peng, A. Petrone, 
 T. Henderson, D. Ranasinghe, V. G. Zakrzewski, J. Gao, N. Rega, 
 G. Zheng, W. Liang, M. Hada, M. Ehara, K. Toyota, R. Fukuda, 
 J. Hasegawa, M. Ishida, T. Nakajima, Y. Honda, O. Kitao, H. Nakai, 
 T. Vreven, K. Throssell, J. A. Montgomery, Jr., J. E. Peralta, 
 F. Ogliaro, M. J. Bearpark, J. J. Heyd, E. N. Brothers, K. N. Kudin, 
 V. N. Staroverov, T. A. Keith, R. Kobayashi, J. Normand, 
 K. Raghavachari, A. P. Rendell, J. C. Burant, S. S. Iyengar, 
 J. Tomasi, M. Cossi, J. M. Millam, M. Klene, C. Adamo, R. Cammi, 
 J. W. Ochterski, R. L. Martin, K. Morokuma, O. Farkas, 
 J. B. Foresman, and D. J. Fox, Gaussian, Inc., Wallingford CT, 2016.
 
 ******************************************
 Gaussian 16:  ES64L-G16RevA.03 25-Dec-2016
                27-Aug-2022 
 ******************************************
 %NProcShared=4
 Will use up to    4 processors via shared memory.
 %Mem=4GB
 %Chk=H2O_H2O_3661.chk
 ------------------
 #p CCSD(T)/cc-pVTZ
 ------------------
 1/38=1,172=1/1;
 2/12=2,17=6,18=5,40=1/2;
 3/5=16,6=1,11=9,25=1,30=1/1,2,3;
 4//1;
 5/5=2,38=5/2;
 8/6=4,9=120000,10=1/1,4;
 9/5=7,14=2/13;
 6/7=2,8=2,9=2,10=2/1;
 99/5=1,9=1/99;
 Leave Link    1 at Sat Aug 27 02:17:01 2022, MaxMem=   536870912 cpu:               0.3 elap:               0.1
 (Enter /usr/site/hpc/x86_64/glibc-2.17/broadwell/gaussian/g16_a.03/pgi-16.5/g16/l101.exe)
 ------------
 H2O_H2O_3661
 ------------
 Symbolic Z-matrix:
 Charge =  0 Multiplicity = 1
 O                     0.       -0.00983   0. 
 H                    -0.79957  -0.58097   0. 
 H                     0.79957  -0.58097   0. 
 O                    -0.00648   5.47733   0. 
 H                     0.21809   6.43392   0. 
 H                    -0.98421   5.37954   0. 
 
 ITRead=  0  0  0  0  0  0
 MicOpt= -1 -1 -1 -1 -1 -1
 NAtoms=      6 NQM=        6 NQMF=       0 NMMI=      0 NMMIF=      0
                NMic=       0 NMicF=      0.
                    Isotopes and Nuclear Properties:
 (Nuclear quadrupole moments (NQMom) in fm**2, nuclear magnetic moments (NMagM)
  in nuclear magnetons)

  Atom         1           2           3           4           5           6
 IAtWgt=          16           1           1          16           1           1
 AtmWgt=  15.9949146   1.0078250   1.0078250  15.9949146   1.0078250   1.0078250
 NucSpn=           0           1           1           0           1           1
 AtZEff=  -0.0000000  -0.0000000  -0.0000000  -0.0000000  -0.0000000  -0.0000000
 NQMom=    0.0000000   0.0000000   0.0000000   0.0000000   0.0000000   0.0000000
 NMagM=    0.0000000   2.7928460   2.7928460   0.0000000   2.7928460   2.7928460
 AtZNuc=   8.0000000   1.0000000   1.0000000   8.0000000   1.0000000   1.0000000
 Leave Link  101 at Sat Aug 27 02:17:01 2022, MaxMem=   536870912 cpu:               0.3 elap:               0.1
 (Enter /usr/site/hpc/x86_64/glibc-2.17/broadwell/gaussian/g16_a.03/pgi-16.5/g16/l202.exe)
                          Input orientation:                          
 ---------------------------------------------------------------------
 Center     Atomic      Atomic             Coordinates (Angstroms)
 Number     Number       Type             X           Y           Z
 ---------------------------------------------------------------------
      1          8           0        0.000000   -0.009833    0.000000
      2          1           0       -0.799571   -0.580965    0.000000
      3          1           0        0.799571   -0.580965    0.000000
      4          8           0       -0.006483    5.477330    0.000000
      5          1           0        0.218093    6.433924    0.000000
      6          1           0       -0.984207    5.379536    0.000000
 ---------------------------------------------------------------------
                    Distance matrix (angstroms):
                    1          2          3          4          5
     1  O    0.000000
     2  H    0.982601   0.000000
     3  H    0.982601   1.599142   0.000000
     4  O    5.487167   6.109986   6.111682   0.000000
     5  H    6.447447   7.088322   7.038948   0.982602   0.000000
     6  H    5.478500   5.963360   6.221691   0.982603   1.599143
                    6
     6  H    0.000000
 Stoichiometry    H4O2
 Framework group  CS[SG(H4O2)]
 Deg. of freedom     9
 Full point group                 CS      NOp   2
 Largest Abelian subgroup         CS      NOp   2
 Largest concise Abelian subgroup C1      NOp   1
                         Standard orientation:                         
 ---------------------------------------------------------------------
 Center     Atomic      Atomic             Coordinates (Angstroms)
 Number     Number       Type             X           Y           Z
 ---------------------------------------------------------------------
      1          8           0        0.037674   -2.729455    0.000000
      2          1           0       -0.762571   -3.299642    0.000000
      3          1           0        0.836570   -3.301531    0.000000
      4          8           0        0.037674    2.757712    0.000000
      5          1           0        0.263380    3.714040    0.000000
      6          1           0       -0.940165    2.661073    0.000000
 ---------------------------------------------------------------------
 Rotational constants (GHZ):         221.9993850           1.7807040           1.7665342
 Leave Link  202 at Sat Aug 27 02:17:01 2022, MaxMem=   536870912 cpu:               0.1 elap:               0.0
 (Enter /usr/site/hpc/x86_64/glibc-2.17/broadwell/gaussian/g16_a.03/pgi-16.5/g16/l301.exe)
 Standard basis: CC-pVTZ (5D, 7F)
 Ernie: Thresh=  0.10000D-02 Tol=  0.10000D-05 Strict=F.
 Ernie:  6 primitive shells out of 84 were deleted.
 There are    92 symmetry adapted cartesian basis functions of A'  symmetry.
 There are    38 symmetry adapted cartesian basis functions of A"  symmetry.
 There are    80 symmetry adapted basis functions of A'  symmetry.
 There are    36 symmetry adapted basis functions of A"  symmetry.
   116 basis functions,   172 primitive gaussians,   130 cartesian basis functions
    10 alpha electrons       10 beta electrons
       nuclear repulsion energy        27.2059347849 Hartrees.
 IExCor=    0 DFT=F Ex=HF Corr=None ExCW=0 ScaHFX=  1.000000
 ScaDFX=  1.000000  1.000000  1.000000  1.000000 ScalE2=  1.000000  1.000000
 IRadAn=      5 IRanWt=     -1 IRanGd=            0 ICorTp=0 IEmpDi=  4
 NAtoms=    6 NActive=    6 NUniq=    6 SFac= 1.00D+00 NAtFMM=   60 NAOKFM=F Big=F
 Integral buffers will be    131072 words long.
 Raffenetti 1 integral format.
 Two-electron integral symmetry is turned on.
 Leave Link  301 at Sat Aug 27 02:17:01 2022, MaxMem=   536870912 cpu:               0.3 elap:               0.1
 (Enter /usr/site/hpc/x86_64/glibc-2.17/broadwell/gaussian/g16_a.03/pgi-16.5/g16/l302.exe)
 NPDir=0 NMtPBC=     1 NCelOv=     1 NCel=       1 NClECP=     1 NCelD=      1
         NCelK=      1 NCelE2=     1 NClLst=     1 CellRange=     0.0.
 One-electron integrals computed using PRISM.
 One-electron integral symmetry used in STVInt
 NBasis=   116 RedAO= T EigKep=  2.68D-03  NBF=    80    36
 NBsUse=   116 1.00D-06 EigRej= -1.00D+00 NBFU=    80    36
 Leave Link  302 at Sat Aug 27 02:17:01 2022, MaxMem=   536870912 cpu:               0.4 elap:               0.1
 (Enter /usr/site/hpc/x86_64/glibc-2.17/broadwell/gaussian/g16_a.03/pgi-16.5/g16/l303.exe)
 DipDrv:  MaxL=1.
 Leave Link  303 at Sat Aug 27 02:17:01 2022, MaxMem=   536870912 cpu:               0.1 elap:               0.0
 (Enter /usr/site/hpc/x86_64/glibc-2.17/broadwell/gaussian/g16_a.03/pgi-16.5/g16/l401.exe)
 ExpMin= 1.03D-01 ExpMax= 1.53D+04 ExpMxC= 5.22D+02 IAcc=3 IRadAn=         5 AccDes= 0.00D+00
 Harris functional with IExCor=  205 and IRadAn=       5 diagonalized for initial guess.
 HarFok:  IExCor=  205 AccDes= 0.00D+00 IRadAn=         5 IDoV= 1 UseB2=F ITyADJ=14
 ICtDFT=  3500011 ScaDFX=  1.000000  1.000000  1.000000  1.000000
 FoFCou: FMM=F IPFlag=           0 FMFlag=      100000 FMFlg1=           0
         NFxFlg=           0 DoJE=T BraDBF=F KetDBF=T FulRan=T
         wScrn=  0.000000 ICntrl=       500 IOpCl=  0 I1Cent=   200000004 NGrid=           0
         NMat0=    1 NMatS0=      1 NMatT0=    0 NMatD0=    1 NMtDS0=    0 NMtDT0=    0
 Petite list used in FoFCou.
 Harris En= -152.298681061827    
 JPrj=0 DoOrth=F DoCkMO=F.
 Initial guess orbital symmetries:
       Occupied  (A') (A') (A') (A') (A') (A') (A') (A') (A") (A")
       Virtual   (A') (A') (A') (A') (A') (A') (A') (A') (A') (A')
                 (A") (A") (A') (A') (A') (A') (A") (A") (A") (A")
                 (A') (A') (A') (A') (A') (A') (A') (A') (A") (A")
                 (A") (A") (A') (A') (A') (A') (A') (A') (A') (A')
                 (A') (A') (A") (A") (A') (A') (A") (A") (A") (A")
                 (A') (A') (A') (A') (A') (A') (A") (A") (A') (A')
                 (A') (A') (A") (A") (A") (A") (A') (A') (A') (A')
                 (A") (A") (A') (A') (A') (A') (A') (A') (A') (A')
                 (A") (A") (A') (A') (A") (A") (A") (A") (A') (A')
                 (A") (A") (A') (A') (A') (A') (A") (A") (A') (A')
                 (A') (A') (A') (A') (A') (A')
 The electronic state of the initial guess is 1-A'.
 Leave Link  401 at Sat Aug 27 02:17:02 2022, MaxMem=   536870912 cpu:               0.7 elap:               0.2
 (Enter /usr/site/hpc/x86_64/glibc-2.17/broadwell/gaussian/g16_a.03/pgi-16.5/g16/l502.exe)
 Keep R1 ints in memory in symmetry-blocked form, NReq=34823457.
 FoFCou: FMM=F IPFlag=           0 FMFlag=           0 FMFlg1=           0
         NFxFlg=           0 DoJE=F BraDBF=F KetDBF=F FulRan=T
         wScrn=  0.000000 ICntrl=       600 IOpCl=  0 I1Cent=           0 NGrid=           0
         NMat0=    1 NMatS0=   6786 NMatT0=    0 NMatD0=    1 NMtDS0=    0 NMtDT0=    0
 Petite list used in FoFCou.
 Closed shell SCF:
 Using DIIS extrapolation, IDIIS=  1040.
 NGot=   536870912 LenX=   525040673 LenY=   525023332
 Requested convergence on RMS density matrix=1.00D-08 within 128 cycles.
 Requested convergence on MAX density matrix=1.00D-06.
 Requested convergence on             energy=1.00D-06.
 No special actions if energy rises.

 Cycle   1  Pass 1  IDiag  1:
 E= -151.925648885912    
 DIIS: error= 6.40D-02 at cycle   1 NSaved=   1.
 NSaved= 1 IEnMin= 1 EnMin= -151.925648885912     IErMin= 1 ErrMin= 6.40D-02
 ErrMax= 6.40D-02  0.00D+00 EMaxC= 1.00D-01 BMatC= 4.01D-01 BMatP= 4.01D-01
 IDIUse=3 WtCom= 3.60D-01 WtEn= 6.40D-01
 Coeff-Com:  0.100D+01
 Coeff-En:   0.100D+01
 Coeff:      0.100D+01
 Gap=     0.519 Goal=   None    Shift=    0.000
 GapD=    0.519 DampG=2.000 DampE=0.500 DampFc=1.0000 IDamp=-1.
 RMSDP=2.52D-03 MaxDP=6.62D-02              OVMax= 1.28D-01

 Cycle   2  Pass 1  IDiag  1:
 E= -152.037707108022     Delta-E=       -0.112058222110 Rises=F Damp=F
 DIIS: error= 4.04D-02 at cycle   2 NSaved=   2.
 NSaved= 2 IEnMin= 2 EnMin= -152.037707108022     IErMin= 2 ErrMin= 4.04D-02
 ErrMax= 4.04D-02  0.00D+00 EMaxC= 1.00D-01 BMatC= 1.14D-01 BMatP= 4.01D-01
 IDIUse=3 WtCom= 5.96D-01 WtEn= 4.04D-01
 Coeff-Com:  0.320D+00 0.680D+00
 Coeff-En:   0.168D+00 0.832D+00
 Coeff:      0.259D+00 0.741D+00
 Gap=     0.661 Goal=   None    Shift=    0.000
 RMSDP=1.33D-03 MaxDP=3.94D-02 DE=-1.12D-01 OVMax= 5.73D-02

 Cycle   3  Pass 1  IDiag  1:
 E= -152.103094530934     Delta-E=       -0.065387422912 Rises=F Damp=F
 DIIS: error= 8.59D-03 at cycle   3 NSaved=   3.
 NSaved= 3 IEnMin= 3 EnMin= -152.103094530934     IErMin= 3 ErrMin= 8.59D-03
 ErrMax= 8.59D-03  0.00D+00 EMaxC= 1.00D-01 BMatC= 5.84D-03 BMatP= 1.14D-01
 IDIUse=3 WtCom= 9.14D-01 WtEn= 8.59D-02
 Coeff-Com: -0.305D-01 0.153D+00 0.878D+00
 Coeff-En:   0.000D+00 0.000D+00 0.100D+01
 Coeff:     -0.279D-01 0.140D+00 0.888D+00
 Gap=     0.634 Goal=   None    Shift=    0.000
 RMSDP=2.41D-04 MaxDP=5.57D-03 DE=-6.54D-02 OVMax= 1.33D-02

 Cycle   4  Pass 1  IDiag  1:
 E= -152.106747205804     Delta-E=       -0.003652674870 Rises=F Damp=F
 DIIS: error= 8.09D-04 at cycle   4 NSaved=   4.
 NSaved= 4 IEnMin= 4 EnMin= -152.106747205804     IErMin= 4 ErrMin= 8.09D-04
 ErrMax= 8.09D-04  0.00D+00 EMaxC= 1.00D-01 BMatC= 3.61D-05 BMatP= 5.84D-03
 IDIUse=3 WtCom= 9.92D-01 WtEn= 8.09D-03
 Coeff-Com:  0.686D-02-0.604D-01-0.243D+00 0.130D+01
 Coeff-En:   0.000D+00 0.000D+00 0.000D+00 0.100D+01
 Coeff:      0.680D-02-0.599D-01-0.241D+00 0.129D+01
 Gap=     0.637 Goal=   None    Shift=    0.000
 RMSDP=5.18D-05 MaxDP=1.02D-03 DE=-3.65D-03 OVMax= 2.26D-03

 Cycle   5  Pass 1  IDiag  1:
 E= -152.106797332558     Delta-E=       -0.000050126754 Rises=F Damp=F
 DIIS: error= 1.89D-04 at cycle   5 NSaved=   5.
 NSaved= 5 IEnMin= 5 EnMin= -152.106797332558     IErMin= 5 ErrMin= 1.89D-04
 ErrMax= 1.89D-04  0.00D+00 EMaxC= 1.00D-01 BMatC= 1.36D-06 BMatP= 3.61D-05
 IDIUse=3 WtCom= 9.98D-01 WtEn= 1.89D-03
 Coeff-Com:  0.563D-03 0.175D-03-0.337D-02-0.214D+00 0.122D+01
 Coeff-En:   0.000D+00 0.000D+00 0.000D+00 0.000D+00 0.100D+01
 Coeff:      0.562D-03 0.174D-03-0.336D-02-0.213D+00 0.122D+01
 Gap=     0.637 Goal=   None    Shift=    0.000
 RMSDP=1.40D-05 MaxDP=2.87D-04 DE=-5.01D-05 OVMax= 6.85D-04

 Cycle   6  Pass 1  IDiag  1:
 E= -152.106800163867     Delta-E=       -0.000002831309 Rises=F Damp=F
 DIIS: error= 2.91D-05 at cycle   6 NSaved=   6.
 NSaved= 6 IEnMin= 6 EnMin= -152.106800163867     IErMin= 6 ErrMin= 2.91D-05
 ErrMax= 2.91D-05  0.00D+00 EMaxC= 1.00D-01 BMatC= 3.49D-08 BMatP= 1.36D-06
 IDIUse=1 WtCom= 1.00D+00 WtEn= 0.00D+00
 Coeff-Com: -0.280D-03 0.162D-02 0.706D-02-0.331D-03-0.261D+00 0.125D+01
 Coeff:     -0.280D-03 0.162D-02 0.706D-02-0.331D-03-0.261D+00 0.125D+01
 Gap=     0.637 Goal=   None    Shift=    0.000
 RMSDP=3.03D-06 MaxDP=6.63D-05 DE=-2.83D-06 OVMax= 1.54D-04

 Cycle   7  Pass 1  IDiag  1:
 E= -152.106800262615     Delta-E=       -0.000000098748 Rises=F Damp=F
 DIIS: error= 5.41D-06 at cycle   7 NSaved=   7.
 NSaved= 7 IEnMin= 7 EnMin= -152.106800262615     IErMin= 7 ErrMin= 5.41D-06
 ErrMax= 5.41D-06  0.00D+00 EMaxC= 1.00D-01 BMatC= 1.83D-09 BMatP= 3.49D-08
 IDIUse=1 WtCom= 1.00D+00 WtEn= 0.00D+00
 Coeff-Com:  0.310D-04-0.388D-03-0.162D-02 0.139D-01-0.140D-01-0.223D+00
 Coeff-Com:  0.122D+01
 Coeff:      0.310D-04-0.388D-03-0.162D-02 0.139D-01-0.140D-01-0.223D+00
 Coeff:      0.122D+01
 Gap=     0.637 Goal=   None    Shift=    0.000
 RMSDP=4.43D-07 MaxDP=9.34D-06 DE=-9.87D-08 OVMax= 3.03D-05

 Cycle   8  Pass 1  IDiag  1:
 E= -152.106800266469     Delta-E=       -0.000000003854 Rises=F Damp=F
 DIIS: error= 1.62D-06 at cycle   8 NSaved=   8.
 NSaved= 8 IEnMin= 8 EnMin= -152.106800266469     IErMin= 8 ErrMin= 1.62D-06
 ErrMax= 1.62D-06  0.00D+00 EMaxC= 1.00D-01 BMatC= 1.10D-10 BMatP= 1.83D-09
 IDIUse=1 WtCom= 1.00D+00 WtEn= 0.00D+00
 Coeff-Com:  0.845D-05-0.453D-05 0.296D-05-0.332D-02 0.180D-01-0.193D-01
 Coeff-Com: -0.249D+00 0.125D+01
 Coeff:      0.845D-05-0.453D-05 0.296D-05-0.332D-02 0.180D-01-0.193D-01
 Coeff:     -0.249D+00 0.125D+01
 Gap=     0.637 Goal=   None    Shift=    0.000
 RMSDP=1.08D-07 MaxDP=2.50D-06 DE=-3.85D-09 OVMax= 6.81D-06

 Cycle   9  Pass 1  IDiag  1:
 E= -152.106800266693     Delta-E=       -0.000000000224 Rises=F Damp=F
 DIIS: error= 4.41D-07 at cycle   9 NSaved=   9.
 NSaved= 9 IEnMin= 9 EnMin= -152.106800266693     IErMin= 9 ErrMin= 4.41D-07
 ErrMax= 4.41D-07  0.00D+00 EMaxC= 1.00D-01 BMatC= 1.61D-11 BMatP= 1.10D-10
 IDIUse=1 WtCom= 1.00D+00 WtEn= 0.00D+00
 Coeff-Com:  0.587D-06 0.285D-04 0.127D-03-0.228D-02 0.780D-02 0.848D-02
 Coeff-Com: -0.171D+00 0.407D+00 0.750D+00
 Coeff:      0.587D-06 0.285D-04 0.127D-03-0.228D-02 0.780D-02 0.848D-02
 Coeff:     -0.171D+00 0.407D+00 0.750D+00
 Gap=     0.637 Goal=   None    Shift=    0.000
 RMSDP=2.12D-08 MaxDP=4.65D-07 DE=-2.24D-10 OVMax= 1.43D-06

 Cycle  10  Pass 1  IDiag  1:
 E= -152.106800266708     Delta-E=       -0.000000000015 Rises=F Damp=F
 DIIS: error= 1.00D-07 at cycle  10 NSaved=  10.
 NSaved=10 IEnMin=10 EnMin= -152.106800266708     IErMin=10 ErrMin= 1.00D-07
 ErrMax= 1.00D-07  0.00D+00 EMaxC= 1.00D-01 BMatC= 5.16D-13 BMatP= 1.61D-11
 IDIUse=1 WtCom= 1.00D+00 WtEn= 0.00D+00
 Coeff-Com: -0.580D-06-0.439D-05-0.235D-04 0.570D-03-0.206D-02-0.199D-02
 Coeff-Com:  0.519D-01-0.171D+00-0.142D+00 0.127D+01
 Coeff:     -0.580D-06-0.439D-05-0.235D-04 0.570D-03-0.206D-02-0.199D-02
 Coeff:      0.519D-01-0.171D+00-0.142D+00 0.127D+01
 Gap=     0.637 Goal=   None    Shift=    0.000
 RMSDP=7.35D-09 MaxDP=2.12D-07 DE=-1.48D-11 OVMax= 4.49D-07

 SCF Done:  E(RHF) =  -152.106800267     A.U. after   10 cycles
            NFock= 10  Conv=0.74D-08     -V/T= 2.0020
 KE= 1.518053135854D+02 PE=-4.159199571186D+02 EE= 8.480190848161D+01
 Leave Link  502 at Sat Aug 27 02:17:03 2022, MaxMem=   536870912 cpu:               3.9 elap:               1.1
 (Enter /usr/site/hpc/x86_64/glibc-2.17/broadwell/gaussian/g16_a.03/pgi-16.5/g16/l801.exe)
 Windowed orbitals will be sorted by symmetry type.
 ExpMin= 1.03D-01 ExpMax= 1.53D+04 ExpMxC= 5.22D+02 IAcc=3 IRadAn=         5 AccDes= 0.00D+00
 HarFok:  IExCor=  205 AccDes= 0.00D+00 IRadAn=         5 IDoV=-2 UseB2=F ITyADJ=14
 ICtDFT= 12500011 ScaDFX=  1.000000  1.000000  1.000000  1.000000
 Largest valence mixing into a core orbital is  1.12D-04
 Largest core mixing into a valence orbital is  1.77D-05
 Range of M.O.s used for correlation:     3   116
 NBasis=   116 NAE=    10 NBE=    10 NFC=     2 NFV=     0
 NROrb=    114 NOA=     8 NOB=     8 NVA=   106 NVB=   106
 Leave Link  801 at Sat Aug 27 02:17:03 2022, MaxMem=   536870912 cpu:               0.3 elap:               0.1
 (Enter /usr/site/hpc/x86_64/glibc-2.17/broadwell/gaussian/g16_a.03/pgi-16.5/g16/l804.exe)
 Closed-shell transformation, MDV=   536870912 ITran=4 ISComp=2.
 Unit  1 TFree=        834515 TCopy=        406125.
 Semi-Direct transformation.
 ModeAB=           4 MOrb=             8 LenV=     536379661
 LASXX=      2873146 LTotXX=     2873146 LenRXX=     5831278
 LTotAB=     2958132 MaxLAS=     5045184 LenRXY=           0
 NonZer=     8704424 LenScr=    13107200 LnRSAI=     5045184
 LnScr1=     7864320 LExtra=           0 Total=     31847982
 MaxDsk=          -1 SrtSym=           T ITran=            4
 DoSDTr:  NPSUse=  4
 JobTyp=0 Pass  1:  I=   1 to   8.
 (rs|ai) integrals will be sorted in core.
 Complete sort for first half transformation.
 First half transformation complete.
 Complete sort for second half transformation.
 Second half transformation complete.
 Spin components of T(2) and E(2):
     alpha-alpha T2 =       0.1556516065D-01 E2=     -0.6380290956D-01
     alpha-beta  T2 =       0.9194956722D-01 E2=     -0.3983439011D+00
     beta-beta   T2 =       0.1556516065D-01 E2=     -0.6380290956D-01
 ANorm=    0.1059754636D+01
 E2 =    -0.5259497203D+00 EUMP2 =    -0.15263274998696D+03
 Leave Link  804 at Sat Aug 27 02:17:04 2022, MaxMem=   536870912 cpu:               2.9 elap:               0.8
 (Enter /usr/site/hpc/x86_64/glibc-2.17/broadwell/gaussian/g16_a.03/pgi-16.5/g16/l913.exe)
 CIDS:  MDV=   536870912.
 Frozen-core window:  NFC=   2 NFV=   0.
 IFCWin=0 IBDFC=1 NFBD=     0     0 NFCmp=     0     0 NFFFC=     0     0
 Using DD3R+UMP44R for 1st iteration.
 Using DD4RQ for 2nd and later iterations.
 Keep R2 and R3 ints in memory in symmetry-blocked form, NReq=35357534.
 FoFCou: FMM=F IPFlag=           0 FMFlag=           0 FMFlg1=           0
         NFxFlg=           0 DoJE=F BraDBF=F KetDBF=F FulRan=T
         wScrn=  0.000000 ICntrl=       600 IOpCl=  0 I1Cent=           0 NGrid=           0
         NMat0=    1 NMatS0=   6786 NMatT0=    0 NMatD0=    1 NMtDS0=    0 NMtDT0=    0
 Petite list used in FoFCou.
 CIDS: In Core Option IDoMem=           1.
 CCSD(T)
 =======
 Iterations=  50 Convergence= 0.100D-06
 Produce multiple copies of IABC intergrals
 Iteration Nr.   1
 **********************
 DD1Dir will call FoFMem   1 times, MxPair=        72
 NAB=    36 NAA=     0 NBB=     0.
 MP4(R+Q)=  0.75597716D-02
 Maximum subspace dimension=  5
 A-vector RMS=  1.7449311D-03 Max=  6.2151905D-03 conv= 1.00D-05.
 RLE energy=       -0.5258882117
 E3=       -0.75696701D-02        EUMP3=      -0.15264031966D+03
 E4(DQ)=   -0.15530774D-02        UMP4(DQ)=   -0.15264187273D+03
 E4(SDQ)=  -0.46138586D-02        UMP4(SDQ)=  -0.15264493352D+03
 VARIATIONAL ENERGIES WITH THE FIRST-ORDER WAVEFUNCTION:
 DE(Corr)= -0.52588821     E(Corr)=     -152.63268848    
 NORM(A)=   0.10601237D+01
 Iteration Nr.   2
 **********************
 DD1Dir will call FoFMem   1 times, MxPair=        72
 NAB=    36 NAA=     0 NBB=     0.
 A-vector RMS=  2.1216856D-04 Max=  2.3228763D-03 conv= 1.00D-05.
 RLE energy=       -0.5369599389
 DE(Corr)= -0.53579938     E(CORR)=     -152.64259965     Delta=-9.91D-03
 NORM(A)=   0.10638779D+01
 Iteration Nr.   3
 **********************
 DD1Dir will call FoFMem   1 times, MxPair=        72
 NAB=    36 NAA=     0 NBB=     0.
 A-vector RMS=  1.4188839D-04 Max=  8.4484694D-04 conv= 1.00D-05.
 RLE energy=       -0.5374563782
 DE(Corr)= -0.53686953     E(CORR)=     -152.64366980     Delta=-1.07D-03
 NORM(A)=   0.10645176D+01
 Iteration Nr.   4
 **********************
 DD1Dir will call FoFMem   1 times, MxPair=        72
 NAB=    36 NAA=     0 NBB=     0.
 A-vector RMS=  2.5971748D-05 Max=  1.4180232D-04 conv= 1.00D-05.
 RLE energy=       -0.5375396113
 DE(Corr)= -0.53750424     E(CORR)=     -152.64430451     Delta=-6.35D-04
 NORM(A)=   0.10646289D+01
 Iteration Nr.   5
 **********************
 DD1Dir will call FoFMem   1 times, MxPair=        72
 NAB=    36 NAA=     0 NBB=     0.
 A-vector RMS=  1.8927231D-05 Max=  1.5745767D-04 conv= 1.00D-05.
 RLE energy=       -0.5375481019
 DE(Corr)= -0.53754127     E(CORR)=     -152.64434154     Delta=-3.70D-05
 NORM(A)=   0.10646386D+01
 Iteration Nr.   6
 **********************
 DD1Dir will call FoFMem   1 times, MxPair=        72
 NAB=    36 NAA=     0 NBB=     0.
 A-vector RMS=  5.5768913D-06 Max=  4.1180858D-05 conv= 1.00D-05.
 RLE energy=       -0.5375388349
 DE(Corr)= -0.53754447     E(CORR)=     -152.64434474     Delta=-3.20D-06
 NORM(A)=   0.10646387D+01
 Iteration Nr.   7
 **********************
 DD1Dir will call FoFMem   1 times, MxPair=        72
 NAB=    36 NAA=     0 NBB=     0.
 A-vector RMS=  2.6752620D-06 Max=  2.2737155D-05 conv= 1.00D-05.
 RLE energy=       -0.5375456491
 DE(Corr)= -0.53754461     E(CORR)=     -152.64434488     Delta=-1.42D-07
 NORM(A)=   0.10646411D+01
 Iteration Nr.   8
 **********************
 DD1Dir will call FoFMem   1 times, MxPair=        72
 NAB=    36 NAA=     0 NBB=     0.
 A-vector RMS=  5.1762714D-07 Max=  4.2428024D-06 conv= 1.00D-05.
 RLE energy=       -0.5375440075
 DE(Corr)= -0.53754418     E(CORR)=     -152.64434444     Delta= 4.39D-07
 NORM(A)=   0.10646413D+01
 Iteration Nr.   9
 **********************
 DD1Dir will call FoFMem   1 times, MxPair=        72
 NAB=    36 NAA=     0 NBB=     0.
 A-vector RMS=  1.1470360D-07 Max=  8.6494023D-07 conv= 1.00D-05.
 RLE energy=       -0.5375445078
 DE(Corr)= -0.53754447     E(CORR)=     -152.64434474     Delta=-2.93D-07
 NORM(A)=   0.10646415D+01
 Iteration Nr.  10
 **********************
 DD1Dir will call FoFMem   1 times, MxPair=        72
 NAB=    36 NAA=     0 NBB=     0.
 A-vector RMS=  3.8236938D-08 Max=  3.2809615D-07 conv= 1.00D-05.
 RLE energy=       -0.5375444620
 DE(Corr)= -0.53754445     E(CORR)=     -152.64434471     Delta= 2.27D-08
 NORM(A)=   0.10646416D+01
 CI/CC converged in   10 iterations to DelEn= 2.27D-08 Conv= 1.00D-07 ErrA1= 3.82D-08 Conv= 1.00D-05
 Wavefunction amplitudes converged. E(Corr)=     -152.64434471    
 Largest amplitude= 4.79D-02
 IPart=  2 IA=    7   11.05% done.
 IPart=  1 IA=   13   21.46% done.
 IPart=  2 IA=   19   31.21% done.
 IPart=  3 IA=   25   40.32% done.
 IPart=  3 IA=   32   50.13% done.
 IPart=  3 IA=   40   60.27% done.
 IPart=  3 IA=   49   70.30% done.
 IPart=  1 IA=   60   80.58% done.
 IPart=  2 IA=   74   90.51% done.
 Time for triples=       81.71 seconds.
 T4(CCSD)= -0.16041665D-01
 T5(CCSD)=  0.40439672D-03
 CCSD(T)= -0.15265998198D+03
 Discarding MO integrals.
 Leave Link  913 at Sat Aug 27 02:17:33 2022, MaxMem=   536870912 cpu:             106.0 elap:              29.0
 (Enter /usr/site/hpc/x86_64/glibc-2.17/broadwell/gaussian/g16_a.03/pgi-16.5/g16/l601.exe)
 Copying SCF densities to generalized density rwf, IOpCl= 0 IROHF=0.

 **********************************************************************

            Population analysis using the SCF density.

 **********************************************************************

 Orbital symmetries:
       Occupied  (A') (A') (A') (A') (A') (A') (A') (A') (A") (A")
       Virtual   (A') (A') (A') (A') (A') (A') (A') (A') (A') (A')
                 (A") (A") (A') (A') (A') (A') (A") (A") (A") (A")
                 (A') (A') (A') (A') (A') (A') (A') (A') (A") (A")
                 (A") (A") (A') (A') (A') (A') (A') (A') (A') (A')
                 (A') (A') (A") (A") (A') (A') (A") (A") (A') (A')
                 (A") (A") (A') (A') (A') (A') (A") (A") (A") (A")
                 (A') (A') (A') (A') (A") (A") (A') (A') (A') (A')
                 (A") (A") (A') (A') (A') (A') (A') (A') (A') (A')
                 (A") (A") (A') (A') (A") (A") (A") (A") (A') (A')
                 (A") (A") (A') (A') (A') (A') (A") (A") (A') (A')
                 (A') (A') (A') (A') (A') (A')
 The electronic state is 1-A'.
 Alpha  occ. eigenvalues --  -20.55241 -20.55023  -1.32537  -1.32317  -0.69945
 Alpha  occ. eigenvalues --   -0.69719  -0.55956  -0.55736  -0.49644  -0.49425
 Alpha virt. eigenvalues --    0.14309   0.14671   0.20409   0.20679   0.54609
 Alpha virt. eigenvalues --    0.54869   0.57486   0.57710   0.68003   0.68797
 Alpha virt. eigenvalues --    0.79235   0.79450   0.80674   0.80913   0.82633
 Alpha virt. eigenvalues --    0.82823   0.85066   0.85284   0.97541   0.97753
 Alpha virt. eigenvalues --    1.14976   1.15407   1.17405   1.17638   1.51928
 Alpha virt. eigenvalues --    1.52142   1.52234   1.52452   2.00979   2.01197
 Alpha virt. eigenvalues --    2.07034   2.07258   2.09724   2.09966   2.15156
 Alpha virt. eigenvalues --    2.15382   2.25115   2.25743   2.61771   2.61997
 Alpha virt. eigenvalues --    2.93142   2.93382   3.39632   3.39854   3.50186
 Alpha virt. eigenvalues --    3.50408   3.53373   3.53592   3.59753   3.59977
 Alpha virt. eigenvalues --    3.78940   3.79159   3.85699   3.85924   3.87874
 Alpha virt. eigenvalues --    3.88094   3.93830   3.94053   4.03291   4.03509
 Alpha virt. eigenvalues --    4.08450   4.08670   4.15510   4.15756   4.30378
 Alpha virt. eigenvalues --    4.30598   4.40204   4.40428   4.45817   4.46040
 Alpha virt. eigenvalues --    4.66791   4.67009   4.81144   4.81369   5.04460
 Alpha virt. eigenvalues --    5.04714   5.24357   5.24593   5.54322   5.54546
 Alpha virt. eigenvalues --    5.98211   5.98429   6.40662   6.40880   6.86457
 Alpha virt. eigenvalues --    6.86678   6.89932   6.90152   6.94861   6.95083
 Alpha virt. eigenvalues --    6.99414   6.99633   7.08167   7.08393   7.12788
 Alpha virt. eigenvalues --    7.13026   7.18581   7.18803   7.47474   7.47704
 Alpha virt. eigenvalues --    7.70610   7.70832   8.15333   8.15556  12.49543
 Alpha virt. eigenvalues --   12.49762
          Condensed to atoms (all electrons):
               1          2          3          4          5          6
     1  O    7.814468   0.344668   0.346176   0.000000  -0.000000   0.000003
     2  H    0.344668   0.440579  -0.036630   0.000000  -0.000000  -0.000000
     3  H    0.346176  -0.036630   0.436519   0.000000   0.000000  -0.000000
     4  O    0.000000   0.000000   0.000000   7.814482   0.344104   0.346475
     5  H   -0.000000  -0.000000   0.000000   0.344104   0.441992  -0.036713
     6  H    0.000003  -0.000000  -0.000000   0.346475  -0.036713   0.435797
 Mulliken charges:
               1
     1  O   -0.505314
     2  H    0.251383
     3  H    0.253935
     4  O   -0.505061
     5  H    0.250618
     6  H    0.254439
 Sum of Mulliken charges =  -0.00000
 Mulliken charges with hydrogens summed into heavy atoms:
               1
     1  O    0.000004
     4  O   -0.000004
 Electronic spatial extent (au):  <R**2>=            601.9324
 Charge=             -0.0000 electrons
 Dipole moment (field-independent basis, Debye):
    X=             -1.2910    Y=             -0.4962    Z=              0.0000  Tot=              1.3831
 Quadrupole moment (field-independent basis, Debye-Ang):
   XX=             -8.6985   YY=              8.0461   ZZ=            -14.7109
   XY=             -2.7116   XZ=              0.0000   YZ=              0.0000
 Traceless Quadrupole moment (field-independent basis, Debye-Ang):
   XX=             -3.5774   YY=             13.1672   ZZ=             -9.5898
   XY=             -2.7116   XZ=              0.0000   YZ=              0.0000
 Octapole moment (field-independent basis, Debye-Ang**2):
  XXX=             -1.8485  YYY=             -2.7716  ZZZ=              0.0000  XYY=             -3.6081
  XXY=             -4.0834  XXZ=              0.0000  XZZ=             -0.1684  YZZ=             -0.0676
  YYZ=              0.0000  XYZ=              0.0000
 Hexadecapole moment (field-independent basis, Debye-Ang**3):
 XXXX=            -10.9669 YYYY=           -217.0100 ZZZZ=            -11.3337 XXXY=             -2.8189
 XXXZ=              0.0000 YYYX=              0.3459 YYYZ=              0.0000 ZZZX=              0.0000
 ZZZY=              0.0000 XXYY=            -66.2829 XXZZ=             -4.4896 YYZZ=           -120.6892
 XXYZ=              0.0000 YYXZ=              0.0000 ZZXY=              0.9584
 N-N= 2.720593478491D+01 E-N=-4.159199558130D+02  KE= 1.518053135854D+02
 Symmetry A'   KE= 1.427674647762D+02
 Symmetry A"   KE= 9.037848809188D+00
 Leave Link  601 at Sat Aug 27 02:17:33 2022, MaxMem=   536870912 cpu:               0.2 elap:               0.1
 (Enter /usr/site/hpc/x86_64/glibc-2.17/broadwell/gaussian/g16_a.03/pgi-16.5/g16/l9999.exe)
 1\1\GINC-N003\SP\RCCSD(T)-FC\CC-pVTZ\H4O2\C7441284\27-Aug-2022\0\\#p C
 CSD(T)/cc-pVTZ\\H2O_H2O_3661\\0,1\O,0,0.,-0.009833,0.\H,0,-0.799571,-0
 .580965,0.\H,0,0.799571,-0.580965,0.\O,0,-0.006483,5.47733,0.\H,0,0.21
 8093,6.433924,0.\H,0,-0.984207,5.379536,0.\\Version=ES64L-G16RevA.03\S
 tate=1-A'\HF=-152.1068003\MP2=-152.63275\MP3=-152.6403197\MP4D=-152.64
 94325\MP4DQ=-152.6418727\MP4SDQ=-152.6449335\CCSD=-152.6443447\CCSD(T)
 =-152.659982\RMSD=7.355e-09\PG=CS [SG(H4O2)]\\@


 THE REASON MAN'S BEST FRIEND IS A DOG IS BECAUSE
 HE WAGS HIS TAIL INSTEAD OF HIS TONGUE.
 Job cpu time:       0 days  0 hours  1 minutes 55.7 seconds.
 Elapsed time:       0 days  0 hours  0 minutes 31.8 seconds.
 File lengths (MBytes):  RWF=    312 Int=      0 D2E=      0 Chk=      8 Scr=      8
 Normal termination of Gaussian 16 at Sat Aug 27 02:17:33 2022.
