 Entering Gaussian System, Link 0=g16
 Input=H2O_H2O_4459.com
 Output=H2O_H2O_4459.log
 Initial command:
 /usr/site/hpc/x86_64/glibc-2.17/broadwell/gaussian/g16_a.03/pgi-16.5/g16/l1.exe "/gpfs/gpfs1/scratch/c7441284/ForceFieldModel/FittingData/Gau-3705478.inp" -scrdir="/gpfs/gpfs1/scratch/c7441284/ForceFieldModel/FittingData/"
 Entering Link 1 = /usr/site/hpc/x86_64/glibc-2.17/broadwell/gaussian/g16_a.03/pgi-16.5/g16/l1.exe PID=   3705479.
  
 Copyright (c) 1988,1990,1992,1993,1995,1998,2003,2009,2016,
            Gaussian, Inc.  All Rights Reserved.
  
 This is part of the Gaussian(R) 16 program.  It is based on
 the Gaussian(R) 09 system (copyright 2009, Gaussian, Inc.),
 the Gaussian(R) 03 system (copyright 2003, Gaussian, Inc.),
 the Gaussian(R) 98 system (copyright 1998, Gaussian, Inc.),
 the Gaussian(R) 94 system (copyright 1995, Gaussian, Inc.),
 the Gaussian 92(TM) system (copyright 1992, Gaussian, Inc.),
 the Gaussian 90(TM) system (copyright 1990, Gaussian, Inc.),
 the Gaussian 88(TM) system (copyright 1988, Gaussian, Inc.),
 the Gaussian 86(TM) system (copyright 1986, Carnegie Mellon
 University), and the Gaussian 82(TM) system (copyright 1983,
 Carnegie Mellon University). Gaussian is a federally registered
 trademark of Gaussian, Inc.
  
 This software contains proprietary and confidential information,
 including trade secrets, belonging to Gaussian, Inc.
  
 This software is provided under written license and may be
 used, copied, transmitted, or stored only in accord with that
 written license.
  
 The following legend is applicable only to US Government
 contracts under FAR:
  
                    RESTRICTED RIGHTS LEGEND
  
 Use, reproduction and disclosure by the US Government is
 subject to restrictions as set forth in subparagraphs (a)
 and (c) of the Commercial Computer Software - Restricted
 Rights clause in FAR 52.227-19.
  
 Gaussian, Inc.
 340 Quinnipiac St., Bldg. 40, Wallingford CT 06492
  
  
 ---------------------------------------------------------------
 Warning -- This program may not be used in any manner that
 competes with the business of Gaussian, Inc. or will provide
 assistance to any competitor of Gaussian, Inc.  The licensee
 of this program is prohibited from giving any competitor of
 Gaussian, Inc. access to this program.  By using this program,
 the user acknowledges that Gaussian, Inc. is engaged in the
 business of creating and licensing software in the field of
 computational chemistry and represents and warrants to the
 licensee that it is not a competitor of Gaussian, Inc. and that
 it will not use this program in any manner prohibited above.
 ---------------------------------------------------------------
  

 Cite this work as:
 Gaussian 16, Revision A.03,
 M. J. Frisch, G. W. Trucks, H. B. Schlegel, G. E. Scuseria, 
 M. A. Robb, J. R. Cheeseman, G. Scalmani, V. Barone, 
 G. A. Petersson, H. Nakatsuji, X. Li, M. Caricato, A. V. Marenich, 
 J. Bloino, B. G. Janesko, R. Gomperts, B. Mennucci, H. P. Hratchian, 
 J. V. Ortiz, A. F. Izmaylov, J. L. Sonnenberg, D. Williams-Young, 
 F. Ding, F. Lipparini, F. Egidi, J. Goings, B. Peng, A. Petrone, 
 T. Henderson, D. Ranasinghe, V. G. Zakrzewski, J. Gao, N. Rega, 
 G. Zheng, W. Liang, M. Hada, M. Ehara, K. Toyota, R. Fukuda, 
 J. Hasegawa, M. Ishida, T. Nakajima, Y. Honda, O. Kitao, H. Nakai, 
 T. Vreven, K. Throssell, J. A. Montgomery, Jr., J. E. Peralta, 
 F. Ogliaro, M. J. Bearpark, J. J. Heyd, E. N. Brothers, K. N. Kudin, 
 V. N. Staroverov, T. A. Keith, R. Kobayashi, J. Normand, 
 K. Raghavachari, A. P. Rendell, J. C. Burant, S. S. Iyengar, 
 J. Tomasi, M. Cossi, J. M. Millam, M. Klene, C. Adamo, R. Cammi, 
 J. W. Ochterski, R. L. Martin, K. Morokuma, O. Farkas, 
 J. B. Foresman, and D. J. Fox, Gaussian, Inc., Wallingford CT, 2016.
 
 ******************************************
 Gaussian 16:  ES64L-G16RevA.03 25-Dec-2016
                27-Aug-2022 
 ******************************************
 %NProcShared=4
 Will use up to    4 processors via shared memory.
 %Mem=4GB
 %Chk=H2O_H2O_4459.chk
 ------------------
 #p CCSD(T)/cc-pVTZ
 ------------------
 1/38=1,172=1/1;
 2/12=2,17=6,18=5,40=1/2;
 3/5=16,6=1,11=9,25=1,30=1/1,2,3;
 4//1;
 5/5=2,38=5/2;
 8/6=4,9=120000,10=1/1,4;
 9/5=7,14=2/13;
 6/7=2,8=2,9=2,10=2/1;
 99/5=1,9=1/99;
 Leave Link    1 at Sat Aug 27 07:25:44 2022, MaxMem=   536870912 cpu:               0.2 elap:               0.1
 (Enter /usr/site/hpc/x86_64/glibc-2.17/broadwell/gaussian/g16_a.03/pgi-16.5/g16/l101.exe)
 ------------
 H2O_H2O_4459
 ------------
 Symbolic Z-matrix:
 Charge =  0 Multiplicity = 1
 O                     0.       -0.00983   0. 
 H                    -0.79957  -0.58097   0. 
 H                     0.79957  -0.58097   0. 
 O                    -0.00546   6.32905   0. 
 H                     0.34205   7.24815   0. 
 H                    -0.98759   6.35971   0. 
 
 ITRead=  0  0  0  0  0  0
 MicOpt= -1 -1 -1 -1 -1 -1
 NAtoms=      6 NQM=        6 NQMF=       0 NMMI=      0 NMMIF=      0
                NMic=       0 NMicF=      0.
                    Isotopes and Nuclear Properties:
 (Nuclear quadrupole moments (NQMom) in fm**2, nuclear magnetic moments (NMagM)
  in nuclear magnetons)

  Atom         1           2           3           4           5           6
 IAtWgt=          16           1           1          16           1           1
 AtmWgt=  15.9949146   1.0078250   1.0078250  15.9949146   1.0078250   1.0078250
 NucSpn=           0           1           1           0           1           1
 AtZEff=  -0.0000000  -0.0000000  -0.0000000  -0.0000000  -0.0000000  -0.0000000
 NQMom=    0.0000000   0.0000000   0.0000000   0.0000000   0.0000000   0.0000000
 NMagM=    0.0000000   2.7928460   2.7928460   0.0000000   2.7928460   2.7928460
 AtZNuc=   8.0000000   1.0000000   1.0000000   8.0000000   1.0000000   1.0000000
 Leave Link  101 at Sat Aug 27 07:25:44 2022, MaxMem=   536870912 cpu:               0.3 elap:               0.1
 (Enter /usr/site/hpc/x86_64/glibc-2.17/broadwell/gaussian/g16_a.03/pgi-16.5/g16/l202.exe)
                          Input orientation:                          
 ---------------------------------------------------------------------
 Center     Atomic      Atomic             Coordinates (Angstroms)
 Number     Number       Type             X           Y           Z
 ---------------------------------------------------------------------
      1          8           0        0.000000   -0.009833    0.000000
      2          1           0       -0.799571   -0.580965    0.000000
      3          1           0        0.799571   -0.580965    0.000000
      4          8           0       -0.005463    6.329052    0.000000
      5          1           0        0.342052    7.248149    0.000000
      6          1           0       -0.987586    6.359712    0.000000
 ---------------------------------------------------------------------
                    Distance matrix (angstroms):
                    1          2          3          4          5
     1  O    0.000000
     2  H    0.982601   0.000000
     3  H    0.982601   1.599142   0.000000
     4  O    6.338887   6.955497   6.956753   0.000000
     5  H    7.266038   7.911911   7.842471   0.982602   0.000000
     6  H    6.445652   6.943223   7.167072   0.982601   1.599143
                    6
     6  H    0.000000
 Stoichiometry    H4O2
 Framework group  CS[SG(H4O2)]
 Deg. of freedom     9
 Full point group                 CS      NOp   2
 Largest Abelian subgroup         CS      NOp   2
 Largest concise Abelian subgroup C1      NOp   1
                         Standard orientation:                         
 ---------------------------------------------------------------------
 Center     Atomic      Atomic             Coordinates (Angstroms)
 Number     Number       Type             X           Y           Z
 ---------------------------------------------------------------------
      1          8           0        0.031739   -3.159846    0.000000
      2          1           0       -0.768324   -3.730288    0.000000
      3          1           0        0.830817   -3.731667    0.000000
      4          8           0        0.031739    3.179042    0.000000
      5          1           0        0.380046    4.097839    0.000000
      6          1           0       -0.950358    3.210548    0.000000
 ---------------------------------------------------------------------
 Rotational constants (GHZ):         213.8205236           1.3414875           1.3331236
 Leave Link  202 at Sat Aug 27 07:25:44 2022, MaxMem=   536870912 cpu:               0.1 elap:               0.0
 (Enter /usr/site/hpc/x86_64/glibc-2.17/broadwell/gaussian/g16_a.03/pgi-16.5/g16/l301.exe)
 Standard basis: CC-pVTZ (5D, 7F)
 Ernie: Thresh=  0.10000D-02 Tol=  0.10000D-05 Strict=F.
 Ernie:  6 primitive shells out of 84 were deleted.
 There are    92 symmetry adapted cartesian basis functions of A'  symmetry.
 There are    38 symmetry adapted cartesian basis functions of A"  symmetry.
 There are    80 symmetry adapted basis functions of A'  symmetry.
 There are    36 symmetry adapted basis functions of A"  symmetry.
   116 basis functions,   172 primitive gaussians,   130 cartesian basis functions
    10 alpha electrons       10 beta electrons
       nuclear repulsion energy        25.9791274089 Hartrees.
 IExCor=    0 DFT=F Ex=HF Corr=None ExCW=0 ScaHFX=  1.000000
 ScaDFX=  1.000000  1.000000  1.000000  1.000000 ScalE2=  1.000000  1.000000
 IRadAn=      5 IRanWt=     -1 IRanGd=            0 ICorTp=0 IEmpDi=  4
 NAtoms=    6 NActive=    6 NUniq=    6 SFac= 1.00D+00 NAtFMM=   60 NAOKFM=F Big=F
 Integral buffers will be    131072 words long.
 Raffenetti 1 integral format.
 Two-electron integral symmetry is turned on.
 Leave Link  301 at Sat Aug 27 07:25:44 2022, MaxMem=   536870912 cpu:               0.2 elap:               0.1
 (Enter /usr/site/hpc/x86_64/glibc-2.17/broadwell/gaussian/g16_a.03/pgi-16.5/g16/l302.exe)
 NPDir=0 NMtPBC=     1 NCelOv=     1 NCel=       1 NClECP=     1 NCelD=      1
         NCelK=      1 NCelE2=     1 NClLst=     1 CellRange=     0.0.
 One-electron integrals computed using PRISM.
 One-electron integral symmetry used in STVInt
 NBasis=   116 RedAO= T EigKep=  2.69D-03  NBF=    80    36
 NBsUse=   116 1.00D-06 EigRej= -1.00D+00 NBFU=    80    36
 Leave Link  302 at Sat Aug 27 07:25:44 2022, MaxMem=   536870912 cpu:               0.4 elap:               0.1
 (Enter /usr/site/hpc/x86_64/glibc-2.17/broadwell/gaussian/g16_a.03/pgi-16.5/g16/l303.exe)
 DipDrv:  MaxL=1.
 Leave Link  303 at Sat Aug 27 07:25:44 2022, MaxMem=   536870912 cpu:               0.1 elap:               0.0
 (Enter /usr/site/hpc/x86_64/glibc-2.17/broadwell/gaussian/g16_a.03/pgi-16.5/g16/l401.exe)
 ExpMin= 1.03D-01 ExpMax= 1.53D+04 ExpMxC= 5.22D+02 IAcc=3 IRadAn=         5 AccDes= 0.00D+00
 Harris functional with IExCor=  205 and IRadAn=       5 diagonalized for initial guess.
 HarFok:  IExCor=  205 AccDes= 0.00D+00 IRadAn=         5 IDoV= 1 UseB2=F ITyADJ=14
 ICtDFT=  3500011 ScaDFX=  1.000000  1.000000  1.000000  1.000000
 FoFCou: FMM=F IPFlag=           0 FMFlag=      100000 FMFlg1=           0
         NFxFlg=           0 DoJE=T BraDBF=F KetDBF=T FulRan=T
         wScrn=  0.000000 ICntrl=       500 IOpCl=  0 I1Cent=   200000004 NGrid=           0
         NMat0=    1 NMatS0=      1 NMatT0=    0 NMatD0=    1 NMtDS0=    0 NMtDT0=    0
 Petite list used in FoFCou.
 Harris En= -152.298685273847    
 JPrj=0 DoOrth=F DoCkMO=F.
 Initial guess orbital symmetries:
       Occupied  (A') (A') (A') (A') (A') (A') (A') (A') (A") (A")
       Virtual   (A') (A') (A') (A') (A') (A') (A') (A') (A') (A')
                 (A") (A") (A') (A') (A') (A') (A") (A") (A") (A")
                 (A') (A') (A') (A') (A') (A') (A') (A') (A") (A")
                 (A") (A") (A') (A') (A') (A') (A') (A') (A') (A')
                 (A') (A') (A") (A") (A') (A') (A") (A") (A") (A")
                 (A') (A') (A') (A') (A') (A') (A") (A") (A') (A')
                 (A') (A') (A") (A") (A") (A") (A') (A') (A') (A')
                 (A") (A") (A') (A') (A') (A') (A') (A') (A') (A')
                 (A") (A") (A') (A') (A") (A") (A") (A") (A') (A')
                 (A") (A") (A') (A') (A') (A') (A") (A") (A') (A')
                 (A') (A') (A') (A') (A') (A')
 The electronic state of the initial guess is 1-A'.
 Leave Link  401 at Sat Aug 27 07:25:45 2022, MaxMem=   536870912 cpu:               0.7 elap:               0.2
 (Enter /usr/site/hpc/x86_64/glibc-2.17/broadwell/gaussian/g16_a.03/pgi-16.5/g16/l502.exe)
 Keep R1 ints in memory in symmetry-blocked form, NReq=34823457.
 FoFCou: FMM=F IPFlag=           0 FMFlag=           0 FMFlg1=           0
         NFxFlg=           0 DoJE=F BraDBF=F KetDBF=F FulRan=T
         wScrn=  0.000000 ICntrl=       600 IOpCl=  0 I1Cent=           0 NGrid=           0
         NMat0=    1 NMatS0=   6786 NMatT0=    0 NMatD0=    1 NMtDS0=    0 NMtDT0=    0
 Petite list used in FoFCou.
 Closed shell SCF:
 Using DIIS extrapolation, IDIIS=  1040.
 NGot=   536870912 LenX=   525040673 LenY=   525023332
 Requested convergence on RMS density matrix=1.00D-08 within 128 cycles.
 Requested convergence on MAX density matrix=1.00D-06.
 Requested convergence on             energy=1.00D-06.
 No special actions if energy rises.

 Cycle   1  Pass 1  IDiag  1:
 E= -151.926018589253    
 DIIS: error= 5.16D-02 at cycle   1 NSaved=   1.
 NSaved= 1 IEnMin= 1 EnMin= -151.926018589253     IErMin= 1 ErrMin= 5.16D-02
 ErrMax= 5.16D-02  0.00D+00 EMaxC= 1.00D-01 BMatC= 4.01D-01 BMatP= 4.01D-01
 IDIUse=3 WtCom= 4.84D-01 WtEn= 5.16D-01
 Coeff-Com:  0.100D+01
 Coeff-En:   0.100D+01
 Coeff:      0.100D+01
 Gap=     0.521 Goal=   None    Shift=    0.000
 GapD=    0.521 DampG=2.000 DampE=0.500 DampFc=1.0000 IDamp=-1.
 RMSDP=2.51D-03 MaxDP=6.63D-02              OVMax= 1.27D-01

 Cycle   2  Pass 1  IDiag  1:
 E= -152.038016852569     Delta-E=       -0.111998263316 Rises=F Damp=F
 DIIS: error= 3.55D-02 at cycle   2 NSaved=   2.
 NSaved= 2 IEnMin= 2 EnMin= -152.038016852569     IErMin= 2 ErrMin= 3.55D-02
 ErrMax= 3.55D-02  0.00D+00 EMaxC= 1.00D-01 BMatC= 1.13D-01 BMatP= 4.01D-01
 IDIUse=3 WtCom= 6.45D-01 WtEn= 3.55D-01
 Coeff-Com:  0.320D+00 0.680D+00
 Coeff-En:   0.167D+00 0.833D+00
 Coeff:      0.266D+00 0.734D+00
 Gap=     0.661 Goal=   None    Shift=    0.000
 RMSDP=1.31D-03 MaxDP=3.91D-02 DE=-1.12D-01 OVMax= 5.67D-02

 Cycle   3  Pass 1  IDiag  1:
 E= -152.103616659175     Delta-E=       -0.065599806606 Rises=F Damp=F
 DIIS: error= 7.98D-03 at cycle   3 NSaved=   3.
 NSaved= 3 IEnMin= 3 EnMin= -152.103616659175     IErMin= 3 ErrMin= 7.98D-03
 ErrMax= 7.98D-03  0.00D+00 EMaxC= 1.00D-01 BMatC= 5.24D-03 BMatP= 1.13D-01
 IDIUse=3 WtCom= 9.20D-01 WtEn= 7.98D-02
 Coeff-Com: -0.303D-01 0.144D+00 0.886D+00
 Coeff-En:   0.000D+00 0.000D+00 0.100D+01
 Coeff:     -0.279D-01 0.133D+00 0.895D+00
 Gap=     0.636 Goal=   None    Shift=    0.000
 RMSDP=2.28D-04 MaxDP=5.18D-03 DE=-6.56D-02 OVMax= 1.27D-02

 Cycle   4  Pass 1  IDiag  1:
 E= -152.106916077103     Delta-E=       -0.003299417928 Rises=F Damp=F
 DIIS: error= 7.56D-04 at cycle   4 NSaved=   4.
 NSaved= 4 IEnMin= 4 EnMin= -152.106916077103     IErMin= 4 ErrMin= 7.56D-04
 ErrMax= 7.56D-04  0.00D+00 EMaxC= 1.00D-01 BMatC= 3.27D-05 BMatP= 5.24D-03
 IDIUse=3 WtCom= 9.92D-01 WtEn= 7.56D-03
 Coeff-Com:  0.707D-02-0.583D-01-0.256D+00 0.131D+01
 Coeff-En:   0.000D+00 0.000D+00 0.000D+00 0.100D+01
 Coeff:      0.702D-02-0.578D-01-0.254D+00 0.130D+01
 Gap=     0.639 Goal=   None    Shift=    0.000
 RMSDP=5.18D-05 MaxDP=9.85D-04 DE=-3.30D-03 OVMax= 2.28D-03

 Cycle   5  Pass 1  IDiag  1:
 E= -152.106964428695     Delta-E=       -0.000048351593 Rises=F Damp=F
 DIIS: error= 1.80D-04 at cycle   5 NSaved=   5.
 NSaved= 5 IEnMin= 5 EnMin= -152.106964428695     IErMin= 5 ErrMin= 1.80D-04
 ErrMax= 1.80D-04  0.00D+00 EMaxC= 1.00D-01 BMatC= 1.30D-06 BMatP= 3.27D-05
 IDIUse=3 WtCom= 9.98D-01 WtEn= 1.80D-03
 Coeff-Com:  0.533D-03 0.114D-03-0.243D-02-0.209D+00 0.121D+01
 Coeff-En:   0.000D+00 0.000D+00 0.000D+00 0.000D+00 0.100D+01
 Coeff:      0.532D-03 0.114D-03-0.243D-02-0.208D+00 0.121D+01
 Gap=     0.639 Goal=   None    Shift=    0.000
 RMSDP=1.37D-05 MaxDP=2.81D-04 DE=-4.84D-05 OVMax= 6.72D-04

 Cycle   6  Pass 1  IDiag  1:
 E= -152.106967145500     Delta-E=       -0.000002716805 Rises=F Damp=F
 DIIS: error= 2.90D-05 at cycle   6 NSaved=   6.
 NSaved= 6 IEnMin= 6 EnMin= -152.106967145500     IErMin= 6 ErrMin= 2.90D-05
 ErrMax= 2.90D-05  0.00D+00 EMaxC= 1.00D-01 BMatC= 3.44D-08 BMatP= 1.30D-06
 IDIUse=1 WtCom= 1.00D+00 WtEn= 0.00D+00
 Coeff-Com: -0.285D-03 0.161D-02 0.740D-02-0.243D-02-0.260D+00 0.125D+01
 Coeff:     -0.285D-03 0.161D-02 0.740D-02-0.243D-02-0.260D+00 0.125D+01
 Gap=     0.639 Goal=   None    Shift=    0.000
 RMSDP=3.03D-06 MaxDP=6.57D-05 DE=-2.72D-06 OVMax= 1.54D-04

 Cycle   7  Pass 1  IDiag  1:
 E= -152.106967243108     Delta-E=       -0.000000097607 Rises=F Damp=F
 DIIS: error= 5.38D-06 at cycle   7 NSaved=   7.
 NSaved= 7 IEnMin= 7 EnMin= -152.106967243108     IErMin= 7 ErrMin= 5.38D-06
 ErrMax= 5.38D-06  0.00D+00 EMaxC= 1.00D-01 BMatC= 1.78D-09 BMatP= 3.44D-08
 IDIUse=1 WtCom= 1.00D+00 WtEn= 0.00D+00
 Coeff-Com:  0.371D-04-0.395D-03-0.184D-02 0.140D-01-0.101D-01-0.237D+00
 Coeff-Com:  0.124D+01
 Coeff:      0.371D-04-0.395D-03-0.184D-02 0.140D-01-0.101D-01-0.237D+00
 Coeff:      0.124D+01
 Gap=     0.639 Goal=   None    Shift=    0.000
 RMSDP=4.39D-07 MaxDP=9.51D-06 DE=-9.76D-08 OVMax= 2.96D-05

 Cycle   8  Pass 1  IDiag  1:
 E= -152.106967246887     Delta-E=       -0.000000003779 Rises=F Damp=F
 DIIS: error= 1.62D-06 at cycle   8 NSaved=   8.
 NSaved= 8 IEnMin= 8 EnMin= -152.106967246887     IErMin= 8 ErrMin= 1.62D-06
 ErrMax= 1.62D-06  0.00D+00 EMaxC= 1.00D-01 BMatC= 9.54D-11 BMatP= 1.78D-09
 IDIUse=1 WtCom= 1.00D+00 WtEn= 0.00D+00
 Coeff-Com:  0.350D-05 0.399D-04 0.237D-03-0.481D-02 0.186D-01 0.854D-02
 Coeff-Com: -0.384D+00 0.136D+01
 Coeff:      0.350D-05 0.399D-04 0.237D-03-0.481D-02 0.186D-01 0.854D-02
 Coeff:     -0.384D+00 0.136D+01
 Gap=     0.639 Goal=   None    Shift=    0.000
 RMSDP=1.12D-07 MaxDP=2.40D-06 DE=-3.78D-09 OVMax= 6.56D-06

 Cycle   9  Pass 1  IDiag  1:
 E= -152.106967247102     Delta-E=       -0.000000000215 Rises=F Damp=F
 DIIS: error= 2.83D-07 at cycle   9 NSaved=   9.
 NSaved= 9 IEnMin= 9 EnMin= -152.106967247102     IErMin= 9 ErrMin= 2.83D-07
 ErrMax= 2.83D-07  0.00D+00 EMaxC= 1.00D-01 BMatC= 5.48D-12 BMatP= 9.54D-11
 IDIUse=1 WtCom= 1.00D+00 WtEn= 0.00D+00
 Coeff-Com: -0.166D-06 0.222D-04 0.115D-03-0.168D-02 0.554D-02 0.713D-02
 Coeff-Com: -0.126D+00 0.317D+00 0.798D+00
 Coeff:     -0.166D-06 0.222D-04 0.115D-03-0.168D-02 0.554D-02 0.713D-02
 Coeff:     -0.126D+00 0.317D+00 0.798D+00
 Gap=     0.639 Goal=   None    Shift=    0.000
 RMSDP=1.29D-08 MaxDP=3.47D-07 DE=-2.15D-10 OVMax= 8.76D-07

 Cycle  10  Pass 1  IDiag  1:
 E= -152.106967247108     Delta-E=       -0.000000000006 Rises=F Damp=F
 DIIS: error= 1.03D-07 at cycle  10 NSaved=  10.
 NSaved=10 IEnMin=10 EnMin= -152.106967247108     IErMin=10 ErrMin= 1.03D-07
 ErrMax= 1.03D-07  0.00D+00 EMaxC= 1.00D-01 BMatC= 5.63D-13 BMatP= 5.48D-12
 IDIUse=1 WtCom= 1.00D+00 WtEn= 0.00D+00
 Coeff-Com: -0.431D-06-0.465D-05-0.299D-04 0.576D-03-0.202D-02-0.231D-02
 Coeff-Com:  0.535D-01-0.194D+00 0.421D-01 0.110D+01
 Coeff:     -0.431D-06-0.465D-05-0.299D-04 0.576D-03-0.202D-02-0.231D-02
 Coeff:      0.535D-01-0.194D+00 0.421D-01 0.110D+01
 Gap=     0.639 Goal=   None    Shift=    0.000
 RMSDP=6.46D-09 MaxDP=2.04D-07 DE=-5.85D-12 OVMax= 4.11D-07

 SCF Done:  E(RHF) =  -152.106967247     A.U. after   10 cycles
            NFock= 10  Conv=0.65D-08     -V/T= 2.0020
 KE= 1.518051151315D+02 PE=-4.134446811767D+02 EE= 8.355347138924D+01
 Leave Link  502 at Sat Aug 27 07:25:46 2022, MaxMem=   536870912 cpu:               3.4 elap:               0.9
 (Enter /usr/site/hpc/x86_64/glibc-2.17/broadwell/gaussian/g16_a.03/pgi-16.5/g16/l801.exe)
 Windowed orbitals will be sorted by symmetry type.
 ExpMin= 1.03D-01 ExpMax= 1.53D+04 ExpMxC= 5.22D+02 IAcc=3 IRadAn=         5 AccDes= 0.00D+00
 HarFok:  IExCor=  205 AccDes= 0.00D+00 IRadAn=         5 IDoV=-2 UseB2=F ITyADJ=14
 ICtDFT= 12500011 ScaDFX=  1.000000  1.000000  1.000000  1.000000
 Largest valence mixing into a core orbital is  1.12D-04
 Largest core mixing into a valence orbital is  1.77D-05
 Range of M.O.s used for correlation:     3   116
 NBasis=   116 NAE=    10 NBE=    10 NFC=     2 NFV=     0
 NROrb=    114 NOA=     8 NOB=     8 NVA=   106 NVB=   106
 Leave Link  801 at Sat Aug 27 07:25:46 2022, MaxMem=   536870912 cpu:               0.3 elap:               0.1
 (Enter /usr/site/hpc/x86_64/glibc-2.17/broadwell/gaussian/g16_a.03/pgi-16.5/g16/l804.exe)
 Closed-shell transformation, MDV=   536870912 ITran=4 ISComp=2.
 Unit  1 TFree=        834515 TCopy=        406125.
 Semi-Direct transformation.
 ModeAB=           4 MOrb=             8 LenV=     536381980
 LASXX=      2873146 LTotXX=     2873146 LenRXX=     5831278
 LTotAB=     2958132 MaxLAS=     4821744 LenRXY=           0
 NonZer=     8704424 LenScr=    13107200 LnRSAI=     4821744
 LnScr1=     7340032 LExtra=           0 Total=     31100254
 MaxDsk=          -1 SrtSym=           T ITran=            4
 DoSDTr:  NPSUse=  4
 JobTyp=0 Pass  1:  I=   1 to   8.
 (rs|ai) integrals will be sorted in core.
 Complete sort for first half transformation.
 First half transformation complete.
 Complete sort for second half transformation.
 Second half transformation complete.
 Spin components of T(2) and E(2):
     alpha-alpha T2 =       0.1556205402D-01 E2=     -0.6379832063D-01
     alpha-beta  T2 =       0.9193375047D-01 E2=     -0.3983209740D+00
     beta-beta   T2 =       0.1556205402D-01 E2=     -0.6379832063D-01
 ANorm=    0.1059744242D+01
 E2 =    -0.5259176152D+00 EUMP2 =    -0.15263288486235D+03
 Leave Link  804 at Sat Aug 27 07:25:46 2022, MaxMem=   536870912 cpu:               2.5 elap:               0.6
 (Enter /usr/site/hpc/x86_64/glibc-2.17/broadwell/gaussian/g16_a.03/pgi-16.5/g16/l913.exe)
 CIDS:  MDV=   536870912.
 Frozen-core window:  NFC=   2 NFV=   0.
 IFCWin=0 IBDFC=1 NFBD=     0     0 NFCmp=     0     0 NFFFC=     0     0
 Using DD3R+UMP44R for 1st iteration.
 Using DD4RQ for 2nd and later iterations.
 Keep R2 and R3 ints in memory in symmetry-blocked form, NReq=35357534.
 FoFCou: FMM=F IPFlag=           0 FMFlag=           0 FMFlg1=           0
         NFxFlg=           0 DoJE=F BraDBF=F KetDBF=F FulRan=T
         wScrn=  0.000000 ICntrl=       600 IOpCl=  0 I1Cent=           0 NGrid=           0
         NMat0=    1 NMatS0=   6786 NMatT0=    0 NMatD0=    1 NMtDS0=    0 NMtDT0=    0
 Petite list used in FoFCou.
 CIDS: In Core Option IDoMem=           1.
 CCSD(T)
 =======
 Iterations=  50 Convergence= 0.100D-06
 Produce multiple copies of IABC intergrals
 Iteration Nr.   1
 **********************
 DD1Dir will call FoFMem   1 times, MxPair=        72
 NAB=    36 NAA=     0 NBB=     0.
 MP4(R+Q)=  0.75571720D-02
 Maximum subspace dimension=  5
 A-vector RMS=  1.7437963D-03 Max=  6.2103868D-03 conv= 1.00D-05.
 RLE energy=       -0.5258618711
 E3=       -0.75727594D-02        EUMP3=      -0.15264045762D+03
 E4(DQ)=   -0.15531894D-02        UMP4(DQ)=   -0.15264201081D+03
 E4(SDQ)=  -0.46119945D-02        UMP4(SDQ)=  -0.15264506962D+03
 VARIATIONAL ENERGIES WITH THE FIRST-ORDER WAVEFUNCTION:
 DE(Corr)= -0.52586187     E(Corr)=     -152.63282912    
 NORM(A)=   0.10601143D+01
 Iteration Nr.   2
 **********************
 DD1Dir will call FoFMem   1 times, MxPair=        72
 NAB=    36 NAA=     0 NBB=     0.
 A-vector RMS=  2.1223996D-04 Max=  2.3227474D-03 conv= 1.00D-05.
 RLE energy=       -0.5369301293
 DE(Corr)= -0.53576946     E(CORR)=     -152.64273670     Delta=-9.91D-03
 NORM(A)=   0.10638666D+01
 Iteration Nr.   3
 **********************
 DD1Dir will call FoFMem   1 times, MxPair=        72
 NAB=    36 NAA=     0 NBB=     0.
 A-vector RMS=  1.4163790D-04 Max=  9.1752940D-04 conv= 1.00D-05.
 RLE energy=       -0.5374263708
 DE(Corr)= -0.53683985     E(CORR)=     -152.64380710     Delta=-1.07D-03
 NORM(A)=   0.10645059D+01
 Iteration Nr.   4
 **********************
 DD1Dir will call FoFMem   1 times, MxPair=        72
 NAB=    36 NAA=     0 NBB=     0.
 A-vector RMS=  2.5910020D-05 Max=  1.4878909D-04 conv= 1.00D-05.
 RLE energy=       -0.5375096113
 DE(Corr)= -0.53747425     E(CORR)=     -152.64444149     Delta=-6.34D-04
 NORM(A)=   0.10646171D+01
 Iteration Nr.   5
 **********************
 DD1Dir will call FoFMem   1 times, MxPair=        72
 NAB=    36 NAA=     0 NBB=     0.
 A-vector RMS=  1.8876685D-05 Max=  1.7101813D-04 conv= 1.00D-05.
 RLE energy=       -0.5375180444
 DE(Corr)= -0.53751124     E(CORR)=     -152.64447848     Delta=-3.70D-05
 NORM(A)=   0.10646267D+01
 Iteration Nr.   6
 **********************
 DD1Dir will call FoFMem   1 times, MxPair=        72
 NAB=    36 NAA=     0 NBB=     0.
 A-vector RMS=  5.5612953D-06 Max=  4.4223885D-05 conv= 1.00D-05.
 RLE energy=       -0.5375088013
 DE(Corr)= -0.53751443     E(CORR)=     -152.64448168     Delta=-3.19D-06
 NORM(A)=   0.10646268D+01
 Iteration Nr.   7
 **********************
 DD1Dir will call FoFMem   1 times, MxPair=        72
 NAB=    36 NAA=     0 NBB=     0.
 A-vector RMS=  2.6696504D-06 Max=  2.4663253D-05 conv= 1.00D-05.
 RLE energy=       -0.5375156102
 DE(Corr)= -0.53751457     E(CORR)=     -152.64448182     Delta=-1.42D-07
 NORM(A)=   0.10646292D+01
 Iteration Nr.   8
 **********************
 DD1Dir will call FoFMem   1 times, MxPair=        72
 NAB=    36 NAA=     0 NBB=     0.
 A-vector RMS=  5.1159534D-07 Max=  4.3301236D-06 conv= 1.00D-05.
 RLE energy=       -0.5375139668
 DE(Corr)= -0.53751413     E(CORR)=     -152.64448138     Delta= 4.36D-07
 NORM(A)=   0.10646294D+01
 Iteration Nr.   9
 **********************
 DD1Dir will call FoFMem   1 times, MxPair=        72
 NAB=    36 NAA=     0 NBB=     0.
 A-vector RMS=  1.0959505D-07 Max=  8.7376688D-07 conv= 1.00D-05.
 RLE energy=       -0.5375144731
 DE(Corr)= -0.53751443     E(CORR)=     -152.64448168     Delta=-2.93D-07
 NORM(A)=   0.10646296D+01
 Iteration Nr.  10
 **********************
 DD1Dir will call FoFMem   1 times, MxPair=        72
 NAB=    36 NAA=     0 NBB=     0.
 A-vector RMS=  3.3103190D-08 Max=  2.6466167D-07 conv= 1.00D-05.
 RLE energy=       -0.5375144165
 DE(Corr)= -0.53751440     E(CORR)=     -152.64448165     Delta= 2.37D-08
 NORM(A)=   0.10646297D+01
 CI/CC converged in   10 iterations to DelEn= 2.37D-08 Conv= 1.00D-07 ErrA1= 3.31D-08 Conv= 1.00D-05
 Wavefunction amplitudes converged. E(Corr)=     -152.64448165    
 Largest amplitude= 4.79D-02
 IPart=  4 IA=    7   11.05% done.
 IPart=  1 IA=   13   21.46% done.
 IPart=  3 IA=   19   31.21% done.
 IPart=  4 IA=   25   40.32% done.
 IPart=  4 IA=   32   50.13% done.
 IPart=  4 IA=   40   60.27% done.
 IPart=  4 IA=   49   70.30% done.
 IPart=  3 IA=   60   80.58% done.
 IPart=  1 IA=   74   90.51% done.
 Time for triples=       45.98 seconds.
 T4(CCSD)= -0.16036636D-01
 T5(CCSD)=  0.40390533D-03
 CCSD(T)= -0.15266011438D+03
 Discarding MO integrals.
 Leave Link  913 at Sat Aug 27 07:26:03 2022, MaxMem=   536870912 cpu:              65.1 elap:              16.3
 (Enter /usr/site/hpc/x86_64/glibc-2.17/broadwell/gaussian/g16_a.03/pgi-16.5/g16/l601.exe)
 Copying SCF densities to generalized density rwf, IOpCl= 0 IROHF=0.

 **********************************************************************

            Population analysis using the SCF density.

 **********************************************************************

 Orbital symmetries:
       Occupied  (A') (A') (A') (A') (A') (A') (A') (A') (A") (A")
       Virtual   (A') (A') (A') (A') (A') (A') (A') (A') (A') (A')
                 (A") (A") (A') (A') (A') (A') (A") (A") (A") (A")
                 (A') (A') (A') (A') (A') (A') (A') (A') (A") (A")
                 (A") (A") (A') (A') (A') (A') (A') (A') (A') (A')
                 (A') (A') (A") (A") (A') (A') (A") (A") (A') (A')
                 (A") (A") (A') (A') (A') (A') (A") (A") (A") (A")
                 (A') (A') (A') (A') (A") (A") (A') (A') (A') (A')
                 (A") (A") (A') (A') (A') (A') (A') (A') (A') (A')
                 (A") (A") (A') (A') (A") (A") (A") (A") (A') (A')
                 (A") (A") (A') (A') (A') (A') (A") (A") (A') (A')
                 (A') (A') (A') (A') (A') (A')
 The electronic state is 1-A'.
 Alpha  occ. eigenvalues --  -20.55293 -20.55183  -1.32589  -1.32479  -0.69996
 Alpha  occ. eigenvalues --   -0.69883  -0.56016  -0.55906  -0.49698  -0.49587
 Alpha virt. eigenvalues --    0.14344   0.14461   0.20399   0.20515   0.54571
 Alpha virt. eigenvalues --    0.54690   0.57450   0.57561   0.68198   0.68328
 Alpha virt. eigenvalues --    0.79181   0.79290   0.80622   0.80742   0.82549
 Alpha virt. eigenvalues --    0.82656   0.85025   0.85135   0.97490   0.97598
 Alpha virt. eigenvalues --    1.15016   1.15139   1.17356   1.17471   1.51892
 Alpha virt. eigenvalues --    1.52001   1.52182   1.52293   2.00923   2.01033
 Alpha virt. eigenvalues --    2.06981   2.07093   2.09667   2.09785   2.15102
 Alpha virt. eigenvalues --    2.15215   2.25247   2.25366   2.61722   2.61834
 Alpha virt. eigenvalues --    2.93098   2.93211   3.39585   3.39696   3.50139
 Alpha virt. eigenvalues --    3.50251   3.53328   3.53438   3.59708   3.59820
 Alpha virt. eigenvalues --    3.78889   3.78999   3.85650   3.85763   3.87826
 Alpha virt. eigenvalues --    3.87938   3.93784   3.93896   4.03244   4.03354
 Alpha virt. eigenvalues --    4.08402   4.08512   4.15473   4.15585   4.30330
 Alpha virt. eigenvalues --    4.30440   4.40148   4.40261   4.45772   4.45883
 Alpha virt. eigenvalues --    4.66740   4.66850   4.81098   4.81209   5.04428
 Alpha virt. eigenvalues --    5.04539   5.24310   5.24421   5.54269   5.54381
 Alpha virt. eigenvalues --    5.98156   5.98266   6.40610   6.40720   6.86404
 Alpha virt. eigenvalues --    6.86516   6.89880   6.89991   6.94810   6.94921
 Alpha virt. eigenvalues --    6.99358   6.99469   7.08114   7.08227   7.12738
 Alpha virt. eigenvalues --    7.12848   7.18526   7.18637   7.47422   7.47534
 Alpha virt. eigenvalues --    7.70553   7.70665   8.15283   8.15394  12.49493
 Alpha virt. eigenvalues --   12.49604
          Condensed to atoms (all electrons):
               1          2          3          4          5          6
     1  O    7.815114   0.345202   0.345956   0.000000  -0.000000   0.000000
     2  H    0.345202   0.439012  -0.036637   0.000000   0.000000  -0.000000
     3  H    0.345956  -0.036637   0.436833   0.000000   0.000000  -0.000000
     4  O    0.000000   0.000000   0.000000   7.815109   0.344886   0.346180
     5  H   -0.000000   0.000000   0.000000   0.344886   0.439763  -0.036670
     6  H    0.000000  -0.000000  -0.000000   0.346180  -0.036670   0.436338
 Mulliken charges:
               1
     1  O   -0.506272
     2  H    0.252423
     3  H    0.253849
     4  O   -0.506175
     5  H    0.252022
     6  H    0.254153
 Sum of Mulliken charges =  -0.00000
 Mulliken charges with hydrogens summed into heavy atoms:
               1
     1  O    0.000000
     4  O   -0.000000
 Electronic spatial extent (au):  <R**2>=            786.9723
 Charge=             -0.0000 electrons
 Dipole moment (field-independent basis, Debye):
    X=             -1.0906    Y=             -0.3350    Z=              0.0000  Tot=              1.1409
 Quadrupole moment (field-independent basis, Debye-Ang):
   XX=             -8.4367   YY=             11.7994   ZZ=            -14.7110
   XY=             -2.6535   XZ=              0.0000   YZ=              0.0000
 Traceless Quadrupole moment (field-independent basis, Debye-Ang):
   XX=             -4.6540   YY=             15.5822   ZZ=            -10.9282
   XY=             -2.6535   XZ=              0.0000   YZ=              0.0000
 Octapole moment (field-independent basis, Debye-Ang**2):
  XXX=             -1.8186  YYY=             -3.1867  ZZZ=              0.0000  XYY=             -4.2282
  XXY=             -3.2501  XXZ=              0.0000  XZZ=             -0.1428  YZZ=             -0.0451
  YYZ=              0.0000  XYZ=              0.0000
 Hexadecapole moment (field-independent basis, Debye-Ang**3):
 XXXX=            -10.9488 YYYY=           -223.2901 ZZZZ=            -11.3339 XXXY=             -3.7003
 XXXZ=              0.0000 YYYX=              0.1215 YYYZ=              0.0000 ZZZX=              0.0000
 ZZZY=              0.0000 XXYY=            -82.6788 XXZZ=             -4.5121 YYZZ=           -158.8581
 XXYZ=              0.0000 YYXZ=              0.0000 ZZXY=              0.9384
 N-N= 2.597912740889D+01 E-N=-4.134446800998D+02  KE= 1.518051151315D+02
 Symmetry A'   KE= 1.427673314482D+02
 Symmetry A"   KE= 9.037783683230D+00
 Leave Link  601 at Sat Aug 27 07:26:03 2022, MaxMem=   536870912 cpu:               0.1 elap:               0.0
 (Enter /usr/site/hpc/x86_64/glibc-2.17/broadwell/gaussian/g16_a.03/pgi-16.5/g16/l9999.exe)
 1\1\GINC-N003\SP\RCCSD(T)-FC\CC-pVTZ\H4O2\C7441284\27-Aug-2022\0\\#p C
 CSD(T)/cc-pVTZ\\H2O_H2O_4459\\0,1\O,0,0.,-0.009833,0.\H,0,-0.799571,-0
 .580965,0.\H,0,0.799571,-0.580965,0.\O,0,-0.005463,6.329052,0.\H,0,0.3
 42052,7.248149,0.\H,0,-0.987586,6.359712,0.\\Version=ES64L-G16RevA.03\
 State=1-A'\HF=-152.1069672\MP2=-152.6328849\MP3=-152.6404576\MP4D=-152
 .649568\MP4DQ=-152.6420108\MP4SDQ=-152.6450696\CCSD=-152.6444817\CCSD(
 T)=-152.6601144\RMSD=6.458e-09\PG=CS [SG(H4O2)]\\@


 ASKING FOR EFFICIENCY AND ADAPTABILITY IN THE SAME PROGRAM IS LIKE
 ASKING FOR A BEAUTIFUL AND MODEST WIFE ...
 WE'LL PROBABLY HAVE TO SETTLE FOR ONE OR THE OTHER.

             -- THE PSYCHOLOGY OF COMPUTER PROGRAMMING
                GERALD M. WEINBERG
 Job cpu time:       0 days  0 hours  1 minutes 13.4 seconds.
 Elapsed time:       0 days  0 hours  0 minutes 18.6 seconds.
 File lengths (MBytes):  RWF=    568 Int=      0 D2E=      0 Chk=      8 Scr=      8
 Normal termination of Gaussian 16 at Sat Aug 27 07:26:03 2022.
