 Entering Gaussian System, Link 0=g16
 Input=H2O_H2O_876.com
 Output=H2O_H2O_876.log
 Initial command:
 /usr/site/hpc/x86_64/glibc-2.17/broadwell/gaussian/g16_a.03/pgi-16.5/g16/l1.exe "/gpfs/gpfs1/scratch/c7441284/ForceFieldModel/FittingData/Gau-3788613.inp" -scrdir="/gpfs/gpfs1/scratch/c7441284/ForceFieldModel/FittingData/"
 Entering Link 1 = /usr/site/hpc/x86_64/glibc-2.17/broadwell/gaussian/g16_a.03/pgi-16.5/g16/l1.exe PID=   3788614.
  
 Copyright (c) 1988,1990,1992,1993,1995,1998,2003,2009,2016,
            Gaussian, Inc.  All Rights Reserved.
  
 This is part of the Gaussian(R) 16 program.  It is based on
 the Gaussian(R) 09 system (copyright 2009, Gaussian, Inc.),
 the Gaussian(R) 03 system (copyright 2003, Gaussian, Inc.),
 the Gaussian(R) 98 system (copyright 1998, Gaussian, Inc.),
 the Gaussian(R) 94 system (copyright 1995, Gaussian, Inc.),
 the Gaussian 92(TM) system (copyright 1992, Gaussian, Inc.),
 the Gaussian 90(TM) system (copyright 1990, Gaussian, Inc.),
 the Gaussian 88(TM) system (copyright 1988, Gaussian, Inc.),
 the Gaussian 86(TM) system (copyright 1986, Carnegie Mellon
 University), and the Gaussian 82(TM) system (copyright 1983,
 Carnegie Mellon University). Gaussian is a federally registered
 trademark of Gaussian, Inc.
  
 This software contains proprietary and confidential information,
 including trade secrets, belonging to Gaussian, Inc.
  
 This software is provided under written license and may be
 used, copied, transmitted, or stored only in accord with that
 written license.
  
 The following legend is applicable only to US Government
 contracts under FAR:
  
                    RESTRICTED RIGHTS LEGEND
  
 Use, reproduction and disclosure by the US Government is
 subject to restrictions as set forth in subparagraphs (a)
 and (c) of the Commercial Computer Software - Restricted
 Rights clause in FAR 52.227-19.
  
 Gaussian, Inc.
 340 Quinnipiac St., Bldg. 40, Wallingford CT 06492
  
  
 ---------------------------------------------------------------
 Warning -- This program may not be used in any manner that
 competes with the business of Gaussian, Inc. or will provide
 assistance to any competitor of Gaussian, Inc.  The licensee
 of this program is prohibited from giving any competitor of
 Gaussian, Inc. access to this program.  By using this program,
 the user acknowledges that Gaussian, Inc. is engaged in the
 business of creating and licensing software in the field of
 computational chemistry and represents and warrants to the
 licensee that it is not a competitor of Gaussian, Inc. and that
 it will not use this program in any manner prohibited above.
 ---------------------------------------------------------------
  

 Cite this work as:
 Gaussian 16, Revision A.03,
 M. J. Frisch, G. W. Trucks, H. B. Schlegel, G. E. Scuseria, 
 M. A. Robb, J. R. Cheeseman, G. Scalmani, V. Barone, 
 G. A. Petersson, H. Nakatsuji, X. Li, M. Caricato, A. V. Marenich, 
 J. Bloino, B. G. Janesko, R. Gomperts, B. Mennucci, H. P. Hratchian, 
 J. V. Ortiz, A. F. Izmaylov, J. L. Sonnenberg, D. Williams-Young, 
 F. Ding, F. Lipparini, F. Egidi, J. Goings, B. Peng, A. Petrone, 
 T. Henderson, D. Ranasinghe, V. G. Zakrzewski, J. Gao, N. Rega, 
 G. Zheng, W. Liang, M. Hada, M. Ehara, K. Toyota, R. Fukuda, 
 J. Hasegawa, M. Ishida, T. Nakajima, Y. Honda, O. Kitao, H. Nakai, 
 T. Vreven, K. Throssell, J. A. Montgomery, Jr., J. E. Peralta, 
 F. Ogliaro, M. J. Bearpark, J. J. Heyd, E. N. Brothers, K. N. Kudin, 
 V. N. Staroverov, T. A. Keith, R. Kobayashi, J. Normand, 
 K. Raghavachari, A. P. Rendell, J. C. Burant, S. S. Iyengar, 
 J. Tomasi, M. Cossi, J. M. Millam, M. Klene, C. Adamo, R. Cammi, 
 J. W. Ochterski, R. L. Martin, K. Morokuma, O. Farkas, 
 J. B. Foresman, and D. J. Fox, Gaussian, Inc., Wallingford CT, 2016.
 
 ******************************************
 Gaussian 16:  ES64L-G16RevA.03 25-Dec-2016
                26-Aug-2022 
 ******************************************
 %NProcShared=4
 Will use up to    4 processors via shared memory.
 %Mem=4GB
 %Chk=H2O_H2O_876.chk
 ------------------
 #p CCSD(T)/cc-pVTZ
 ------------------
 1/38=1,172=1/1;
 2/12=2,17=6,18=5,40=1/2;
 3/5=16,6=1,11=9,25=1,30=1/1,2,3;
 4//1;
 5/5=2,38=5/2;
 8/6=4,9=120000,10=1/1,4;
 9/5=7,14=2/13;
 6/7=2,8=2,9=2,10=2/1;
 99/5=1,9=1/99;
 Leave Link    1 at Fri Aug 26 20:46:29 2022, MaxMem=   536870912 cpu:               0.4 elap:               0.1
 (Enter /usr/site/hpc/x86_64/glibc-2.17/broadwell/gaussian/g16_a.03/pgi-16.5/g16/l101.exe)
 -----------
 H2O_H2O_876
 -----------
 Symbolic Z-matrix:
 Charge =  0 Multiplicity = 1
 O                     0.       -0.00983   0. 
 H                    -0.79957  -0.58097   0. 
 H                     0.79957  -0.58097   0. 
 O                    -0.00064   2.52806   0. 
 H                     0.75986   3.15026   0. 
 H                    -0.83586   3.04567   0. 
 
 ITRead=  0  0  0  0  0  0
 MicOpt= -1 -1 -1 -1 -1 -1
 NAtoms=      6 NQM=        6 NQMF=       0 NMMI=      0 NMMIF=      0
                NMic=       0 NMicF=      0.
                    Isotopes and Nuclear Properties:
 (Nuclear quadrupole moments (NQMom) in fm**2, nuclear magnetic moments (NMagM)
  in nuclear magnetons)

  Atom         1           2           3           4           5           6
 IAtWgt=          16           1           1          16           1           1
 AtmWgt=  15.9949146   1.0078250   1.0078250  15.9949146   1.0078250   1.0078250
 NucSpn=           0           1           1           0           1           1
 AtZEff=  -0.0000000  -0.0000000  -0.0000000  -0.0000000  -0.0000000  -0.0000000
 NQMom=    0.0000000   0.0000000   0.0000000   0.0000000   0.0000000   0.0000000
 NMagM=    0.0000000   2.7928460   2.7928460   0.0000000   2.7928460   2.7928460
 AtZNuc=   8.0000000   1.0000000   1.0000000   8.0000000   1.0000000   1.0000000
 Leave Link  101 at Fri Aug 26 20:46:29 2022, MaxMem=   536870912 cpu:               0.4 elap:               0.1
 (Enter /usr/site/hpc/x86_64/glibc-2.17/broadwell/gaussian/g16_a.03/pgi-16.5/g16/l202.exe)
                          Input orientation:                          
 ---------------------------------------------------------------------
 Center     Atomic      Atomic             Coordinates (Angstroms)
 Number     Number       Type             X           Y           Z
 ---------------------------------------------------------------------
      1          8           0        0.000000   -0.009833    0.000000
      2          1           0       -0.799571   -0.580965    0.000000
      3          1           0        0.799571   -0.580965    0.000000
      4          8           0       -0.000643    2.528057    0.000000
      5          1           0        0.759863    3.150261    0.000000
      6          1           0       -0.835856    3.045672    0.000000
 ---------------------------------------------------------------------
                    Distance matrix (angstroms):
                    1          2          3          4          5
     1  O    0.000000
     2  H    0.982601   0.000000
     3  H    0.982601   1.599142   0.000000
     4  O    2.537890   3.210032   3.210352   0.000000
     5  H    3.250167   4.043993   3.731437   0.982602   0.000000
     6  H    3.167770   3.626819   3.978331   0.982602   1.599143
                    6
     6  H    0.000000
 Stoichiometry    H4O2
 Framework group  CS[SG(H4O2)]
 Deg. of freedom     9
 Full point group                 CS      NOp   2
 Largest Abelian subgroup         CS      NOp   2
 Largest concise Abelian subgroup C1      NOp   1
                         Standard orientation:                         
 ---------------------------------------------------------------------
 Center     Atomic      Atomic             Coordinates (Angstroms)
 Number     Number       Type             X           Y           Z
 ---------------------------------------------------------------------
      1          8           0        0.003735   -1.268824    0.000000
      2          1           0       -0.795980   -1.839753    0.000000
      3          1           0        0.803162   -1.840158    0.000000
      4          8           0        0.003735    1.269066    0.000000
      5          1           0        0.764399    1.891078    0.000000
      6          1           0       -0.831346    1.786893    0.000000
 ---------------------------------------------------------------------
 Rotational constants (GHZ):         196.3106323           7.7563576           7.4615471
 Leave Link  202 at Fri Aug 26 20:46:29 2022, MaxMem=   536870912 cpu:               0.1 elap:               0.0
 (Enter /usr/site/hpc/x86_64/glibc-2.17/broadwell/gaussian/g16_a.03/pgi-16.5/g16/l301.exe)
 Standard basis: CC-pVTZ (5D, 7F)
 Ernie: Thresh=  0.10000D-02 Tol=  0.10000D-05 Strict=F.
 Ernie:  6 primitive shells out of 84 were deleted.
 There are    92 symmetry adapted cartesian basis functions of A'  symmetry.
 There are    38 symmetry adapted cartesian basis functions of A"  symmetry.
 There are    80 symmetry adapted basis functions of A'  symmetry.
 There are    36 symmetry adapted basis functions of A"  symmetry.
   116 basis functions,   172 primitive gaussians,   130 cartesian basis functions
    10 alpha electrons       10 beta electrons
       nuclear repulsion energy        37.0680196286 Hartrees.
 IExCor=    0 DFT=F Ex=HF Corr=None ExCW=0 ScaHFX=  1.000000
 ScaDFX=  1.000000  1.000000  1.000000  1.000000 ScalE2=  1.000000  1.000000
 IRadAn=      5 IRanWt=     -1 IRanGd=            0 ICorTp=0 IEmpDi=  4
 NAtoms=    6 NActive=    6 NUniq=    6 SFac= 1.00D+00 NAtFMM=   60 NAOKFM=F Big=F
 Integral buffers will be    131072 words long.
 Raffenetti 1 integral format.
 Two-electron integral symmetry is turned on.
 Leave Link  301 at Fri Aug 26 20:46:30 2022, MaxMem=   536870912 cpu:               0.2 elap:               0.1
 (Enter /usr/site/hpc/x86_64/glibc-2.17/broadwell/gaussian/g16_a.03/pgi-16.5/g16/l302.exe)
 NPDir=0 NMtPBC=     1 NCelOv=     1 NCel=       1 NClECP=     1 NCelD=      1
         NCelK=      1 NCelE2=     1 NClLst=     1 CellRange=     0.0.
 One-electron integrals computed using PRISM.
 One-electron integral symmetry used in STVInt
 NBasis=   116 RedAO= T EigKep=  2.22D-03  NBF=    80    36
 NBsUse=   116 1.00D-06 EigRej= -1.00D+00 NBFU=    80    36
 Leave Link  302 at Fri Aug 26 20:46:30 2022, MaxMem=   536870912 cpu:               0.4 elap:               0.1
 (Enter /usr/site/hpc/x86_64/glibc-2.17/broadwell/gaussian/g16_a.03/pgi-16.5/g16/l303.exe)
 DipDrv:  MaxL=1.
 Leave Link  303 at Fri Aug 26 20:46:30 2022, MaxMem=   536870912 cpu:               0.1 elap:               0.0
 (Enter /usr/site/hpc/x86_64/glibc-2.17/broadwell/gaussian/g16_a.03/pgi-16.5/g16/l401.exe)
 ExpMin= 1.03D-01 ExpMax= 1.53D+04 ExpMxC= 5.22D+02 IAcc=3 IRadAn=         5 AccDes= 0.00D+00
 Harris functional with IExCor=  205 and IRadAn=       5 diagonalized for initial guess.
 HarFok:  IExCor=  205 AccDes= 0.00D+00 IRadAn=         5 IDoV= 1 UseB2=F ITyADJ=14
 ICtDFT=  3500011 ScaDFX=  1.000000  1.000000  1.000000  1.000000
 FoFCou: FMM=F IPFlag=           0 FMFlag=      100000 FMFlg1=           0
         NFxFlg=           0 DoJE=T BraDBF=F KetDBF=T FulRan=T
         wScrn=  0.000000 ICntrl=       500 IOpCl=  0 I1Cent=   200000004 NGrid=           0
         NMat0=    1 NMatS0=      1 NMatT0=    0 NMatD0=    1 NMtDS0=    0 NMtDT0=    0
 Petite list used in FoFCou.
 Harris En= -152.298933398898    
 JPrj=0 DoOrth=F DoCkMO=F.
 Initial guess orbital symmetries:
       Occupied  (A') (A') (A') (A') (A') (A') (A') (A') (A") (A")
       Virtual   (A') (A') (A') (A') (A') (A') (A') (A') (A') (A")
                 (A') (A') (A") (A') (A") (A") (A') (A") (A') (A')
                 (A") (A') (A') (A') (A') (A') (A') (A') (A") (A")
                 (A") (A") (A') (A') (A') (A') (A') (A') (A') (A')
                 (A') (A') (A") (A") (A') (A") (A") (A') (A") (A")
                 (A') (A') (A') (A') (A') (A") (A') (A") (A') (A")
                 (A') (A') (A") (A') (A") (A") (A') (A') (A') (A")
                 (A') (A") (A') (A') (A') (A') (A') (A') (A') (A')
                 (A") (A") (A') (A') (A") (A") (A") (A") (A') (A")
                 (A') (A") (A') (A') (A') (A') (A") (A") (A') (A')
                 (A') (A') (A') (A') (A') (A')
 The electronic state of the initial guess is 1-A'.
 Leave Link  401 at Fri Aug 26 20:46:30 2022, MaxMem=   536870912 cpu:               1.0 elap:               0.3
 (Enter /usr/site/hpc/x86_64/glibc-2.17/broadwell/gaussian/g16_a.03/pgi-16.5/g16/l502.exe)
 Keep R1 ints in memory in symmetry-blocked form, NReq=34823457.
 FoFCou: FMM=F IPFlag=           0 FMFlag=           0 FMFlg1=           0
         NFxFlg=           0 DoJE=F BraDBF=F KetDBF=F FulRan=T
         wScrn=  0.000000 ICntrl=       600 IOpCl=  0 I1Cent=           0 NGrid=           0
         NMat0=    1 NMatS0=   6786 NMatT0=    0 NMatD0=    1 NMtDS0=    0 NMtDT0=    0
 Petite list used in FoFCou.
 Closed shell SCF:
 Using DIIS extrapolation, IDIIS=  1040.
 NGot=   536870912 LenX=   525040673 LenY=   525023332
 Requested convergence on RMS density matrix=1.00D-08 within 128 cycles.
 Requested convergence on MAX density matrix=1.00D-06.
 Requested convergence on             energy=1.00D-06.
 No special actions if energy rises.

 Cycle   1  Pass 1  IDiag  1:
 E= -151.902967731435    
 DIIS: error= 6.65D-02 at cycle   1 NSaved=   1.
 NSaved= 1 IEnMin= 1 EnMin= -151.902967731435     IErMin= 1 ErrMin= 6.65D-02
 ErrMax= 6.65D-02  0.00D+00 EMaxC= 1.00D-01 BMatC= 4.10D-01 BMatP= 4.10D-01
 IDIUse=3 WtCom= 3.35D-01 WtEn= 6.65D-01
 Coeff-Com:  0.100D+01
 Coeff-En:   0.100D+01
 Coeff:      0.100D+01
 Gap=     0.484 Goal=   None    Shift=    0.000
 GapD=    0.484 DampG=2.000 DampE=0.500 DampFc=1.0000 IDamp=-1.
 RMSDP=2.94D-03 MaxDP=7.53D-02              OVMax= 1.35D-01

 Cycle   2  Pass 1  IDiag  1:
 E= -152.018055746386     Delta-E=       -0.115088014951 Rises=F Damp=F
 DIIS: error= 4.22D-02 at cycle   2 NSaved=   2.
 NSaved= 2 IEnMin= 2 EnMin= -152.018055746386     IErMin= 2 ErrMin= 4.22D-02
 ErrMax= 4.22D-02  0.00D+00 EMaxC= 1.00D-01 BMatC= 1.22D-01 BMatP= 4.10D-01
 IDIUse=3 WtCom= 5.78D-01 WtEn= 4.22D-01
 Coeff-Com:  0.327D+00 0.673D+00
 Coeff-En:   0.181D+00 0.819D+00
 Coeff:      0.265D+00 0.735D+00
 Gap=     0.640 Goal=   None    Shift=    0.000
 RMSDP=1.59D-03 MaxDP=4.53D-02 DE=-1.15D-01 OVMax= 6.44D-02

 Cycle   3  Pass 1  IDiag  1:
 E= -152.089255121671     Delta-E=       -0.071199375285 Rises=F Damp=F
 DIIS: error= 9.12D-03 at cycle   3 NSaved=   3.
 NSaved= 3 IEnMin= 3 EnMin= -152.089255121671     IErMin= 3 ErrMin= 9.12D-03
 ErrMax= 9.12D-03  0.00D+00 EMaxC= 1.00D-01 BMatC= 6.29D-03 BMatP= 1.22D-01
 IDIUse=3 WtCom= 9.09D-01 WtEn= 9.12D-02
 Coeff-Com: -0.321D-01 0.152D+00 0.880D+00
 Coeff-En:   0.000D+00 0.000D+00 0.100D+01
 Coeff:     -0.292D-01 0.138D+00 0.891D+00
 Gap=     0.611 Goal=   None    Shift=    0.000
 RMSDP=2.81D-04 MaxDP=6.54D-03 DE=-7.12D-02 OVMax= 1.43D-02

 Cycle   4  Pass 1  IDiag  1:
 E= -152.093251466973     Delta-E=       -0.003996345302 Rises=F Damp=F
 DIIS: error= 8.96D-04 at cycle   4 NSaved=   4.
 NSaved= 4 IEnMin= 4 EnMin= -152.093251466973     IErMin= 4 ErrMin= 8.96D-04
 ErrMax= 8.96D-04  0.00D+00 EMaxC= 1.00D-01 BMatC= 4.31D-05 BMatP= 6.29D-03
 IDIUse=3 WtCom= 9.91D-01 WtEn= 8.96D-03
 Coeff-Com:  0.678D-02-0.599D-01-0.236D+00 0.129D+01
 Coeff-En:   0.000D+00 0.000D+00 0.000D+00 0.100D+01
 Coeff:      0.672D-02-0.594D-01-0.233D+00 0.129D+01
 Gap=     0.614 Goal=   None    Shift=    0.000
 RMSDP=5.49D-05 MaxDP=1.05D-03 DE=-4.00D-03 OVMax= 2.82D-03

 Cycle   5  Pass 1  IDiag  1:
 E= -152.093309710461     Delta-E=       -0.000058243488 Rises=F Damp=F
 DIIS: error= 2.04D-04 at cycle   5 NSaved=   5.
 NSaved= 5 IEnMin= 5 EnMin= -152.093309710461     IErMin= 5 ErrMin= 2.04D-04
 ErrMax= 2.04D-04  0.00D+00 EMaxC= 1.00D-01 BMatC= 1.56D-06 BMatP= 4.31D-05
 IDIUse=3 WtCom= 9.98D-01 WtEn= 2.04D-03
 Coeff-Com:  0.854D-03-0.190D-02-0.118D-01-0.158D+00 0.117D+01
 Coeff-En:   0.000D+00 0.000D+00 0.000D+00 0.000D+00 0.100D+01
 Coeff:      0.852D-03-0.190D-02-0.117D-01-0.158D+00 0.117D+01
 Gap=     0.615 Goal=   None    Shift=    0.000
 RMSDP=1.47D-05 MaxDP=2.80D-04 DE=-5.82D-05 OVMax= 6.80D-04

 Cycle   6  Pass 1  IDiag  1:
 E= -152.093312791936     Delta-E=       -0.000003081475 Rises=F Damp=F
 DIIS: error= 3.96D-05 at cycle   6 NSaved=   6.
 NSaved= 6 IEnMin= 6 EnMin= -152.093312791936     IErMin= 6 ErrMin= 3.96D-05
 ErrMax= 3.96D-05  0.00D+00 EMaxC= 1.00D-01 BMatC= 5.50D-08 BMatP= 1.56D-06
 IDIUse=1 WtCom= 1.00D+00 WtEn= 0.00D+00
 Coeff-Com: -0.358D-03 0.220D-02 0.954D-02-0.176D-01-0.254D+00 0.126D+01
 Coeff:     -0.358D-03 0.220D-02 0.954D-02-0.176D-01-0.254D+00 0.126D+01
 Gap=     0.615 Goal=   None    Shift=    0.000
 RMSDP=4.41D-06 MaxDP=1.09D-04 DE=-3.08D-06 OVMax= 2.03D-04

 Cycle   7  Pass 1  IDiag  1:
 E= -152.093312940649     Delta-E=       -0.000000148713 Rises=F Damp=F
 DIIS: error= 7.33D-06 at cycle   7 NSaved=   7.
 NSaved= 7 IEnMin= 7 EnMin= -152.093312940649     IErMin= 7 ErrMin= 7.33D-06
 ErrMax= 7.33D-06  0.00D+00 EMaxC= 1.00D-01 BMatC= 2.90D-09 BMatP= 5.50D-08
 IDIUse=1 WtCom= 1.00D+00 WtEn= 0.00D+00
 Coeff-Com:  0.320D-04-0.452D-03-0.184D-02 0.175D-01-0.242D-01-0.222D+00
 Coeff-Com:  0.123D+01
 Coeff:      0.320D-04-0.452D-03-0.184D-02 0.175D-01-0.242D-01-0.222D+00
 Coeff:      0.123D+01
 Gap=     0.615 Goal=   None    Shift=    0.000
 RMSDP=7.31D-07 MaxDP=1.49D-05 DE=-1.49D-07 OVMax= 4.48D-05

 Cycle   8  Pass 1  IDiag  1:
 E= -152.093312946896     Delta-E=       -0.000000006247 Rises=F Damp=F
 DIIS: error= 1.96D-06 at cycle   8 NSaved=   8.
 NSaved= 8 IEnMin= 8 EnMin= -152.093312946896     IErMin= 8 ErrMin= 1.96D-06
 ErrMax= 1.96D-06  0.00D+00 EMaxC= 1.00D-01 BMatC= 1.48D-10 BMatP= 2.90D-09
 IDIUse=1 WtCom= 1.00D+00 WtEn= 0.00D+00
 Coeff-Com:  0.704D-05 0.422D-04 0.199D-03-0.554D-02 0.208D-01 0.206D-01
 Coeff-Com: -0.425D+00 0.139D+01
 Coeff:      0.704D-05 0.422D-04 0.199D-03-0.554D-02 0.208D-01 0.206D-01
 Coeff:     -0.425D+00 0.139D+01
 Gap=     0.615 Goal=   None    Shift=    0.000
 RMSDP=1.34D-07 MaxDP=2.92D-06 DE=-6.25D-09 OVMax= 8.58D-06

 Cycle   9  Pass 1  IDiag  1:
 E= -152.093312947242     Delta-E=       -0.000000000346 Rises=F Damp=F
 DIIS: error= 2.91D-07 at cycle   9 NSaved=   9.
 NSaved= 9 IEnMin= 9 EnMin= -152.093312947242     IErMin= 9 ErrMin= 2.91D-07
 ErrMax= 2.91D-07  0.00D+00 EMaxC= 1.00D-01 BMatC= 4.12D-12 BMatP= 1.48D-10
 IDIUse=1 WtCom= 1.00D+00 WtEn= 0.00D+00
 Coeff-Com: -0.158D-05 0.293D-05 0.469D-06 0.482D-03-0.172D-02-0.322D-02
 Coeff-Com:  0.578D-01-0.285D+00 0.123D+01
 Coeff:     -0.158D-05 0.293D-05 0.469D-06 0.482D-03-0.172D-02-0.322D-02
 Coeff:      0.578D-01-0.285D+00 0.123D+01
 Gap=     0.615 Goal=   None    Shift=    0.000
 RMSDP=2.09D-08 MaxDP=4.08D-07 DE=-3.46D-10 OVMax= 1.28D-06

 Cycle  10  Pass 1  IDiag  1:
 E= -152.093312947251     Delta-E=       -0.000000000009 Rises=F Damp=F
 DIIS: error= 8.38D-08 at cycle  10 NSaved=  10.
 NSaved=10 IEnMin=10 EnMin= -152.093312947251     IErMin=10 ErrMin= 8.38D-08
 ErrMax= 8.38D-08  0.00D+00 EMaxC= 1.00D-01 BMatC= 6.14D-13 BMatP= 4.12D-12
 IDIUse=1 WtCom= 1.00D+00 WtEn= 0.00D+00
 Coeff-Com: -0.861D-06-0.238D-05-0.153D-04 0.509D-03-0.181D-02-0.278D-02
 Coeff-Com:  0.468D-01-0.181D+00 0.353D+00 0.785D+00
 Coeff:     -0.861D-06-0.238D-05-0.153D-04 0.509D-03-0.181D-02-0.278D-02
 Coeff:      0.468D-01-0.181D+00 0.353D+00 0.785D+00
 Gap=     0.615 Goal=   None    Shift=    0.000
 RMSDP=6.26D-09 MaxDP=2.11D-07 DE=-9.09D-12 OVMax= 3.08D-07

 SCF Done:  E(RHF) =  -152.093312947     A.U. after   10 cycles
            NFock= 10  Conv=0.63D-08     -V/T= 2.0015
 KE= 1.518643559674D+02 PE=-4.360674745857D+02 EE= 9.504178604256D+01
 Leave Link  502 at Fri Aug 26 20:46:31 2022, MaxMem=   536870912 cpu:               5.4 elap:               1.5
 (Enter /usr/site/hpc/x86_64/glibc-2.17/broadwell/gaussian/g16_a.03/pgi-16.5/g16/l801.exe)
 Windowed orbitals will be sorted by symmetry type.
 ExpMin= 1.03D-01 ExpMax= 1.53D+04 ExpMxC= 5.22D+02 IAcc=3 IRadAn=         5 AccDes= 0.00D+00
 HarFok:  IExCor=  205 AccDes= 0.00D+00 IRadAn=         5 IDoV=-2 UseB2=F ITyADJ=14
 ICtDFT= 12500011 ScaDFX=  1.000000  1.000000  1.000000  1.000000
 Largest valence mixing into a core orbital is  1.12D-04
 Largest core mixing into a valence orbital is  1.85D-05
 Range of M.O.s used for correlation:     3   116
 NBasis=   116 NAE=    10 NBE=    10 NFC=     2 NFV=     0
 NROrb=    114 NOA=     8 NOB=     8 NVA=   106 NVB=   106
 Leave Link  801 at Fri Aug 26 20:46:32 2022, MaxMem=   536870912 cpu:               0.4 elap:               0.1
 (Enter /usr/site/hpc/x86_64/glibc-2.17/broadwell/gaussian/g16_a.03/pgi-16.5/g16/l804.exe)
 Closed-shell transformation, MDV=   536870912 ITran=4 ISComp=2.
 Unit  1 TFree=        834515 TCopy=        406125.
 Semi-Direct transformation.
 ModeAB=           2 MOrb=             8 LenV=     536362518
 LASXX=      2873146 LTotXX=     2873146 LenRXX=     2873146
 LTotAB=     2958132 MaxLAS=     7765680 LenRXY=     7765680
 NonZer=     7929840 LenScr=    12058624 LnRSAI=           0
 LnScr1=           0 LExtra=           0 Total=     22697450
 MaxDsk=          -1 SrtSym=           F ITran=            4
 DoSDTr:  NPSUse=  4
 JobTyp=0 Pass  1:  I=   1 to   8.
 (rs|ai) integrals will be sorted in core.
 Complete sort for first half transformation.
 First half transformation complete.
 Complete sort for second half transformation.
 Second half transformation complete.
 Spin components of T(2) and E(2):
     alpha-alpha T2 =       0.1582995987D-01 E2=     -0.6441489137D-01
     alpha-beta  T2 =       0.9285246925D-01 E2=     -0.4001618848D+00
     beta-beta   T2 =       0.1582995987D-01 E2=     -0.6441489137D-01
 ANorm=    0.1060430285D+01
 E2 =    -0.5289916676D+00 EUMP2 =    -0.15262230461481D+03
 Leave Link  804 at Fri Aug 26 20:46:33 2022, MaxMem=   536870912 cpu:               5.5 elap:               1.4
 (Enter /usr/site/hpc/x86_64/glibc-2.17/broadwell/gaussian/g16_a.03/pgi-16.5/g16/l913.exe)
 CIDS:  MDV=   536870912.
 Frozen-core window:  NFC=   2 NFV=   0.
 IFCWin=0 IBDFC=1 NFBD=     0     0 NFCmp=     0     0 NFFFC=     0     0
 Using DD3R+UMP44R for 1st iteration.
 Using DD4RQ for 2nd and later iterations.
 Keep R2 and R3 ints in memory in symmetry-blocked form, NReq=35357534.
 FoFCou: FMM=F IPFlag=           0 FMFlag=           0 FMFlg1=           0
         NFxFlg=           0 DoJE=F BraDBF=F KetDBF=F FulRan=T
         wScrn=  0.000000 ICntrl=       600 IOpCl=  0 I1Cent=           0 NGrid=           0
         NMat0=    1 NMatS0=   6786 NMatT0=    0 NMatD0=    1 NMtDS0=    0 NMtDT0=    0
 Petite list used in FoFCou.
 CIDS: In Core Option IDoMem=           1.
 CCSD(T)
 =======
 Iterations=  50 Convergence= 0.100D-06
 Produce multiple copies of IABC intergrals
 Iteration Nr.   1
 **********************
 DD1Dir will call FoFMem   1 times, MxPair=        72
 NAB=    36 NAA=     0 NBB=     0.
 MP4(R+Q)=  0.78333535D-02
 Maximum subspace dimension=  5
 A-vector RMS=  1.8706394D-03 Max=  9.5176153D-03 conv= 1.00D-05.
 RLE energy=       -0.5282962975
 E3=       -0.72086535D-02        EUMP3=      -0.15262951327D+03
 E4(DQ)=   -0.14209928D-02        UMP4(DQ)=   -0.15263093426D+03
 E4(SDQ)=  -0.46547995D-02        UMP4(SDQ)=  -0.15263416807D+03
 VARIATIONAL ENERGIES WITH THE FIRST-ORDER WAVEFUNCTION:
 DE(Corr)= -0.52829539     E(Corr)=     -152.62160834    
 NORM(A)=   0.10606670D+01
 Iteration Nr.   2
 **********************
 DD1Dir will call FoFMem   1 times, MxPair=        72
 NAB=    36 NAA=     0 NBB=     0.
 A-vector RMS=  2.1244249D-04 Max=  1.4632079D-03 conv= 1.00D-05.
 RLE energy=       -0.5395996089
 DE(Corr)= -0.53847987     E(CORR)=     -152.63179281     Delta=-1.02D-02
 NORM(A)=   0.10645467D+01
 Iteration Nr.   3
 **********************
 DD1Dir will call FoFMem   1 times, MxPair=        72
 NAB=    36 NAA=     0 NBB=     0.
 A-vector RMS=  1.8633535D-04 Max=  1.9994139D-03 conv= 1.00D-05.
 RLE energy=       -0.5401146109
 DE(Corr)= -0.53949784     E(CORR)=     -152.63281078     Delta=-1.02D-03
 NORM(A)=   0.10652208D+01
 Iteration Nr.   4
 **********************
 DD1Dir will call FoFMem   1 times, MxPair=        72
 NAB=    36 NAA=     0 NBB=     0.
 A-vector RMS=  3.8932976D-05 Max=  2.7649969D-04 conv= 1.00D-05.
 RLE energy=       -0.5401944224
 DE(Corr)= -0.54015801     E(CORR)=     -152.63347096     Delta=-6.60D-04
 NORM(A)=   0.10653499D+01
 Iteration Nr.   5
 **********************
 DD1Dir will call FoFMem   1 times, MxPair=        72
 NAB=    36 NAA=     0 NBB=     0.
 A-vector RMS=  2.8581953D-05 Max=  3.6871862D-04 conv= 1.00D-05.
 RLE energy=       -0.5402110169
 DE(Corr)= -0.54020140     E(CORR)=     -152.63351434     Delta=-4.34D-05
 NORM(A)=   0.10653710D+01
 Iteration Nr.   6
 **********************
 DD1Dir will call FoFMem   1 times, MxPair=        72
 NAB=    36 NAA=     0 NBB=     0.
 A-vector RMS=  8.4649984D-06 Max=  8.9798855D-05 conv= 1.00D-05.
 RLE energy=       -0.5402004291
 DE(Corr)= -0.54020595     E(CORR)=     -152.63351890     Delta=-4.56D-06
 NORM(A)=   0.10653723D+01
 Iteration Nr.   7
 **********************
 DD1Dir will call FoFMem   1 times, MxPair=        72
 NAB=    36 NAA=     0 NBB=     0.
 A-vector RMS=  3.5694611D-06 Max=  4.3006767D-05 conv= 1.00D-05.
 RLE energy=       -0.5402046518
 DE(Corr)= -0.54020618     E(CORR)=     -152.63351913     Delta=-2.26D-07
 NORM(A)=   0.10653750D+01
 Iteration Nr.   8
 **********************
 DD1Dir will call FoFMem   1 times, MxPair=        72
 NAB=    36 NAA=     0 NBB=     0.
 A-vector RMS=  1.3224480D-06 Max=  1.3476014D-05 conv= 1.00D-05.
 RLE energy=       -0.5402051841
 DE(Corr)= -0.54020550     E(CORR)=     -152.63351845     Delta= 6.78D-07
 NORM(A)=   0.10653757D+01
 Iteration Nr.   9
 **********************
 DD1Dir will call FoFMem   1 times, MxPair=        72
 NAB=    36 NAA=     0 NBB=     0.
 A-vector RMS=  2.3045953D-07 Max=  2.5413451D-06 conv= 1.00D-05.
 RLE energy=       -0.5402055319
 DE(Corr)= -0.54020561     E(CORR)=     -152.63351855     Delta=-1.04D-07
 NORM(A)=   0.10653763D+01
 Iteration Nr.  10
 **********************
 DD1Dir will call FoFMem   1 times, MxPair=        72
 NAB=    36 NAA=     0 NBB=     0.
 A-vector RMS=  1.0133749D-07 Max=  1.2666963D-06 conv= 1.00D-05.
 RLE energy=       -0.5402058161
 DE(Corr)= -0.54020579     E(CORR)=     -152.63351874     Delta=-1.86D-07
 NORM(A)=   0.10653765D+01
 Iteration Nr.  11
 **********************
 DD1Dir will call FoFMem   1 times, MxPair=        72
 NAB=    36 NAA=     0 NBB=     0.
 A-vector RMS=  3.4928937D-08 Max=  4.1452655D-07 conv= 1.00D-05.
 RLE energy=       -0.5402059006
 DE(Corr)= -0.54020587     E(CORR)=     -152.63351882     Delta=-8.17D-08
 NORM(A)=   0.10653766D+01
 CI/CC converged in   11 iterations to DelEn=-8.17D-08 Conv= 1.00D-07 ErrA1= 3.49D-08 Conv= 1.00D-05
 Wavefunction amplitudes converged. E(Corr)=     -152.63351882    
 Largest amplitude= 2.46D-02
 IPart=  4 IA=    7   11.05% done.
 IPart=  3 IA=   13   21.46% done.
 IPart=  4 IA=   19   31.21% done.
 IPart=  3 IA=   25   40.32% done.
 IPart=  1 IA=   32   50.13% done.
 IPart=  2 IA=   40   60.27% done.
 IPart=  2 IA=   49   70.30% done.
 IPart=  4 IA=   60   80.58% done.
 IPart=  2 IA=   74   90.51% done.
 Time for triples=       76.74 seconds.
 T4(CCSD)= -0.16539442D-01
 T5(CCSD)=  0.44396303D-03
 CCSD(T)= -0.15264961430D+03
 Discarding MO integrals.
 Leave Link  913 at Fri Aug 26 20:47:03 2022, MaxMem=   536870912 cpu:             119.2 elap:              30.2
 (Enter /usr/site/hpc/x86_64/glibc-2.17/broadwell/gaussian/g16_a.03/pgi-16.5/g16/l601.exe)
 Copying SCF densities to generalized density rwf, IOpCl= 0 IROHF=0.

 **********************************************************************

            Population analysis using the SCF density.

 **********************************************************************

 Orbital symmetries:
       Occupied  (A') (A') (A') (A') (A') (A') (A') (A') (A") (A")
       Virtual   (A') (A') (A') (A') (A') (A') (A') (A') (A') (A")
                 (A') (A') (A') (A") (A") (A") (A') (A") (A') (A")
                 (A') (A') (A') (A') (A') (A') (A') (A') (A") (A")
                 (A") (A") (A') (A') (A') (A') (A') (A') (A') (A')
                 (A') (A') (A") (A") (A') (A') (A") (A") (A') (A')
                 (A") (A") (A') (A') (A') (A") (A") (A") (A') (A')
                 (A") (A') (A') (A') (A") (A") (A') (A') (A') (A')
                 (A") (A") (A') (A') (A') (A') (A') (A') (A') (A')
                 (A") (A") (A') (A') (A") (A") (A") (A") (A') (A")
                 (A") (A') (A') (A') (A') (A") (A") (A') (A') (A')
                 (A') (A') (A') (A') (A') (A')
 The electronic state is 1-A'.
 Alpha  occ. eigenvalues --  -20.53130 -20.53123  -1.31010  -1.30209  -0.68309
 Alpha  occ. eigenvalues --   -0.67770  -0.56832  -0.50312  -0.48298  -0.46984
 Alpha virt. eigenvalues --    0.14501   0.17445   0.20575   0.22289   0.50419
 Alpha virt. eigenvalues --    0.58773   0.58886   0.62941   0.73228   0.76718
 Alpha virt. eigenvalues --    0.76914   0.79113   0.83040   0.83924   0.86479
 Alpha virt. eigenvalues --    0.86543   0.91134   0.94243   1.06443   1.10175
 Alpha virt. eigenvalues --    1.13829   1.16415   1.32195   1.51048   1.52189
 Alpha virt. eigenvalues --    1.53109   1.54704   1.55746   2.01966   2.04080
 Alpha virt. eigenvalues --    2.08648   2.09223   2.10211   2.17225   2.17443
 Alpha virt. eigenvalues --    2.31805   2.33473   2.36339   2.62966   2.64301
 Alpha virt. eigenvalues --    2.95129   2.98674   3.41347   3.41381   3.50957
 Alpha virt. eigenvalues --    3.53646   3.55044   3.55054   3.61216   3.62591
 Alpha virt. eigenvalues --    3.80450   3.81243   3.88454   3.89327   3.90923
 Alpha virt. eigenvalues --    3.95463   3.95544   4.01134   4.06040   4.07696
 Alpha virt. eigenvalues --    4.11678   4.16469   4.18055   4.19105   4.31824
 Alpha virt. eigenvalues --    4.32504   4.42523   4.46744   4.49032   4.50595
 Alpha virt. eigenvalues --    4.67061   4.71471   4.83054   4.94044   5.06631
 Alpha virt. eigenvalues --    5.06894   5.20247   5.41354   5.57473   5.61701
 Alpha virt. eigenvalues --    6.00217   6.00454   6.42437   6.42856   6.88347
 Alpha virt. eigenvalues --    6.88773   6.91813   6.91932   6.95956   7.01477
 Alpha virt. eigenvalues --    7.01639   7.03522   7.10004   7.12693   7.14779
 Alpha virt. eigenvalues --    7.20329   7.21040   7.22313   7.49992   7.50983
 Alpha virt. eigenvalues --    7.71969   7.75458   8.15892   8.27256  12.51652
 Alpha virt. eigenvalues --   12.67829
          Condensed to atoms (all electrons):
               1          2          3          4          5          6
     1  O    7.832231   0.321911   0.324409  -0.024177   0.002569   0.003325
     2  H    0.321911   0.475212  -0.028513   0.002797  -0.000242  -0.000406
     3  H    0.324409  -0.028513   0.470698   0.003059  -0.000340  -0.000295
     4  O   -0.024177   0.002797   0.003059   7.832121   0.321332   0.324805
     5  H    0.002569  -0.000242  -0.000340   0.321332   0.476172  -0.028481
     6  H    0.003325  -0.000406  -0.000295   0.324805  -0.028481   0.470059
 Mulliken charges:
               1
     1  O   -0.460269
     2  H    0.229240
     3  H    0.230982
     4  O   -0.459937
     5  H    0.228990
     6  H    0.230994
 Sum of Mulliken charges =   0.00000
 Mulliken charges with hydrogens summed into heavy atoms:
               1
     1  O   -0.000047
     4  O    0.000047
 Electronic spatial extent (au):  <R**2>=            168.3326
 Charge=              0.0000 electrons
 Dipole moment (field-independent basis, Debye):
    X=             -0.1176    Y=             -0.0047    Z=              0.0000  Tot=              0.1177
 Quadrupole moment (field-independent basis, Debye-Ang):
   XX=             -7.9827   YY=             -2.6553   ZZ=            -14.7231
   XY=             -0.0551   XZ=              0.0000   YZ=              0.0000
 Traceless Quadrupole moment (field-independent basis, Debye-Ang):
   XX=              0.4710   YY=              5.7984   ZZ=             -6.2694
   XY=             -0.0551   XZ=              0.0000   YZ=              0.0000
 Octapole moment (field-independent basis, Debye-Ang**2):
  XXX=             -0.2635  YYY=              0.0223  ZZZ=              0.0000  XYY=              0.2975
  XXY=             -0.0301  XXZ=              0.0000  XZZ=             -0.0126  YZZ=             -0.0007
  YYZ=              0.0000  XYZ=              0.0000
 Hexadecapole moment (field-independent basis, Debye-Ang**3):
 XXXX=            -11.7667 YYYY=           -108.4911 ZZZZ=            -11.3764 XXXY=             -0.3395
 XXXZ=              0.0000 YYYX=              1.1230 YYYZ=              0.0000 ZZZX=              0.0000
 ZZZY=              0.0000 XXYY=            -11.3738 XXZZ=             -4.6437 YYZZ=            -31.2952
 XXYZ=              0.0000 YYXZ=              0.0000 ZZXY=              0.0347
 N-N= 3.706801962855D+01 E-N=-4.360674739939D+02  KE= 1.518643559674D+02
 Symmetry A'   KE= 1.428392235314D+02
 Symmetry A"   KE= 9.025132435933D+00
 Leave Link  601 at Fri Aug 26 20:47:03 2022, MaxMem=   536870912 cpu:               0.2 elap:               0.1
 (Enter /usr/site/hpc/x86_64/glibc-2.17/broadwell/gaussian/g16_a.03/pgi-16.5/g16/l9999.exe)
 1\1\GINC-N050\SP\RCCSD(T)-FC\CC-pVTZ\H4O2\C7441284\26-Aug-2022\0\\#p C
 CSD(T)/cc-pVTZ\\H2O_H2O_876\\0,1\O,0,0.,-0.009833,0.\H,0,-0.799571,-0.
 580965,0.\H,0,0.799571,-0.580965,0.\O,0,-0.000643,2.528057,0.\H,0,0.75
 9863,3.150261,0.\H,0,-0.835856,3.045672,0.\\Version=ES64L-G16RevA.03\S
 tate=1-A'\HF=-152.0933129\MP2=-152.6223046\MP3=-152.6295133\MP4D=-152.
 6387676\MP4DQ=-152.6309343\MP4SDQ=-152.6341681\CCSD=-152.6335188\CCSD(
 T)=-152.6496143\RMSD=6.257e-09\PG=CS [SG(H4O2)]\\@


 ON A TOMBSTONE, "HERE LIES LESTER MOORE,
 FOUR SLUGS FROM A 44, NO LES, NO MORE".
 Job cpu time:       0 days  0 hours  2 minutes 13.5 seconds.
 Elapsed time:       0 days  0 hours  0 minutes 34.2 seconds.
 File lengths (MBytes):  RWF=    572 Int=      0 D2E=      0 Chk=      8 Scr=      8
 Normal termination of Gaussian 16 at Fri Aug 26 20:47:03 2022.
