 Entering Gaussian System, Link 0=g16
 Input=H2O_H2O_1237.com
 Output=H2O_H2O_1237.log
 Initial command:
 /usr/site/hpc/x86_64/glibc-2.17/broadwell/gaussian/g16_a.03/pgi-16.5/g16/l1.exe "/gpfs/gpfs1/scratch/c7441284/ForceFieldModel/FittingData/Gau-3561122.inp" -scrdir="/gpfs/gpfs1/scratch/c7441284/ForceFieldModel/FittingData/"
 Entering Link 1 = /usr/site/hpc/x86_64/glibc-2.17/broadwell/gaussian/g16_a.03/pgi-16.5/g16/l1.exe PID=   3561123.
  
 Copyright (c) 1988,1990,1992,1993,1995,1998,2003,2009,2016,
            Gaussian, Inc.  All Rights Reserved.
  
 This is part of the Gaussian(R) 16 program.  It is based on
 the Gaussian(R) 09 system (copyright 2009, Gaussian, Inc.),
 the Gaussian(R) 03 system (copyright 2003, Gaussian, Inc.),
 the Gaussian(R) 98 system (copyright 1998, Gaussian, Inc.),
 the Gaussian(R) 94 system (copyright 1995, Gaussian, Inc.),
 the Gaussian 92(TM) system (copyright 1992, Gaussian, Inc.),
 the Gaussian 90(TM) system (copyright 1990, Gaussian, Inc.),
 the Gaussian 88(TM) system (copyright 1988, Gaussian, Inc.),
 the Gaussian 86(TM) system (copyright 1986, Carnegie Mellon
 University), and the Gaussian 82(TM) system (copyright 1983,
 Carnegie Mellon University). Gaussian is a federally registered
 trademark of Gaussian, Inc.
  
 This software contains proprietary and confidential information,
 including trade secrets, belonging to Gaussian, Inc.
  
 This software is provided under written license and may be
 used, copied, transmitted, or stored only in accord with that
 written license.
  
 The following legend is applicable only to US Government
 contracts under FAR:
  
                    RESTRICTED RIGHTS LEGEND
  
 Use, reproduction and disclosure by the US Government is
 subject to restrictions as set forth in subparagraphs (a)
 and (c) of the Commercial Computer Software - Restricted
 Rights clause in FAR 52.227-19.
  
 Gaussian, Inc.
 340 Quinnipiac St., Bldg. 40, Wallingford CT 06492
  
  
 ---------------------------------------------------------------
 Warning -- This program may not be used in any manner that
 competes with the business of Gaussian, Inc. or will provide
 assistance to any competitor of Gaussian, Inc.  The licensee
 of this program is prohibited from giving any competitor of
 Gaussian, Inc. access to this program.  By using this program,
 the user acknowledges that Gaussian, Inc. is engaged in the
 business of creating and licensing software in the field of
 computational chemistry and represents and warrants to the
 licensee that it is not a competitor of Gaussian, Inc. and that
 it will not use this program in any manner prohibited above.
 ---------------------------------------------------------------
  

 Cite this work as:
 Gaussian 16, Revision A.03,
 M. J. Frisch, G. W. Trucks, H. B. Schlegel, G. E. Scuseria, 
 M. A. Robb, J. R. Cheeseman, G. Scalmani, V. Barone, 
 G. A. Petersson, H. Nakatsuji, X. Li, M. Caricato, A. V. Marenich, 
 J. Bloino, B. G. Janesko, R. Gomperts, B. Mennucci, H. P. Hratchian, 
 J. V. Ortiz, A. F. Izmaylov, J. L. Sonnenberg, D. Williams-Young, 
 F. Ding, F. Lipparini, F. Egidi, J. Goings, B. Peng, A. Petrone, 
 T. Henderson, D. Ranasinghe, V. G. Zakrzewski, J. Gao, N. Rega, 
 G. Zheng, W. Liang, M. Hada, M. Ehara, K. Toyota, R. Fukuda, 
 J. Hasegawa, M. Ishida, T. Nakajima, Y. Honda, O. Kitao, H. Nakai, 
 T. Vreven, K. Throssell, J. A. Montgomery, Jr., J. E. Peralta, 
 F. Ogliaro, M. J. Bearpark, J. J. Heyd, E. N. Brothers, K. N. Kudin, 
 V. N. Staroverov, T. A. Keith, R. Kobayashi, J. Normand, 
 K. Raghavachari, A. P. Rendell, J. C. Burant, S. S. Iyengar, 
 J. Tomasi, M. Cossi, J. M. Millam, M. Klene, C. Adamo, R. Cammi, 
 J. W. Ochterski, R. L. Martin, K. Morokuma, O. Farkas, 
 J. B. Foresman, and D. J. Fox, Gaussian, Inc., Wallingford CT, 2016.
 
 ******************************************
 Gaussian 16:  ES64L-G16RevA.03 25-Dec-2016
                27-Aug-2022 
 ******************************************
 %NProcShared=4
 Will use up to    4 processors via shared memory.
 %Mem=4GB
 %Chk=H2O_H2O_1237.chk
 ------------------
 #p CCSD(T)/cc-pVTZ
 ------------------
 1/38=1,172=1/1;
 2/12=2,17=6,18=5,40=1/2;
 3/5=16,6=1,11=9,25=1,30=1/1,2,3;
 4//1;
 5/5=2,38=5/2;
 8/6=4,9=120000,10=1/1,4;
 9/5=7,14=2/13;
 6/7=2,8=2,9=2,10=2/1;
 99/5=1,9=1/99;
 Leave Link    1 at Sat Aug 27 03:14:33 2022, MaxMem=   536870912 cpu:               0.3 elap:               0.1
 (Enter /usr/site/hpc/x86_64/glibc-2.17/broadwell/gaussian/g16_a.03/pgi-16.5/g16/l101.exe)
 ------------
 H2O_H2O_1237
 ------------
 Symbolic Z-matrix:
 Charge =  0 Multiplicity = 1
 O                     0.       -0.00983   0. 
 H                    -0.79957  -0.58097   0. 
 H                     0.79957  -0.58097   0. 
 O                    -0.00695   2.89748   0. 
 H                     0.15458   3.86672   0. 
 H                    -0.97619   2.73595   0. 
 
 ITRead=  0  0  0  0  0  0
 MicOpt= -1 -1 -1 -1 -1 -1
 NAtoms=      6 NQM=        6 NQMF=       0 NMMI=      0 NMMIF=      0
                NMic=       0 NMicF=      0.
                    Isotopes and Nuclear Properties:
 (Nuclear quadrupole moments (NQMom) in fm**2, nuclear magnetic moments (NMagM)
  in nuclear magnetons)

  Atom         1           2           3           4           5           6
 IAtWgt=          16           1           1          16           1           1
 AtmWgt=  15.9949146   1.0078250   1.0078250  15.9949146   1.0078250   1.0078250
 NucSpn=           0           1           1           0           1           1
 AtZEff=  -0.0000000  -0.0000000  -0.0000000  -0.0000000  -0.0000000  -0.0000000
 NQMom=    0.0000000   0.0000000   0.0000000   0.0000000   0.0000000   0.0000000
 NMagM=    0.0000000   2.7928460   2.7928460   0.0000000   2.7928460   2.7928460
 AtZNuc=   8.0000000   1.0000000   1.0000000   8.0000000   1.0000000   1.0000000
 Leave Link  101 at Sat Aug 27 03:14:33 2022, MaxMem=   536870912 cpu:               0.3 elap:               0.1
 (Enter /usr/site/hpc/x86_64/glibc-2.17/broadwell/gaussian/g16_a.03/pgi-16.5/g16/l202.exe)
                          Input orientation:                          
 ---------------------------------------------------------------------
 Center     Atomic      Atomic             Coordinates (Angstroms)
 Number     Number       Type             X           Y           Z
 ---------------------------------------------------------------------
      1          8           0        0.000000   -0.009833    0.000000
      2          1           0       -0.799571   -0.580965    0.000000
      3          1           0        0.799571   -0.580965    0.000000
      4          8           0       -0.006953    2.897484    0.000000
      5          1           0        0.154578    3.866718    0.000000
      6          1           0       -0.976187    2.735953    0.000000
 ---------------------------------------------------------------------
                    Distance matrix (angstroms):
                    1          2          3          4          5
     1  O    0.000000
     2  H    0.982601   0.000000
     3  H    0.982601   1.599142   0.000000
     4  O    2.907325   3.567611   3.570727   0.000000
     5  H    3.879632   4.548877   4.494207   0.982602   0.000000
     6  H    2.914152   3.321617   3.762348   0.982602   1.599143
                    6
     6  H    0.000000
 Stoichiometry    H4O2
 Framework group  CS[SG(H4O2)]
 Deg. of freedom     9
 Full point group                 CS      NOp   2
 Largest Abelian subgroup         CS      NOp   2
 Largest concise Abelian subgroup C1      NOp   1
                         Standard orientation:                         
 ---------------------------------------------------------------------
 Center     Atomic      Atomic             Coordinates (Angstroms)
 Number     Number       Type             X           Y           Z
 ---------------------------------------------------------------------
      1          8           0        0.040425   -1.437031    0.000000
      2          1           0       -0.760510   -2.006249    0.000000
      3          1           0        0.838628   -2.010074    0.000000
      4          8           0        0.040425    1.470294    0.000000
      5          1           0        0.204274    2.439139    0.000000
      6          1           0       -0.929192    1.311082    0.000000
 ---------------------------------------------------------------------
 Rotational constants (GHZ):         226.0748258           6.0544771           5.8965621
 Leave Link  202 at Sat Aug 27 03:14:33 2022, MaxMem=   536870912 cpu:               0.1 elap:               0.0
 (Enter /usr/site/hpc/x86_64/glibc-2.17/broadwell/gaussian/g16_a.03/pgi-16.5/g16/l301.exe)
 Standard basis: CC-pVTZ (5D, 7F)
 Ernie: Thresh=  0.10000D-02 Tol=  0.10000D-05 Strict=F.
 Ernie:  6 primitive shells out of 84 were deleted.
 There are    92 symmetry adapted cartesian basis functions of A'  symmetry.
 There are    38 symmetry adapted cartesian basis functions of A"  symmetry.
 There are    80 symmetry adapted basis functions of A'  symmetry.
 There are    36 symmetry adapted basis functions of A"  symmetry.
   116 basis functions,   172 primitive gaussians,   130 cartesian basis functions
    10 alpha electrons       10 beta electrons
       nuclear repulsion energy        34.9944562361 Hartrees.
 IExCor=    0 DFT=F Ex=HF Corr=None ExCW=0 ScaHFX=  1.000000
 ScaDFX=  1.000000  1.000000  1.000000  1.000000 ScalE2=  1.000000  1.000000
 IRadAn=      5 IRanWt=     -1 IRanGd=            0 ICorTp=0 IEmpDi=  4
 NAtoms=    6 NActive=    6 NUniq=    6 SFac= 1.00D+00 NAtFMM=   60 NAOKFM=F Big=F
 Integral buffers will be    131072 words long.
 Raffenetti 1 integral format.
 Two-electron integral symmetry is turned on.
 Leave Link  301 at Sat Aug 27 03:14:33 2022, MaxMem=   536870912 cpu:               0.2 elap:               0.1
 (Enter /usr/site/hpc/x86_64/glibc-2.17/broadwell/gaussian/g16_a.03/pgi-16.5/g16/l302.exe)
 NPDir=0 NMtPBC=     1 NCelOv=     1 NCel=       1 NClECP=     1 NCelD=      1
         NCelK=      1 NCelE2=     1 NClLst=     1 CellRange=     0.0.
 One-electron integrals computed using PRISM.
 One-electron integral symmetry used in STVInt
 NBasis=   116 RedAO= T EigKep=  2.11D-03  NBF=    80    36
 NBsUse=   116 1.00D-06 EigRej= -1.00D+00 NBFU=    80    36
 Leave Link  302 at Sat Aug 27 03:14:33 2022, MaxMem=   536870912 cpu:               0.4 elap:               0.1
 (Enter /usr/site/hpc/x86_64/glibc-2.17/broadwell/gaussian/g16_a.03/pgi-16.5/g16/l303.exe)
 DipDrv:  MaxL=1.
 Leave Link  303 at Sat Aug 27 03:14:33 2022, MaxMem=   536870912 cpu:               0.1 elap:               0.0
 (Enter /usr/site/hpc/x86_64/glibc-2.17/broadwell/gaussian/g16_a.03/pgi-16.5/g16/l401.exe)
 ExpMin= 1.03D-01 ExpMax= 1.53D+04 ExpMxC= 5.22D+02 IAcc=3 IRadAn=         5 AccDes= 0.00D+00
 Harris functional with IExCor=  205 and IRadAn=       5 diagonalized for initial guess.
 HarFok:  IExCor=  205 AccDes= 0.00D+00 IRadAn=         5 IDoV= 1 UseB2=F ITyADJ=14
 ICtDFT=  3500011 ScaDFX=  1.000000  1.000000  1.000000  1.000000
 FoFCou: FMM=F IPFlag=           0 FMFlag=      100000 FMFlg1=           0
         NFxFlg=           0 DoJE=T BraDBF=F KetDBF=T FulRan=T
         wScrn=  0.000000 ICntrl=       500 IOpCl=  0 I1Cent=   200000004 NGrid=           0
         NMat0=    1 NMatS0=      1 NMatT0=    0 NMatD0=    1 NMtDS0=    0 NMtDT0=    0
 Petite list used in FoFCou.
 Harris En= -152.300271985364    
 JPrj=0 DoOrth=F DoCkMO=F.
 Initial guess orbital symmetries:
       Occupied  (A') (A') (A') (A') (A') (A') (A') (A') (A") (A")
       Virtual   (A') (A') (A') (A') (A') (A') (A') (A') (A') (A")
                 (A') (A") (A') (A') (A") (A") (A') (A") (A") (A')
                 (A') (A') (A') (A') (A') (A') (A') (A') (A") (A")
                 (A") (A") (A') (A') (A') (A') (A') (A') (A') (A')
                 (A') (A') (A") (A") (A') (A') (A") (A") (A") (A")
                 (A') (A') (A') (A') (A') (A") (A") (A') (A') (A')
                 (A") (A') (A') (A") (A") (A") (A') (A') (A') (A')
                 (A") (A") (A') (A') (A') (A') (A') (A') (A') (A')
                 (A") (A") (A') (A') (A") (A") (A") (A") (A') (A')
                 (A") (A") (A') (A') (A') (A') (A") (A") (A') (A')
                 (A') (A') (A') (A') (A') (A')
 The electronic state of the initial guess is 1-A'.
 Leave Link  401 at Sat Aug 27 03:14:34 2022, MaxMem=   536870912 cpu:               0.8 elap:               0.2
 (Enter /usr/site/hpc/x86_64/glibc-2.17/broadwell/gaussian/g16_a.03/pgi-16.5/g16/l502.exe)
 Keep R1 ints in memory in symmetry-blocked form, NReq=34823457.
 FoFCou: FMM=F IPFlag=           0 FMFlag=           0 FMFlg1=           0
         NFxFlg=           0 DoJE=F BraDBF=F KetDBF=F FulRan=T
         wScrn=  0.000000 ICntrl=       600 IOpCl=  0 I1Cent=           0 NGrid=           0
         NMat0=    1 NMatS0=   6786 NMatT0=    0 NMatD0=    1 NMtDS0=    0 NMtDT0=    0
 Petite list used in FoFCou.
 Closed shell SCF:
 Using DIIS extrapolation, IDIIS=  1040.
 NGot=   536870912 LenX=   525040673 LenY=   525023332
 Requested convergence on RMS density matrix=1.00D-08 within 128 cycles.
 Requested convergence on MAX density matrix=1.00D-06.
 Requested convergence on             energy=1.00D-06.
 No special actions if energy rises.

 Cycle   1  Pass 1  IDiag  1:
 E= -151.919208740448    
 DIIS: error= 6.66D-02 at cycle   1 NSaved=   1.
 NSaved= 1 IEnMin= 1 EnMin= -151.919208740448     IErMin= 1 ErrMin= 6.66D-02
 ErrMax= 6.66D-02  0.00D+00 EMaxC= 1.00D-01 BMatC= 4.02D-01 BMatP= 4.02D-01
 IDIUse=3 WtCom= 3.34D-01 WtEn= 6.66D-01
 Coeff-Com:  0.100D+01
 Coeff-En:   0.100D+01
 Coeff:      0.100D+01
 Gap=     0.497 Goal=   None    Shift=    0.000
 GapD=    0.497 DampG=2.000 DampE=0.500 DampFc=1.0000 IDamp=-1.
 RMSDP=2.78D-03 MaxDP=6.65D-02              OVMax= 1.31D-01

 Cycle   2  Pass 1  IDiag  1:
 E= -152.031615492461     Delta-E=       -0.112406752012 Rises=F Damp=F
 DIIS: error= 4.20D-02 at cycle   2 NSaved=   2.
 NSaved= 2 IEnMin= 2 EnMin= -152.031615492461     IErMin= 2 ErrMin= 4.20D-02
 ErrMax= 4.20D-02  0.00D+00 EMaxC= 1.00D-01 BMatC= 1.16D-01 BMatP= 4.02D-01
 IDIUse=3 WtCom= 5.80D-01 WtEn= 4.20D-01
 Coeff-Com:  0.323D+00 0.677D+00
 Coeff-En:   0.173D+00 0.827D+00
 Coeff:      0.260D+00 0.740D+00
 Gap=     0.644 Goal=   None    Shift=    0.000
 RMSDP=1.50D-03 MaxDP=3.96D-02 DE=-1.12D-01 OVMax= 5.93D-02

 Cycle   3  Pass 1  IDiag  1:
 E= -152.098944403988     Delta-E=       -0.067328911527 Rises=F Damp=F
 DIIS: error= 9.18D-03 at cycle   3 NSaved=   3.
 NSaved= 3 IEnMin= 3 EnMin= -152.098944403988     IErMin= 3 ErrMin= 9.18D-03
 ErrMax= 9.18D-03  0.00D+00 EMaxC= 1.00D-01 BMatC= 6.18D-03 BMatP= 1.16D-01
 IDIUse=3 WtCom= 9.08D-01 WtEn= 9.18D-02
 Coeff-Com: -0.313D-01 0.155D+00 0.876D+00
 Coeff-En:   0.000D+00 0.000D+00 0.100D+01
 Coeff:     -0.284D-01 0.141D+00 0.888D+00
 Gap=     0.615 Goal=   None    Shift=    0.000
 RMSDP=2.71D-04 MaxDP=6.17D-03 DE=-6.73D-02 OVMax= 1.38D-02

 Cycle   4  Pass 1  IDiag  1:
 E= -152.102833843120     Delta-E=       -0.003889439133 Rises=F Damp=F
 DIIS: error= 8.84D-04 at cycle   4 NSaved=   4.
 NSaved= 4 IEnMin= 4 EnMin= -152.102833843120     IErMin= 4 ErrMin= 8.84D-04
 ErrMax= 8.84D-04  0.00D+00 EMaxC= 1.00D-01 BMatC= 4.13D-05 BMatP= 6.18D-03
 IDIUse=3 WtCom= 9.91D-01 WtEn= 8.84D-03
 Coeff-Com:  0.677D-02-0.612D-01-0.236D+00 0.129D+01
 Coeff-En:   0.000D+00 0.000D+00 0.000D+00 0.100D+01
 Coeff:      0.671D-02-0.606D-01-0.234D+00 0.129D+01
 Gap=     0.618 Goal=   None    Shift=    0.000
 RMSDP=5.45D-05 MaxDP=1.05D-03 DE=-3.89D-03 OVMax= 2.75D-03

 Cycle   5  Pass 1  IDiag  1:
 E= -152.102889583472     Delta-E=       -0.000055740351 Rises=F Damp=F
 DIIS: error= 2.00D-04 at cycle   5 NSaved=   5.
 NSaved= 5 IEnMin= 5 EnMin= -152.102889583472     IErMin= 5 ErrMin= 2.00D-04
 ErrMax= 2.00D-04  0.00D+00 EMaxC= 1.00D-01 BMatC= 1.48D-06 BMatP= 4.13D-05
 IDIUse=3 WtCom= 9.98D-01 WtEn= 2.00D-03
 Coeff-Com:  0.748D-03-0.112D-02-0.902D-02-0.182D+00 0.119D+01
 Coeff-En:   0.000D+00 0.000D+00 0.000D+00 0.000D+00 0.100D+01
 Coeff:      0.746D-03-0.111D-02-0.900D-02-0.181D+00 0.119D+01
 Gap=     0.619 Goal=   None    Shift=    0.000
 RMSDP=1.43D-05 MaxDP=2.84D-04 DE=-5.57D-05 OVMax= 7.29D-04

 Cycle   6  Pass 1  IDiag  1:
 E= -152.102892584058     Delta-E=       -0.000003000587 Rises=F Damp=F
 DIIS: error= 3.48D-05 at cycle   6 NSaved=   6.
 NSaved= 6 IEnMin= 6 EnMin= -152.102892584058     IErMin= 6 ErrMin= 3.48D-05
 ErrMax= 3.48D-05  0.00D+00 EMaxC= 1.00D-01 BMatC= 4.50D-08 BMatP= 1.48D-06
 IDIUse=1 WtCom= 1.00D+00 WtEn= 0.00D+00
 Coeff-Com: -0.316D-03 0.198D-02 0.841D-02-0.121D-01-0.242D+00 0.124D+01
 Coeff:     -0.316D-03 0.198D-02 0.841D-02-0.121D-01-0.242D+00 0.124D+01
 Gap=     0.619 Goal=   None    Shift=    0.000
 RMSDP=3.62D-06 MaxDP=8.90D-05 DE=-3.00D-06 OVMax= 1.72D-04

 Cycle   7  Pass 1  IDiag  1:
 E= -152.102892706226     Delta-E=       -0.000000122168 Rises=F Damp=F
 DIIS: error= 5.17D-06 at cycle   7 NSaved=   7.
 NSaved= 7 IEnMin= 7 EnMin= -152.102892706226     IErMin= 7 ErrMin= 5.17D-06
 ErrMax= 5.17D-06  0.00D+00 EMaxC= 1.00D-01 BMatC= 2.69D-09 BMatP= 4.50D-08
 IDIUse=1 WtCom= 1.00D+00 WtEn= 0.00D+00
 Coeff-Com:  0.673D-05-0.286D-03-0.109D-02 0.154D-01-0.403D-01-0.136D+00
 Coeff-Com:  0.116D+01
 Coeff:      0.673D-05-0.286D-03-0.109D-02 0.154D-01-0.403D-01-0.136D+00
 Coeff:      0.116D+01
 Gap=     0.619 Goal=   None    Shift=    0.000
 RMSDP=5.85D-07 MaxDP=1.29D-05 DE=-1.22D-07 OVMax= 3.66D-05

 Cycle   8  Pass 1  IDiag  1:
 E= -152.102892711384     Delta-E=       -0.000000005158 Rises=F Damp=F
 DIIS: error= 1.69D-06 at cycle   8 NSaved=   8.
 NSaved= 8 IEnMin= 8 EnMin= -152.102892711384     IErMin= 8 ErrMin= 1.69D-06
 ErrMax= 1.69D-06  0.00D+00 EMaxC= 1.00D-01 BMatC= 3.01D-10 BMatP= 2.69D-09
 IDIUse=1 WtCom= 1.00D+00 WtEn= 0.00D+00
 Coeff-Com:  0.224D-04-0.183D-03-0.733D-03 0.326D-02 0.961D-02-0.101D+00
 Coeff-Com:  0.184D+00 0.905D+00
 Coeff:      0.224D-04-0.183D-03-0.733D-03 0.326D-02 0.961D-02-0.101D+00
 Coeff:      0.184D+00 0.905D+00
 Gap=     0.619 Goal=   None    Shift=    0.000
 RMSDP=1.18D-07 MaxDP=3.17D-06 DE=-5.16D-09 OVMax= 7.26D-06

 Cycle   9  Pass 1  IDiag  1:
 E= -152.102892711781     Delta-E=       -0.000000000396 Rises=F Damp=F
 DIIS: error= 1.00D-06 at cycle   9 NSaved=   9.
 NSaved= 9 IEnMin= 9 EnMin= -152.102892711781     IErMin= 9 ErrMin= 1.00D-06
 ErrMax= 1.00D-06  0.00D+00 EMaxC= 1.00D-01 BMatC= 4.01D-11 BMatP= 3.01D-10
 IDIUse=1 WtCom= 1.00D+00 WtEn= 0.00D+00
 Coeff-Com:  0.206D-05 0.258D-04 0.107D-03-0.249D-02 0.923D-02 0.883D-02
 Coeff-Com: -0.172D+00 0.123D+00 0.103D+01
 Coeff:      0.206D-05 0.258D-04 0.107D-03-0.249D-02 0.923D-02 0.883D-02
 Coeff:     -0.172D+00 0.123D+00 0.103D+01
 Gap=     0.619 Goal=   None    Shift=    0.000
 RMSDP=5.28D-08 MaxDP=1.13D-06 DE=-3.96D-10 OVMax= 3.07D-06

 Cycle  10  Pass 1  IDiag  1:
 E= -152.102892711840     Delta-E=       -0.000000000059 Rises=F Damp=F
 DIIS: error= 9.49D-08 at cycle  10 NSaved=  10.
 NSaved=10 IEnMin=10 EnMin= -152.102892711840     IErMin=10 ErrMin= 9.49D-08
 ErrMax= 9.49D-08  0.00D+00 EMaxC= 1.00D-01 BMatC= 7.90D-13 BMatP= 4.01D-11
 IDIUse=1 WtCom= 1.00D+00 WtEn= 0.00D+00
 Coeff-Com: -0.926D-06 0.268D-06-0.264D-05 0.358D-03-0.154D-02-0.105D-02
 Coeff-Com:  0.351D-01-0.552D-01-0.247D+00 0.127D+01
 Coeff:     -0.926D-06 0.268D-06-0.264D-05 0.358D-03-0.154D-02-0.105D-02
 Coeff:      0.351D-01-0.552D-01-0.247D+00 0.127D+01
 Gap=     0.619 Goal=   None    Shift=    0.000
 RMSDP=1.00D-08 MaxDP=2.02D-07 DE=-5.91D-11 OVMax= 5.81D-07

 Cycle  11  Pass 1  IDiag  1:
 E= -152.102892711842     Delta-E=       -0.000000000002 Rises=F Damp=F
 DIIS: error= 2.48D-08 at cycle  11 NSaved=  11.
 NSaved=11 IEnMin=11 EnMin= -152.102892711842     IErMin=11 ErrMin= 2.48D-08
 ErrMax= 2.48D-08  0.00D+00 EMaxC= 1.00D-01 BMatC= 2.96D-14 BMatP= 7.90D-13
 IDIUse=1 WtCom= 1.00D+00 WtEn= 0.00D+00
 Coeff-Com:  0.582D-07-0.143D-05-0.560D-05 0.649D-04-0.178D-03-0.491D-03
 Coeff-Com:  0.401D-02 0.861D-03-0.204D-01-0.154D+00 0.117D+01
 Coeff:      0.582D-07-0.143D-05-0.560D-05 0.649D-04-0.178D-03-0.491D-03
 Coeff:      0.401D-02 0.861D-03-0.204D-01-0.154D+00 0.117D+01
 Gap=     0.619 Goal=   None    Shift=    0.000
 RMSDP=3.62D-09 MaxDP=1.11D-07 DE=-1.88D-12 OVMax= 1.57D-07

 SCF Done:  E(RHF) =  -152.102892712     A.U. after   11 cycles
            NFock= 11  Conv=0.36D-08     -V/T= 2.0019
 KE= 1.518163413301D+02 PE=-4.317151607335D+02 EE= 9.280147045540D+01
 Leave Link  502 at Sat Aug 27 03:14:35 2022, MaxMem=   536870912 cpu:               4.5 elap:               1.2
 (Enter /usr/site/hpc/x86_64/glibc-2.17/broadwell/gaussian/g16_a.03/pgi-16.5/g16/l801.exe)
 Windowed orbitals will be sorted by symmetry type.
 ExpMin= 1.03D-01 ExpMax= 1.53D+04 ExpMxC= 5.22D+02 IAcc=3 IRadAn=         5 AccDes= 0.00D+00
 HarFok:  IExCor=  205 AccDes= 0.00D+00 IRadAn=         5 IDoV=-2 UseB2=F ITyADJ=14
 ICtDFT= 12500011 ScaDFX=  1.000000  1.000000  1.000000  1.000000
 Largest valence mixing into a core orbital is  1.12D-04
 Largest core mixing into a valence orbital is  1.78D-05
 Range of M.O.s used for correlation:     3   116
 NBasis=   116 NAE=    10 NBE=    10 NFC=     2 NFV=     0
 NROrb=    114 NOA=     8 NOB=     8 NVA=   106 NVB=   106
 Leave Link  801 at Sat Aug 27 03:14:35 2022, MaxMem=   536870912 cpu:               0.3 elap:               0.1
 (Enter /usr/site/hpc/x86_64/glibc-2.17/broadwell/gaussian/g16_a.03/pgi-16.5/g16/l804.exe)
 Closed-shell transformation, MDV=   536870912 ITran=4 ISComp=2.
 Unit  1 TFree=        834515 TCopy=        406125.
 Semi-Direct transformation.
 ModeAB=           4 MOrb=             8 LenV=     536364610
 LASXX=      2873146 LTotXX=     2873146 LenRXX=     5831278
 LTotAB=     2958132 MaxLAS=     7553184 LenRXY=           0
 NonZer=     8704424 LenScr=    13107200 LnRSAI=     7553184
 LnScr1=    11534336 LExtra=           0 Total=     38025998
 MaxDsk=          -1 SrtSym=           T ITran=            4
 DoSDTr:  NPSUse=  4
 JobTyp=0 Pass  1:  I=   1 to   8.
 (rs|ai) integrals will be sorted in core.
 Complete sort for first half transformation.
 First half transformation complete.
 Complete sort for second half transformation.
 Second half transformation complete.
 Spin components of T(2) and E(2):
     alpha-alpha T2 =       0.1571951613D-01 E2=     -0.6412609719D-01
     alpha-beta  T2 =       0.9249864935D-01 E2=     -0.3993554012D+00
     beta-beta   T2 =       0.1571951613D-01 E2=     -0.6412609719D-01
 ANorm=    0.1060159272D+01
 E2 =    -0.5276075956D+00 EUMP2 =    -0.15263050030747D+03
 Leave Link  804 at Sat Aug 27 03:14:37 2022, MaxMem=   536870912 cpu:               5.6 elap:               1.5
 (Enter /usr/site/hpc/x86_64/glibc-2.17/broadwell/gaussian/g16_a.03/pgi-16.5/g16/l913.exe)
 CIDS:  MDV=   536870912.
 Frozen-core window:  NFC=   2 NFV=   0.
 IFCWin=0 IBDFC=1 NFBD=     0     0 NFCmp=     0     0 NFFFC=     0     0
 Using DD3R+UMP44R for 1st iteration.
 Using DD4RQ for 2nd and later iterations.
 Keep R2 and R3 ints in memory in symmetry-blocked form, NReq=35357534.
 FoFCou: FMM=F IPFlag=           0 FMFlag=           0 FMFlg1=           0
         NFxFlg=           0 DoJE=F BraDBF=F KetDBF=F FulRan=T
         wScrn=  0.000000 ICntrl=       600 IOpCl=  0 I1Cent=           0 NGrid=           0
         NMat0=    1 NMatS0=   6786 NMatT0=    0 NMatD0=    1 NMtDS0=    0 NMtDT0=    0
 Petite list used in FoFCou.
 CIDS: In Core Option IDoMem=           1.
 CCSD(T)
 =======
 Iterations=  50 Convergence= 0.100D-06
 Produce multiple copies of IABC intergrals
 Iteration Nr.   1
 **********************
 DD1Dir will call FoFMem   1 times, MxPair=        72
 NAB=    36 NAA=     0 NBB=     0.
 MP4(R+Q)=  0.76866333D-02
 Maximum subspace dimension=  5
 A-vector RMS=  1.8160009D-03 Max=  7.2739900D-03 conv= 1.00D-05.
 RLE energy=       -0.5271701078
 E3=       -0.73204560D-02        EUMP3=      -0.15263782076D+03
 E4(DQ)=   -0.15066607D-02        UMP4(DQ)=   -0.15263932742D+03
 E4(SDQ)=  -0.46655234D-02        UMP4(SDQ)=  -0.15264248629D+03
 VARIATIONAL ENERGIES WITH THE FIRST-ORDER WAVEFUNCTION:
 DE(Corr)= -0.52716975     E(Corr)=     -152.63006247    
 NORM(A)=   0.10604434D+01
 Iteration Nr.   2
 **********************
 DD1Dir will call FoFMem   1 times, MxPair=        72
 NAB=    36 NAA=     0 NBB=     0.
 A-vector RMS=  2.1102679D-04 Max=  1.2764179D-03 conv= 1.00D-05.
 RLE energy=       -0.5383692591
 DE(Corr)= -0.53723155     E(CORR)=     -152.64012426     Delta=-1.01D-02
 NORM(A)=   0.10642668D+01
 Iteration Nr.   3
 **********************
 DD1Dir will call FoFMem   1 times, MxPair=        72
 NAB=    36 NAA=     0 NBB=     0.
 A-vector RMS=  1.6068921D-04 Max=  1.4280609D-03 conv= 1.00D-05.
 RLE energy=       -0.5388755396
 DE(Corr)= -0.53827322     E(CORR)=     -152.64116593     Delta=-1.04D-03
 NORM(A)=   0.10649208D+01
 Iteration Nr.   4
 **********************
 DD1Dir will call FoFMem   1 times, MxPair=        72
 NAB=    36 NAA=     0 NBB=     0.
 A-vector RMS=  3.2177513D-05 Max=  1.8348792D-04 conv= 1.00D-05.
 RLE energy=       -0.5389564037
 DE(Corr)= -0.53892110     E(CORR)=     -152.64181382     Delta=-6.48D-04
 NORM(A)=   0.10650395D+01
 Iteration Nr.   5
 **********************
 DD1Dir will call FoFMem   1 times, MxPair=        72
 NAB=    36 NAA=     0 NBB=     0.
 A-vector RMS=  2.2119316D-05 Max=  2.5661686D-04 conv= 1.00D-05.
 RLE energy=       -0.5389690217
 DE(Corr)= -0.53896103     E(CORR)=     -152.64185374     Delta=-3.99D-05
 NORM(A)=   0.10650533D+01
 Iteration Nr.   6
 **********************
 DD1Dir will call FoFMem   1 times, MxPair=        72
 NAB=    36 NAA=     0 NBB=     0.
 A-vector RMS=  6.7717202D-06 Max=  7.1417078D-05 conv= 1.00D-05.
 RLE energy=       -0.5389596037
 DE(Corr)= -0.53896480     E(CORR)=     -152.64185751     Delta=-3.77D-06
 NORM(A)=   0.10650536D+01
 Iteration Nr.   7
 **********************
 DD1Dir will call FoFMem   1 times, MxPair=        72
 NAB=    36 NAA=     0 NBB=     0.
 A-vector RMS=  3.0061263D-06 Max=  3.4278641D-05 conv= 1.00D-05.
 RLE energy=       -0.5389643930
 DE(Corr)= -0.53896498     E(CORR)=     -152.64185769     Delta=-1.87D-07
 NORM(A)=   0.10650557D+01
 Iteration Nr.   8
 **********************
 DD1Dir will call FoFMem   1 times, MxPair=        72
 NAB=    36 NAA=     0 NBB=     0.
 A-vector RMS=  1.1044896D-06 Max=  1.2788901D-05 conv= 1.00D-05.
 RLE energy=       -0.5389641963
 DE(Corr)= -0.53896444     E(CORR)=     -152.64185715     Delta= 5.45D-07
 NORM(A)=   0.10650561D+01
 Iteration Nr.   9
 **********************
 DD1Dir will call FoFMem   1 times, MxPair=        72
 NAB=    36 NAA=     0 NBB=     0.
 A-vector RMS=  1.9689432D-07 Max=  1.8375276D-06 conv= 1.00D-05.
 RLE energy=       -0.5389644786
 DE(Corr)= -0.53896455     E(CORR)=     -152.64185727     Delta=-1.18D-07
 NORM(A)=   0.10650565D+01
 Iteration Nr.  10
 **********************
 DD1Dir will call FoFMem   1 times, MxPair=        72
 NAB=    36 NAA=     0 NBB=     0.
 A-vector RMS=  8.7226832D-08 Max=  1.0123552D-06 conv= 1.00D-05.
 RLE energy=       -0.5389647125
 DE(Corr)= -0.53896469     E(CORR)=     -152.64185741     Delta=-1.40D-07
 NORM(A)=   0.10650567D+01
 Iteration Nr.  11
 **********************
 DD1Dir will call FoFMem   1 times, MxPair=        72
 NAB=    36 NAA=     0 NBB=     0.
 A-vector RMS=  3.1784456D-08 Max=  3.6529427D-07 conv= 1.00D-05.
 RLE energy=       -0.5389647783
 DE(Corr)= -0.53896476     E(CORR)=     -152.64185747     Delta=-6.34D-08
 NORM(A)=   0.10650567D+01
 CI/CC converged in   11 iterations to DelEn=-6.34D-08 Conv= 1.00D-07 ErrA1= 3.18D-08 Conv= 1.00D-05
 Wavefunction amplitudes converged. E(Corr)=     -152.64185747    
 Largest amplitude= 2.66D-02
 IPart=  4 IA=    7   11.05% done.
 IPart=  4 IA=   13   21.46% done.
 IPart=  4 IA=   19   31.21% done.
 IPart=  3 IA=   25   40.32% done.
 IPart=  3 IA=   32   50.13% done.
 IPart=  3 IA=   40   60.27% done.
 IPart=  3 IA=   49   70.30% done.
 IPart=  1 IA=   60   80.58% done.
 IPart=  4 IA=   74   90.51% done.
 Time for triples=       56.50 seconds.
 T4(CCSD)= -0.16305662D-01
 T5(CCSD)=  0.42676746D-03
 CCSD(T)= -0.15265773636D+03
 Discarding MO integrals.
 Leave Link  913 at Sat Aug 27 03:14:58 2022, MaxMem=   536870912 cpu:              83.5 elap:              21.1
 (Enter /usr/site/hpc/x86_64/glibc-2.17/broadwell/gaussian/g16_a.03/pgi-16.5/g16/l601.exe)
 Copying SCF densities to generalized density rwf, IOpCl= 0 IROHF=0.

 **********************************************************************

            Population analysis using the SCF density.

 **********************************************************************

 Orbital symmetries:
       Occupied  (A') (A') (A') (A') (A') (A') (A') (A') (A") (A")
       Virtual   (A') (A') (A') (A') (A') (A') (A') (A') (A') (A')
                 (A") (A') (A') (A") (A") (A") (A') (A") (A") (A')
                 (A') (A') (A') (A') (A') (A') (A') (A') (A") (A")
                 (A") (A") (A') (A') (A') (A') (A') (A') (A') (A')
                 (A') (A') (A") (A") (A') (A') (A") (A") (A') (A')
                 (A") (A") (A') (A') (A') (A") (A") (A') (A") (A")
                 (A') (A') (A') (A') (A") (A") (A') (A') (A') (A')
                 (A") (A") (A') (A') (A') (A') (A') (A') (A') (A')
                 (A") (A") (A') (A') (A") (A") (A") (A") (A') (A')
                 (A") (A") (A') (A') (A') (A') (A") (A") (A') (A')
                 (A') (A') (A') (A') (A') (A')
 The electronic state is 1-A'.
 Alpha  occ. eigenvalues --  -20.54549 -20.53636  -1.31900  -1.30883  -0.69323
 Alpha  occ. eigenvalues --   -0.68319  -0.55886  -0.53330  -0.49045  -0.47923
 Alpha virt. eigenvalues --    0.13995   0.16874   0.20281   0.22613   0.53389
 Alpha virt. eigenvalues --    0.57918   0.57952   0.58747   0.67491   0.76187
 Alpha virt. eigenvalues --    0.76994   0.77236   0.80673   0.82743   0.85561
 Alpha virt. eigenvalues --    0.86593   0.89798   0.96319   1.02817   1.06637
 Alpha virt. eigenvalues --    1.13979   1.18643   1.20614   1.32298   1.52313
 Alpha virt. eigenvalues --    1.52741   1.54307   1.55411   2.01151   2.03168
 Alpha virt. eigenvalues --    2.07696   2.08759   2.09895   2.15076   2.19051
 Alpha virt. eigenvalues --    2.22340   2.33189   2.37118   2.62492   2.64810
 Alpha virt. eigenvalues --    2.93976   2.96096   3.40220   3.41200   3.51096
 Alpha virt. eigenvalues --    3.51841   3.53940   3.54882   3.60251   3.61589
 Alpha virt. eigenvalues --    3.79603   3.80519   3.84764   3.87921   3.94248
 Alpha virt. eigenvalues --    3.94392   3.95204   3.95211   4.02430   4.07146
 Alpha virt. eigenvalues --    4.08649   4.12377   4.16442   4.17774   4.30983
 Alpha virt. eigenvalues --    4.31965   4.41800   4.46007   4.46661   4.48788
 Alpha virt. eigenvalues --    4.66950   4.69172   4.84402   4.86369   5.05561
 Alpha virt. eigenvalues --    5.07233   5.25456   5.29068   5.56120   5.58949
 Alpha virt. eigenvalues --    5.98931   5.99854   6.41341   6.42463   6.87150
 Alpha virt. eigenvalues --    6.88106   6.90591   6.91552   6.95555   6.97935
 Alpha virt. eigenvalues --    6.99955   7.01321   7.09702   7.10869   7.16418
 Alpha virt. eigenvalues --    7.19166   7.19296   7.20293   7.48081   7.50239
 Alpha virt. eigenvalues --    7.72190   7.75120   8.16669   8.19325  12.48806
 Alpha virt. eigenvalues --   12.70185
          Condensed to atoms (all electrons):
               1          2          3          4          5          6
     1  O    7.822714   0.319980   0.333580  -0.003592   0.000056   0.005469
     2  H    0.319980   0.475723  -0.029278   0.000595  -0.000030  -0.000644
     3  H    0.333580  -0.029278   0.448498   0.001015  -0.000041  -0.000415
     4  O   -0.003592   0.000595   0.001015   7.824848   0.313782   0.337786
     5  H    0.000056  -0.000030  -0.000041   0.313782   0.489492  -0.030231
     6  H    0.005469  -0.000644  -0.000415   0.337786  -0.030231   0.442657
 Mulliken charges:
               1
     1  O   -0.478207
     2  H    0.233653
     3  H    0.246640
     4  O   -0.474435
     5  H    0.226973
     6  H    0.245377
 Sum of Mulliken charges =  -0.00000
 Mulliken charges with hydrogens summed into heavy atoms:
               1
     1  O    0.002085
     4  O   -0.002085
 Electronic spatial extent (au):  <R**2>=            203.5125
 Charge=             -0.0000 electrons
 Dipole moment (field-independent basis, Debye):
    X=             -1.3096    Y=             -0.6365    Z=              0.0000  Tot=              1.4561
 Quadrupole moment (field-independent basis, Debye-Ang):
   XX=             -8.8995   YY=             -1.4957   ZZ=            -14.7161
   XY=             -1.2306   XZ=              0.0000   YZ=              0.0000
 Traceless Quadrupole moment (field-independent basis, Debye-Ang):
   XX=             -0.5291   YY=              6.8747   ZZ=             -6.3457
   XY=             -1.2306   XZ=              0.0000   YZ=              0.0000
 Octapole moment (field-independent basis, Debye-Ang**2):
  XXX=             -1.6872  YYY=              1.4268  ZZZ=              0.0000  XYY=              0.6028
  XXY=             -3.3032  XXZ=              0.0000  XZZ=             -0.1516  YZZ=             -0.1021
  YYZ=              0.0000  XYZ=              0.0000
 Hexadecapole moment (field-independent basis, Debye-Ang**3):
 XXXX=            -11.2312 YYYY=           -110.8107 ZZZZ=            -11.3543 XXXY=             -1.3447
 XXXZ=              0.0000 YYYX=              4.5140 YYYZ=              0.0000 ZZZX=              0.0000
 ZZZY=              0.0000 XXYY=            -21.7657 XXZZ=             -4.5133 YYZZ=            -38.5278
 XXYZ=              0.0000 YYXZ=              0.0000 ZZXY=              0.4949
 N-N= 3.499445623613D+01 E-N=-4.317151604675D+02  KE= 1.518163413301D+02
 Symmetry A'   KE= 1.427797961821D+02
 Symmetry A"   KE= 9.036545148031D+00
 Leave Link  601 at Sat Aug 27 03:14:58 2022, MaxMem=   536870912 cpu:               0.2 elap:               0.1
 (Enter /usr/site/hpc/x86_64/glibc-2.17/broadwell/gaussian/g16_a.03/pgi-16.5/g16/l9999.exe)
 1\1\GINC-N003\SP\RCCSD(T)-FC\CC-pVTZ\H4O2\C7441284\27-Aug-2022\0\\#p C
 CSD(T)/cc-pVTZ\\H2O_H2O_1237\\0,1\O,0,0.,-0.009833,0.\H,0,-0.799571,-0
 .580965,0.\H,0,0.799571,-0.580965,0.\O,0,-0.006953,2.897484,0.\H,0,0.1
 54578,3.866718,0.\H,0,-0.976187,2.735953,0.\\Version=ES64L-G16RevA.03\
 State=1-A'\HF=-152.1028927\MP2=-152.6305003\MP3=-152.6378208\MP4D=-152
 .6470141\MP4DQ=-152.6393274\MP4SDQ=-152.6424863\CCSD=-152.6418575\CCSD
 (T)=-152.6577364\RMSD=3.619e-09\PG=CS [SG(H4O2)]\\@


 NO SCIENCE HAS EVER MADE MORE RAPID PROGRESS IN A
 SHORTER TIME THAN CHEMISTRY.
   -- MARTIN HEINRICH KLOPROTH, 1791
 (FIRST PROFESSOR OF CHEMISTRY AT THE UNIVERSITY OF BERLIN)
 Job cpu time:       0 days  0 hours  1 minutes 36.5 seconds.
 Elapsed time:       0 days  0 hours  0 minutes 25.1 seconds.
 File lengths (MBytes):  RWF=    360 Int=      0 D2E=      0 Chk=      8 Scr=      8
 Normal termination of Gaussian 16 at Sat Aug 27 03:14:58 2022.
