 Entering Gaussian System, Link 0=g16
 Input=H2O_H2O_3795.com
 Output=H2O_H2O_3795.log
 Initial command:
 /usr/site/hpc/x86_64/glibc-2.17/broadwell/gaussian/g16_a.03/pgi-16.5/g16/l1.exe "/gpfs/gpfs1/scratch/c7441284/ForceFieldModel/FittingData/Gau-3565280.inp" -scrdir="/gpfs/gpfs1/scratch/c7441284/ForceFieldModel/FittingData/"
 Entering Link 1 = /usr/site/hpc/x86_64/glibc-2.17/broadwell/gaussian/g16_a.03/pgi-16.5/g16/l1.exe PID=   3565281.
  
 Copyright (c) 1988,1990,1992,1993,1995,1998,2003,2009,2016,
            Gaussian, Inc.  All Rights Reserved.
  
 This is part of the Gaussian(R) 16 program.  It is based on
 the Gaussian(R) 09 system (copyright 2009, Gaussian, Inc.),
 the Gaussian(R) 03 system (copyright 2003, Gaussian, Inc.),
 the Gaussian(R) 98 system (copyright 1998, Gaussian, Inc.),
 the Gaussian(R) 94 system (copyright 1995, Gaussian, Inc.),
 the Gaussian 92(TM) system (copyright 1992, Gaussian, Inc.),
 the Gaussian 90(TM) system (copyright 1990, Gaussian, Inc.),
 the Gaussian 88(TM) system (copyright 1988, Gaussian, Inc.),
 the Gaussian 86(TM) system (copyright 1986, Carnegie Mellon
 University), and the Gaussian 82(TM) system (copyright 1983,
 Carnegie Mellon University). Gaussian is a federally registered
 trademark of Gaussian, Inc.
  
 This software contains proprietary and confidential information,
 including trade secrets, belonging to Gaussian, Inc.
  
 This software is provided under written license and may be
 used, copied, transmitted, or stored only in accord with that
 written license.
  
 The following legend is applicable only to US Government
 contracts under FAR:
  
                    RESTRICTED RIGHTS LEGEND
  
 Use, reproduction and disclosure by the US Government is
 subject to restrictions as set forth in subparagraphs (a)
 and (c) of the Commercial Computer Software - Restricted
 Rights clause in FAR 52.227-19.
  
 Gaussian, Inc.
 340 Quinnipiac St., Bldg. 40, Wallingford CT 06492
  
  
 ---------------------------------------------------------------
 Warning -- This program may not be used in any manner that
 competes with the business of Gaussian, Inc. or will provide
 assistance to any competitor of Gaussian, Inc.  The licensee
 of this program is prohibited from giving any competitor of
 Gaussian, Inc. access to this program.  By using this program,
 the user acknowledges that Gaussian, Inc. is engaged in the
 business of creating and licensing software in the field of
 computational chemistry and represents and warrants to the
 licensee that it is not a competitor of Gaussian, Inc. and that
 it will not use this program in any manner prohibited above.
 ---------------------------------------------------------------
  

 Cite this work as:
 Gaussian 16, Revision A.03,
 M. J. Frisch, G. W. Trucks, H. B. Schlegel, G. E. Scuseria, 
 M. A. Robb, J. R. Cheeseman, G. Scalmani, V. Barone, 
 G. A. Petersson, H. Nakatsuji, X. Li, M. Caricato, A. V. Marenich, 
 J. Bloino, B. G. Janesko, R. Gomperts, B. Mennucci, H. P. Hratchian, 
 J. V. Ortiz, A. F. Izmaylov, J. L. Sonnenberg, D. Williams-Young, 
 F. Ding, F. Lipparini, F. Egidi, J. Goings, B. Peng, A. Petrone, 
 T. Henderson, D. Ranasinghe, V. G. Zakrzewski, J. Gao, N. Rega, 
 G. Zheng, W. Liang, M. Hada, M. Ehara, K. Toyota, R. Fukuda, 
 J. Hasegawa, M. Ishida, T. Nakajima, Y. Honda, O. Kitao, H. Nakai, 
 T. Vreven, K. Throssell, J. A. Montgomery, Jr., J. E. Peralta, 
 F. Ogliaro, M. J. Bearpark, J. J. Heyd, E. N. Brothers, K. N. Kudin, 
 V. N. Staroverov, T. A. Keith, R. Kobayashi, J. Normand, 
 K. Raghavachari, A. P. Rendell, J. C. Burant, S. S. Iyengar, 
 J. Tomasi, M. Cossi, J. M. Millam, M. Klene, C. Adamo, R. Cammi, 
 J. W. Ochterski, R. L. Martin, K. Morokuma, O. Farkas, 
 J. B. Foresman, and D. J. Fox, Gaussian, Inc., Wallingford CT, 2016.
 
 ******************************************
 Gaussian 16:  ES64L-G16RevA.03 25-Dec-2016
                27-Aug-2022 
 ******************************************
 %NProcShared=4
 Will use up to    4 processors via shared memory.
 %Mem=4GB
 %Chk=H2O_H2O_3795.chk
 ------------------
 #p CCSD(T)/cc-pVTZ
 ------------------
 1/38=1,172=1/1;
 2/12=2,17=6,18=5,40=1/2;
 3/5=16,6=1,11=9,25=1,30=1/1,2,3;
 4//1;
 5/5=2,38=5/2;
 8/6=4,9=120000,10=1/1,4;
 9/5=7,14=2/13;
 6/7=2,8=2,9=2,10=2/1;
 99/5=1,9=1/99;
 Leave Link    1 at Sat Aug 27 03:22:53 2022, MaxMem=   536870912 cpu:               0.3 elap:               0.1
 (Enter /usr/site/hpc/x86_64/glibc-2.17/broadwell/gaussian/g16_a.03/pgi-16.5/g16/l101.exe)
 ------------
 H2O_H2O_3795
 ------------
 Symbolic Z-matrix:
 Charge =  0 Multiplicity = 1
 O                     0.       -0.00983   0. 
 H                    -0.79957  -0.58097   0. 
 H                     0.79957  -0.58097   0. 
 O                    -0.0095    5.60544   0. 
 H                    -0.35423   6.52559   0. 
 H                    -0.76811   4.98093   0. 
 
 ITRead=  0  0  0  0  0  0
 MicOpt= -1 -1 -1 -1 -1 -1
 NAtoms=      6 NQM=        6 NQMF=       0 NMMI=      0 NMMIF=      0
                NMic=       0 NMicF=      0.
                    Isotopes and Nuclear Properties:
 (Nuclear quadrupole moments (NQMom) in fm**2, nuclear magnetic moments (NMagM)
  in nuclear magnetons)

  Atom         1           2           3           4           5           6
 IAtWgt=          16           1           1          16           1           1
 AtmWgt=  15.9949146   1.0078250   1.0078250  15.9949146   1.0078250   1.0078250
 NucSpn=           0           1           1           0           1           1
 AtZEff=  -0.0000000  -0.0000000  -0.0000000  -0.0000000  -0.0000000  -0.0000000
 NQMom=    0.0000000   0.0000000   0.0000000   0.0000000   0.0000000   0.0000000
 NMagM=    0.0000000   2.7928460   2.7928460   0.0000000   2.7928460   2.7928460
 AtZNuc=   8.0000000   1.0000000   1.0000000   8.0000000   1.0000000   1.0000000
 Leave Link  101 at Sat Aug 27 03:22:53 2022, MaxMem=   536870912 cpu:               0.3 elap:               0.1
 (Enter /usr/site/hpc/x86_64/glibc-2.17/broadwell/gaussian/g16_a.03/pgi-16.5/g16/l202.exe)
                          Input orientation:                          
 ---------------------------------------------------------------------
 Center     Atomic      Atomic             Coordinates (Angstroms)
 Number     Number       Type             X           Y           Z
 ---------------------------------------------------------------------
      1          8           0        0.000000   -0.009833    0.000000
      2          1           0       -0.799571   -0.580965    0.000000
      3          1           0        0.799571   -0.580965    0.000000
      4          8           0       -0.009498    5.605441    0.000000
      5          1           0       -0.354225    6.525588    0.000000
      6          1           0       -0.768113    4.980934    0.000000
 ---------------------------------------------------------------------
                    Distance matrix (angstroms):
                    1          2          3          4          5
     1  O    0.000000
     2  H    0.982601   0.000000
     3  H    0.982601   1.599142   0.000000
     4  O    5.615282   6.236653   6.239087   0.000000
     5  H    6.545014   7.120494   7.199607   0.982602   0.000000
     6  H    5.049530   5.561988   5.778612   0.982602   1.599143
                    6
     6  H    0.000000
 Stoichiometry    H4O2
 Framework group  CS[SG(H4O2)]
 Deg. of freedom     9
 Full point group                 CS      NOp   2
 Largest Abelian subgroup         CS      NOp   2
 Largest concise Abelian subgroup C1      NOp   1
                         Standard orientation:                         
 ---------------------------------------------------------------------
 Center     Atomic      Atomic             Coordinates (Angstroms)
 Number     Number       Type             X           Y           Z
 ---------------------------------------------------------------------
      1          8           0        0.055239   -2.765403    0.000000
      2          1           0       -0.745297   -3.335182    0.000000
      3          1           0        0.853842   -3.337887    0.000000
      4          8           0        0.055239    2.849879    0.000000
      5          1           0       -0.287931    3.770608    0.000000
      6          1           0       -0.704432    2.226656    0.000000
 ---------------------------------------------------------------------
 Rotational constants (GHZ):         262.6665301           1.7189135           1.7077379
 Leave Link  202 at Sat Aug 27 03:22:53 2022, MaxMem=   536870912 cpu:               0.1 elap:               0.0
 (Enter /usr/site/hpc/x86_64/glibc-2.17/broadwell/gaussian/g16_a.03/pgi-16.5/g16/l301.exe)
 Standard basis: CC-pVTZ (5D, 7F)
 Ernie: Thresh=  0.10000D-02 Tol=  0.10000D-05 Strict=F.
 Ernie:  6 primitive shells out of 84 were deleted.
 There are    92 symmetry adapted cartesian basis functions of A'  symmetry.
 There are    38 symmetry adapted cartesian basis functions of A"  symmetry.
 There are    80 symmetry adapted basis functions of A'  symmetry.
 There are    36 symmetry adapted basis functions of A"  symmetry.
   116 basis functions,   172 primitive gaussians,   130 cartesian basis functions
    10 alpha electrons       10 beta electrons
       nuclear repulsion energy        27.1036695768 Hartrees.
 IExCor=    0 DFT=F Ex=HF Corr=None ExCW=0 ScaHFX=  1.000000
 ScaDFX=  1.000000  1.000000  1.000000  1.000000 ScalE2=  1.000000  1.000000
 IRadAn=      5 IRanWt=     -1 IRanGd=            0 ICorTp=0 IEmpDi=  4
 NAtoms=    6 NActive=    6 NUniq=    6 SFac= 1.00D+00 NAtFMM=   60 NAOKFM=F Big=F
 Integral buffers will be    131072 words long.
 Raffenetti 1 integral format.
 Two-electron integral symmetry is turned on.
 Leave Link  301 at Sat Aug 27 03:22:53 2022, MaxMem=   536870912 cpu:               0.2 elap:               0.1
 (Enter /usr/site/hpc/x86_64/glibc-2.17/broadwell/gaussian/g16_a.03/pgi-16.5/g16/l302.exe)
 NPDir=0 NMtPBC=     1 NCelOv=     1 NCel=       1 NClECP=     1 NCelD=      1
         NCelK=      1 NCelE2=     1 NClLst=     1 CellRange=     0.0.
 One-electron integrals computed using PRISM.
 One-electron integral symmetry used in STVInt
 NBasis=   116 RedAO= T EigKep=  2.67D-03  NBF=    80    36
 NBsUse=   116 1.00D-06 EigRej= -1.00D+00 NBFU=    80    36
 Leave Link  302 at Sat Aug 27 03:22:53 2022, MaxMem=   536870912 cpu:               0.4 elap:               0.1
 (Enter /usr/site/hpc/x86_64/glibc-2.17/broadwell/gaussian/g16_a.03/pgi-16.5/g16/l303.exe)
 DipDrv:  MaxL=1.
 Leave Link  303 at Sat Aug 27 03:22:53 2022, MaxMem=   536870912 cpu:               0.1 elap:               0.0
 (Enter /usr/site/hpc/x86_64/glibc-2.17/broadwell/gaussian/g16_a.03/pgi-16.5/g16/l401.exe)
 ExpMin= 1.03D-01 ExpMax= 1.53D+04 ExpMxC= 5.22D+02 IAcc=3 IRadAn=         5 AccDes= 0.00D+00
 Harris functional with IExCor=  205 and IRadAn=       5 diagonalized for initial guess.
 HarFok:  IExCor=  205 AccDes= 0.00D+00 IRadAn=         5 IDoV= 1 UseB2=F ITyADJ=14
 ICtDFT=  3500011 ScaDFX=  1.000000  1.000000  1.000000  1.000000
 FoFCou: FMM=F IPFlag=           0 FMFlag=      100000 FMFlg1=           0
         NFxFlg=           0 DoJE=T BraDBF=F KetDBF=T FulRan=T
         wScrn=  0.000000 ICntrl=       500 IOpCl=  0 I1Cent=   200000004 NGrid=           0
         NMat0=    1 NMatS0=      1 NMatT0=    0 NMatD0=    1 NMtDS0=    0 NMtDT0=    0
 Petite list used in FoFCou.
 Harris En= -152.298682158726    
 JPrj=0 DoOrth=F DoCkMO=F.
 Initial guess orbital symmetries:
       Occupied  (A') (A') (A') (A') (A') (A') (A') (A') (A") (A")
       Virtual   (A') (A') (A') (A') (A') (A') (A') (A') (A') (A')
                 (A") (A") (A') (A') (A') (A') (A") (A") (A") (A")
                 (A') (A') (A') (A') (A') (A') (A') (A') (A") (A")
                 (A") (A") (A') (A') (A') (A') (A') (A') (A') (A')
                 (A') (A') (A") (A") (A') (A') (A") (A") (A") (A")
                 (A') (A') (A') (A') (A') (A') (A") (A") (A') (A')
                 (A') (A') (A") (A") (A") (A") (A') (A') (A') (A')
                 (A") (A") (A') (A') (A') (A') (A') (A') (A') (A')
                 (A") (A") (A') (A') (A") (A") (A") (A") (A') (A')
                 (A") (A") (A') (A') (A') (A') (A") (A") (A') (A')
                 (A') (A') (A') (A') (A') (A')
 The electronic state of the initial guess is 1-A'.
 Leave Link  401 at Sat Aug 27 03:22:53 2022, MaxMem=   536870912 cpu:               0.8 elap:               0.2
 (Enter /usr/site/hpc/x86_64/glibc-2.17/broadwell/gaussian/g16_a.03/pgi-16.5/g16/l502.exe)
 Keep R1 ints in memory in symmetry-blocked form, NReq=34823457.
 FoFCou: FMM=F IPFlag=           0 FMFlag=           0 FMFlg1=           0
         NFxFlg=           0 DoJE=F BraDBF=F KetDBF=F FulRan=T
         wScrn=  0.000000 ICntrl=       600 IOpCl=  0 I1Cent=           0 NGrid=           0
         NMat0=    1 NMatS0=   6786 NMatT0=    0 NMatD0=    1 NMtDS0=    0 NMtDT0=    0
 Petite list used in FoFCou.
 Closed shell SCF:
 Using DIIS extrapolation, IDIIS=  1040.
 NGot=   536870912 LenX=   525040673 LenY=   525023332
 Requested convergence on RMS density matrix=1.00D-08 within 128 cycles.
 Requested convergence on MAX density matrix=1.00D-06.
 Requested convergence on             energy=1.00D-06.
 No special actions if energy rises.

 Cycle   1  Pass 1  IDiag  1:
 E= -151.927001679979    
 DIIS: error= 6.45D-02 at cycle   1 NSaved=   1.
 NSaved= 1 IEnMin= 1 EnMin= -151.927001679979     IErMin= 1 ErrMin= 6.45D-02
 ErrMax= 6.45D-02  0.00D+00 EMaxC= 1.00D-01 BMatC= 4.00D-01 BMatP= 4.00D-01
 IDIUse=3 WtCom= 3.55D-01 WtEn= 6.45D-01
 Coeff-Com:  0.100D+01
 Coeff-En:   0.100D+01
 Coeff:      0.100D+01
 Gap=     0.519 Goal=   None    Shift=    0.000
 GapD=    0.519 DampG=2.000 DampE=0.500 DampFc=1.0000 IDamp=-1.
 RMSDP=2.51D-03 MaxDP=6.65D-02              OVMax= 1.27D-01

 Cycle   2  Pass 1  IDiag  1:
 E= -152.038820388692     Delta-E=       -0.111818708713 Rises=F Damp=F
 DIIS: error= 4.06D-02 at cycle   2 NSaved=   2.
 NSaved= 2 IEnMin= 2 EnMin= -152.038820388692     IErMin= 2 ErrMin= 4.06D-02
 ErrMax= 4.06D-02  0.00D+00 EMaxC= 1.00D-01 BMatC= 1.13D-01 BMatP= 4.00D-01
 IDIUse=3 WtCom= 5.94D-01 WtEn= 4.06D-01
 Coeff-Com:  0.320D+00 0.680D+00
 Coeff-En:   0.167D+00 0.833D+00
 Coeff:      0.258D+00 0.742D+00
 Gap=     0.657 Goal=   None    Shift=    0.000
 RMSDP=1.32D-03 MaxDP=3.95D-02 DE=-1.12D-01 OVMax= 5.72D-02

 Cycle   3  Pass 1  IDiag  1:
 E= -152.103789060313     Delta-E=       -0.064968671622 Rises=F Damp=F
 DIIS: error= 8.68D-03 at cycle   3 NSaved=   3.
 NSaved= 3 IEnMin= 3 EnMin= -152.103789060313     IErMin= 3 ErrMin= 8.68D-03
 ErrMax= 8.68D-03  0.00D+00 EMaxC= 1.00D-01 BMatC= 5.86D-03 BMatP= 1.13D-01
 IDIUse=3 WtCom= 9.13D-01 WtEn= 8.68D-02
 Coeff-Com: -0.304D-01 0.154D+00 0.877D+00
 Coeff-En:   0.000D+00 0.000D+00 0.100D+01
 Coeff:     -0.278D-01 0.140D+00 0.887D+00
 Gap=     0.630 Goal=   None    Shift=    0.000
 RMSDP=2.41D-04 MaxDP=5.62D-03 DE=-6.50D-02 OVMax= 1.33D-02

 Cycle   4  Pass 1  IDiag  1:
 E= -152.107449113493     Delta-E=       -0.003660053180 Rises=F Damp=F
 DIIS: error= 8.18D-04 at cycle   4 NSaved=   4.
 NSaved= 4 IEnMin= 4 EnMin= -152.107449113493     IErMin= 4 ErrMin= 8.18D-04
 ErrMax= 8.18D-04  0.00D+00 EMaxC= 1.00D-01 BMatC= 3.61D-05 BMatP= 5.86D-03
 IDIUse=3 WtCom= 9.92D-01 WtEn= 8.18D-03
 Coeff-Com:  0.684D-02-0.606D-01-0.242D+00 0.130D+01
 Coeff-En:   0.000D+00 0.000D+00 0.000D+00 0.100D+01
 Coeff:      0.678D-02-0.601D-01-0.240D+00 0.129D+01
 Gap=     0.633 Goal=   None    Shift=    0.000
 RMSDP=5.16D-05 MaxDP=1.02D-03 DE=-3.66D-03 OVMax= 2.24D-03

 Cycle   5  Pass 1  IDiag  1:
 E= -152.107498773495     Delta-E=       -0.000049660001 Rises=F Damp=F
 DIIS: error= 1.90D-04 at cycle   5 NSaved=   5.
 NSaved= 5 IEnMin= 5 EnMin= -152.107498773495     IErMin= 5 ErrMin= 1.90D-04
 ErrMax= 1.90D-04  0.00D+00 EMaxC= 1.00D-01 BMatC= 1.35D-06 BMatP= 3.61D-05
 IDIUse=3 WtCom= 9.98D-01 WtEn= 1.90D-03
 Coeff-Com:  0.542D-03 0.359D-03-0.279D-02-0.218D+00 0.122D+01
 Coeff-En:   0.000D+00 0.000D+00 0.000D+00 0.000D+00 0.100D+01
 Coeff:      0.541D-03 0.358D-03-0.279D-02-0.218D+00 0.122D+01
 Gap=     0.633 Goal=   None    Shift=    0.000
 RMSDP=1.41D-05 MaxDP=2.88D-04 DE=-4.97D-05 OVMax= 6.85D-04

 Cycle   6  Pass 1  IDiag  1:
 E= -152.107501585875     Delta-E=       -0.000002812380 Rises=F Damp=F
 DIIS: error= 2.86D-05 at cycle   6 NSaved=   6.
 NSaved= 6 IEnMin= 6 EnMin= -152.107501585875     IErMin= 6 ErrMin= 2.86D-05
 ErrMax= 2.86D-05  0.00D+00 EMaxC= 1.00D-01 BMatC= 3.38D-08 BMatP= 1.35D-06
 IDIUse=1 WtCom= 1.00D+00 WtEn= 0.00D+00
 Coeff-Com: -0.274D-03 0.158D-02 0.684D-02 0.852D-03-0.261D+00 0.125D+01
 Coeff:     -0.274D-03 0.158D-02 0.684D-02 0.852D-03-0.261D+00 0.125D+01
 Gap=     0.634 Goal=   None    Shift=    0.000
 RMSDP=3.01D-06 MaxDP=6.58D-05 DE=-2.81D-06 OVMax= 1.53D-04

 Cycle   7  Pass 1  IDiag  1:
 E= -152.107501681779     Delta-E=       -0.000000095904 Rises=F Damp=F
 DIIS: error= 5.36D-06 at cycle   7 NSaved=   7.
 NSaved= 7 IEnMin= 7 EnMin= -152.107501681779     IErMin= 7 ErrMin= 5.36D-06
 ErrMax= 5.36D-06  0.00D+00 EMaxC= 1.00D-01 BMatC= 1.77D-09 BMatP= 3.38D-08
 IDIUse=1 WtCom= 1.00D+00 WtEn= 0.00D+00
 Coeff-Com:  0.291D-04-0.376D-03-0.155D-02 0.137D-01-0.150D-01-0.215D+00
 Coeff-Com:  0.122D+01
 Coeff:      0.291D-04-0.376D-03-0.155D-02 0.137D-01-0.150D-01-0.215D+00
 Coeff:      0.122D+01
 Gap=     0.634 Goal=   None    Shift=    0.000
 RMSDP=4.35D-07 MaxDP=9.08D-06 DE=-9.59D-08 OVMax= 3.00D-05

 Cycle   8  Pass 1  IDiag  1:
 E= -152.107501685499     Delta-E=       -0.000000003721 Rises=F Damp=F
 DIIS: error= 1.59D-06 at cycle   8 NSaved=   8.
 NSaved= 8 IEnMin= 8 EnMin= -152.107501685499     IErMin= 8 ErrMin= 1.59D-06
 ErrMax= 1.59D-06  0.00D+00 EMaxC= 1.00D-01 BMatC= 1.16D-10 BMatP= 1.77D-09
 IDIUse=1 WtCom= 1.00D+00 WtEn= 0.00D+00
 Coeff-Com:  0.105D-04-0.292D-04-0.105D-03-0.245D-02 0.174D-01-0.350D-01
 Coeff-Com: -0.173D+00 0.119D+01
 Coeff:      0.105D-04-0.292D-04-0.105D-03-0.245D-02 0.174D-01-0.350D-01
 Coeff:     -0.173D+00 0.119D+01
 Gap=     0.634 Goal=   None    Shift=    0.000
 RMSDP=1.04D-07 MaxDP=2.48D-06 DE=-3.72D-09 OVMax= 6.77D-06

 Cycle   9  Pass 1  IDiag  1:
 E= -152.107501685721     Delta-E=       -0.000000000222 Rises=F Damp=F
 DIIS: error= 4.82D-07 at cycle   9 NSaved=   9.
 NSaved= 9 IEnMin= 9 EnMin= -152.107501685721     IErMin= 9 ErrMin= 4.82D-07
 ErrMax= 4.82D-07  0.00D+00 EMaxC= 1.00D-01 BMatC= 2.03D-11 BMatP= 1.16D-10
 IDIUse=1 WtCom= 1.00D+00 WtEn= 0.00D+00
 Coeff-Com:  0.653D-06 0.292D-04 0.128D-03-0.234D-02 0.808D-02 0.829D-02
 Coeff-Com: -0.176D+00 0.387D+00 0.774D+00
 Coeff:      0.653D-06 0.292D-04 0.128D-03-0.234D-02 0.808D-02 0.829D-02
 Coeff:     -0.176D+00 0.387D+00 0.774D+00
 Gap=     0.634 Goal=   None    Shift=    0.000
 RMSDP=2.55D-08 MaxDP=5.75D-07 DE=-2.22D-10 OVMax= 1.69D-06

 Cycle  10  Pass 1  IDiag  1:
 E= -152.107501685740     Delta-E=       -0.000000000020 Rises=F Damp=F
 DIIS: error= 1.00D-07 at cycle  10 NSaved=  10.
 NSaved=10 IEnMin=10 EnMin= -152.107501685740     IErMin=10 ErrMin= 1.00D-07
 ErrMax= 1.00D-07  0.00D+00 EMaxC= 1.00D-01 BMatC= 4.82D-13 BMatP= 2.03D-11
 IDIUse=1 WtCom= 1.00D+00 WtEn= 0.00D+00
 Coeff-Com: -0.579D-06-0.419D-05-0.217D-04 0.552D-03-0.202D-02-0.173D-02
 Coeff-Com:  0.503D-01-0.155D+00-0.176D+00 0.128D+01
 Coeff:     -0.579D-06-0.419D-05-0.217D-04 0.552D-03-0.202D-02-0.173D-02
 Coeff:      0.503D-01-0.155D+00-0.176D+00 0.128D+01
 Gap=     0.634 Goal=   None    Shift=    0.000
 RMSDP=7.22D-09 MaxDP=2.06D-07 DE=-1.98D-11 OVMax= 4.32D-07

 SCF Done:  E(RHF) =  -152.107501686     A.U. after   10 cycles
            NFock= 10  Conv=0.72D-08     -V/T= 2.0020
 KE= 1.518044581433D+02 PE=-4.156754376623D+02 EE= 8.465980825646D+01
 Leave Link  502 at Sat Aug 27 03:22:54 2022, MaxMem=   536870912 cpu:               3.8 elap:               1.1
 (Enter /usr/site/hpc/x86_64/glibc-2.17/broadwell/gaussian/g16_a.03/pgi-16.5/g16/l801.exe)
 Windowed orbitals will be sorted by symmetry type.
 ExpMin= 1.03D-01 ExpMax= 1.53D+04 ExpMxC= 5.22D+02 IAcc=3 IRadAn=         5 AccDes= 0.00D+00
 HarFok:  IExCor=  205 AccDes= 0.00D+00 IRadAn=         5 IDoV=-2 UseB2=F ITyADJ=14
 ICtDFT= 12500011 ScaDFX=  1.000000  1.000000  1.000000  1.000000
 Largest valence mixing into a core orbital is  1.12D-04
 Largest core mixing into a valence orbital is  1.77D-05
 Range of M.O.s used for correlation:     3   116
 NBasis=   116 NAE=    10 NBE=    10 NFC=     2 NFV=     0
 NROrb=    114 NOA=     8 NOB=     8 NVA=   106 NVB=   106
 Leave Link  801 at Sat Aug 27 03:22:54 2022, MaxMem=   536870912 cpu:               0.3 elap:               0.1
 (Enter /usr/site/hpc/x86_64/glibc-2.17/broadwell/gaussian/g16_a.03/pgi-16.5/g16/l804.exe)
 Closed-shell transformation, MDV=   536870912 ITran=4 ISComp=2.
 Unit  1 TFree=        834515 TCopy=        406125.
 Semi-Direct transformation.
 ModeAB=           4 MOrb=             8 LenV=     536379120
 LASXX=      2873146 LTotXX=     2873146 LenRXX=     5831278
 LTotAB=     2958132 MaxLAS=     5137296 LenRXY=           0
 NonZer=     8704424 LenScr=    13107200 LnRSAI=     5137296
 LnScr1=     7864320 LExtra=           0 Total=     31940094
 MaxDsk=          -1 SrtSym=           T ITran=            4
 DoSDTr:  NPSUse=  4
 JobTyp=0 Pass  1:  I=   1 to   8.
 (rs|ai) integrals will be sorted in core.
 Complete sort for first half transformation.
 First half transformation complete.
 Complete sort for second half transformation.
 Second half transformation complete.
 Spin components of T(2) and E(2):
     alpha-alpha T2 =       0.1555933877D-01 E2=     -0.6379955321D-01
     alpha-beta  T2 =       0.9190596210D-01 E2=     -0.3982905884D+00
     beta-beta   T2 =       0.1555933877D-01 E2=     -0.6379955321D-01
 ANorm=    0.1059728569D+01
 E2 =    -0.5258896949D+00 EUMP2 =    -0.15263339138060D+03
 Leave Link  804 at Sat Aug 27 03:22:55 2022, MaxMem=   536870912 cpu:               2.9 elap:               0.8
 (Enter /usr/site/hpc/x86_64/glibc-2.17/broadwell/gaussian/g16_a.03/pgi-16.5/g16/l913.exe)
 CIDS:  MDV=   536870912.
 Frozen-core window:  NFC=   2 NFV=   0.
 IFCWin=0 IBDFC=1 NFBD=     0     0 NFCmp=     0     0 NFFFC=     0     0
 Using DD3R+UMP44R for 1st iteration.
 Using DD4RQ for 2nd and later iterations.
 Keep R2 and R3 ints in memory in symmetry-blocked form, NReq=35357534.
 FoFCou: FMM=F IPFlag=           0 FMFlag=           0 FMFlg1=           0
         NFxFlg=           0 DoJE=F BraDBF=F KetDBF=F FulRan=T
         wScrn=  0.000000 ICntrl=       600 IOpCl=  0 I1Cent=           0 NGrid=           0
         NMat0=    1 NMatS0=   6786 NMatT0=    0 NMatD0=    1 NMtDS0=    0 NMtDT0=    0
 Petite list used in FoFCou.
 CIDS: In Core Option IDoMem=           1.
 CCSD(T)
 =======
 Iterations=  50 Convergence= 0.100D-06
 Produce multiple copies of IABC intergrals
 Iteration Nr.   1
 **********************
 DD1Dir will call FoFMem   1 times, MxPair=        72
 NAB=    36 NAA=     0 NBB=     0.
 MP4(R+Q)=  0.75531196D-02
 Maximum subspace dimension=  5
 A-vector RMS=  1.7416835D-03 Max=  6.1980712D-03 conv= 1.00D-05.
 RLE energy=       -0.5258352641
 E3=       -0.75698830D-02        EUMP3=      -0.15264096126D+03
 E4(DQ)=   -0.15517218D-02        UMP4(DQ)=   -0.15264251299D+03
 E4(SDQ)=  -0.46067101D-02        UMP4(SDQ)=  -0.15264556797D+03
 VARIATIONAL ENERGIES WITH THE FIRST-ORDER WAVEFUNCTION:
 DE(Corr)= -0.52583527     E(Corr)=     -152.63333695    
 NORM(A)=   0.10600972D+01
 Iteration Nr.   2
 **********************
 DD1Dir will call FoFMem   1 times, MxPair=        72
 NAB=    36 NAA=     0 NBB=     0.
 A-vector RMS=  2.1224751D-04 Max=  2.3218381D-03 conv= 1.00D-05.
 RLE energy=       -0.5368955902
 DE(Corr)= -0.53573534     E(CORR)=     -152.64323703     Delta=-9.90D-03
 NORM(A)=   0.10638452D+01
 Iteration Nr.   3
 **********************
 DD1Dir will call FoFMem   1 times, MxPair=        72
 NAB=    36 NAA=     0 NBB=     0.
 A-vector RMS=  1.4109104D-04 Max=  8.7558488D-04 conv= 1.00D-05.
 RLE energy=       -0.5373912672
 DE(Corr)= -0.53680556     E(CORR)=     -152.64430725     Delta=-1.07D-03
 NORM(A)=   0.10644833D+01
 Iteration Nr.   4
 **********************
 DD1Dir will call FoFMem   1 times, MxPair=        72
 NAB=    36 NAA=     0 NBB=     0.
 A-vector RMS=  2.5843303D-05 Max=  1.4164325D-04 conv= 1.00D-05.
 RLE energy=       -0.5374744476
 DE(Corr)= -0.53743914     E(CORR)=     -152.64494082     Delta=-6.34D-04
 NORM(A)=   0.10645940D+01
 Iteration Nr.   5
 **********************
 DD1Dir will call FoFMem   1 times, MxPair=        72
 NAB=    36 NAA=     0 NBB=     0.
 A-vector RMS=  1.8739158D-05 Max=  1.6284294D-04 conv= 1.00D-05.
 RLE energy=       -0.5374828061
 DE(Corr)= -0.53747604     E(CORR)=     -152.64497773     Delta=-3.69D-05
 NORM(A)=   0.10646035D+01
 Iteration Nr.   6
 **********************
 DD1Dir will call FoFMem   1 times, MxPair=        72
 NAB=    36 NAA=     0 NBB=     0.
 A-vector RMS=  5.5303795D-06 Max=  4.2985180D-05 conv= 1.00D-05.
 RLE energy=       -0.5374736376
 DE(Corr)= -0.53747922     E(CORR)=     -152.64498090     Delta=-3.17D-06
 NORM(A)=   0.10646036D+01
 Iteration Nr.   7
 **********************
 DD1Dir will call FoFMem   1 times, MxPair=        72
 NAB=    36 NAA=     0 NBB=     0.
 A-vector RMS=  2.6555079D-06 Max=  2.3480694D-05 conv= 1.00D-05.
 RLE energy=       -0.5374803802
 DE(Corr)= -0.53747936     E(CORR)=     -152.64498105     Delta=-1.44D-07
 NORM(A)=   0.10646060D+01
 Iteration Nr.   8
 **********************
 DD1Dir will call FoFMem   1 times, MxPair=        72
 NAB=    36 NAA=     0 NBB=     0.
 A-vector RMS=  5.2452510D-07 Max=  4.4923818D-06 conv= 1.00D-05.
 RLE energy=       -0.5374787619
 DE(Corr)= -0.53747893     E(CORR)=     -152.64498061     Delta= 4.32D-07
 NORM(A)=   0.10646061D+01
 Iteration Nr.   9
 **********************
 DD1Dir will call FoFMem   1 times, MxPair=        72
 NAB=    36 NAA=     0 NBB=     0.
 A-vector RMS=  1.2169782D-07 Max=  8.1462670D-07 conv= 1.00D-05.
 RLE energy=       -0.5374792398
 DE(Corr)= -0.53747921     E(CORR)=     -152.64498090     Delta=-2.86D-07
 NORM(A)=   0.10646064D+01
 Iteration Nr.  10
 **********************
 DD1Dir will call FoFMem   1 times, MxPair=        72
 NAB=    36 NAA=     0 NBB=     0.
 A-vector RMS=  4.3612943D-08 Max=  3.5730039D-07 conv= 1.00D-05.
 RLE energy=       -0.5374792174
 DE(Corr)= -0.53747919     E(CORR)=     -152.64498088     Delta= 2.01D-08
 NORM(A)=   0.10646064D+01
 CI/CC converged in   10 iterations to DelEn= 2.01D-08 Conv= 1.00D-07 ErrA1= 4.36D-08 Conv= 1.00D-05
 Wavefunction amplitudes converged. E(Corr)=     -152.64498088    
 Largest amplitude= 4.79D-02
 IPart=  4 IA=    7   11.05% done.
 IPart=  1 IA=   13   21.46% done.
 IPart=  4 IA=   19   31.21% done.
 IPart=  2 IA=   25   40.32% done.
 IPart=  4 IA=   32   50.13% done.
 IPart=  4 IA=   40   60.27% done.
 IPart=  4 IA=   49   70.30% done.
 IPart=  2 IA=   60   80.58% done.
 IPart=  1 IA=   74   90.51% done.
 Time for triples=       76.35 seconds.
 T4(CCSD)= -0.16030137D-01
 T5(CCSD)=  0.40303965D-03
 CCSD(T)= -0.15266060798D+03
 Discarding MO integrals.
 Leave Link  913 at Sat Aug 27 03:23:22 2022, MaxMem=   536870912 cpu:             103.9 elap:              27.2
 (Enter /usr/site/hpc/x86_64/glibc-2.17/broadwell/gaussian/g16_a.03/pgi-16.5/g16/l601.exe)
 Copying SCF densities to generalized density rwf, IOpCl= 0 IROHF=0.

 **********************************************************************

            Population analysis using the SCF density.

 **********************************************************************

 Orbital symmetries:
       Occupied  (A') (A') (A') (A') (A') (A') (A') (A') (A") (A")
       Virtual   (A') (A') (A') (A') (A') (A') (A') (A') (A') (A')
                 (A") (A") (A') (A') (A') (A') (A") (A") (A") (A")
                 (A') (A') (A') (A') (A') (A') (A') (A') (A") (A")
                 (A") (A") (A') (A') (A') (A') (A') (A') (A') (A')
                 (A') (A') (A") (A") (A') (A') (A") (A") (A') (A')
                 (A") (A") (A') (A') (A') (A') (A") (A") (A") (A")
                 (A') (A') (A') (A') (A") (A") (A') (A') (A') (A')
                 (A") (A") (A') (A') (A') (A') (A') (A') (A') (A')
                 (A") (A") (A') (A') (A") (A") (A") (A") (A') (A')
                 (A") (A") (A') (A') (A') (A') (A") (A") (A') (A')
                 (A') (A') (A') (A') (A') (A')
 The electronic state is 1-A'.
 Alpha  occ. eigenvalues --  -20.55641 -20.55010  -1.32940  -1.32308  -0.70346
 Alpha  occ. eigenvalues --   -0.69703  -0.56392  -0.55755  -0.50052  -0.49422
 Alpha virt. eigenvalues --    0.13929   0.14749   0.20108   0.20829   0.54202
 Alpha virt. eigenvalues --    0.54860   0.57140   0.57754   0.67547   0.68705
 Alpha virt. eigenvalues --    0.78830   0.79446   0.80248   0.80761   0.82454
 Alpha virt. eigenvalues --    0.82876   0.84712   0.85338   0.97149   0.97766
 Alpha virt. eigenvalues --    1.14555   1.15425   1.17025   1.17674   1.51568
 Alpha virt. eigenvalues --    1.51854   1.52209   1.52544   2.00564   2.01194
 Alpha virt. eigenvalues --    2.06628   2.07266   2.09285   2.09956   2.14750
 Alpha virt. eigenvalues --    2.15394   2.24821   2.25639   2.61383   2.62034
 Alpha virt. eigenvalues --    2.92749   2.93431   3.39250   3.39887   3.49807
 Alpha virt. eigenvalues --    3.50445   3.53002   3.53631   3.59380   3.60022
 Alpha virt. eigenvalues --    3.78545   3.79176   3.85308   3.85949   3.87506
 Alpha virt. eigenvalues --    3.88136   3.93455   3.94093   4.02912   4.03542
 Alpha virt. eigenvalues --    4.08067   4.08710   4.15128   4.15793   4.29993
 Alpha virt. eigenvalues --    4.30625   4.39792   4.40435   4.45445   4.46088
 Alpha virt. eigenvalues --    4.66399   4.67027   4.80757   4.81405   5.04085
 Alpha virt. eigenvalues --    5.04742   5.23957   5.24595   5.53917   5.54554
 Alpha virt. eigenvalues --    5.97800   5.98432   6.40263   6.40893   6.86052
 Alpha virt. eigenvalues --    6.86687   6.89533   6.90167   6.94464   6.95100
 Alpha virt. eigenvalues --    6.98998   6.99631   7.07760   7.08404   7.12392
 Alpha virt. eigenvalues --    7.13006   7.18166   7.18803   7.47062   7.47711
 Alpha virt. eigenvalues --    7.70190   7.70830   8.14937   8.15575  12.49140
 Alpha virt. eigenvalues --   12.49814
          Condensed to atoms (all electrons):
               1          2          3          4          5          6
     1  O    7.817282   0.345062   0.347079  -0.000000  -0.000000   0.000020
     2  H    0.345062   0.438517  -0.036623   0.000000   0.000000  -0.000001
     3  H    0.347079  -0.036623   0.433121   0.000000   0.000000  -0.000001
     4  O   -0.000000   0.000000   0.000000   7.817683   0.344581   0.346717
     5  H   -0.000000   0.000000   0.000000   0.344581   0.440863  -0.036663
     6  H    0.000020  -0.000001  -0.000001   0.346717  -0.036663   0.432193
 Mulliken charges:
               1
     1  O   -0.509443
     2  H    0.253045
     3  H    0.256424
     4  O   -0.508981
     5  H    0.251220
     6  H    0.257734
 Sum of Mulliken charges =  -0.00000
 Mulliken charges with hydrogens summed into heavy atoms:
               1
     1  O    0.000027
     4  O   -0.000027
 Electronic spatial extent (au):  <R**2>=            620.5704
 Charge=             -0.0000 electrons
 Dipole moment (field-independent basis, Debye):
    X=             -1.8948    Y=             -1.4845    Z=              0.0000  Tot=              2.4071
 Quadrupole moment (field-independent basis, Debye-Ang):
   XX=             -9.7233   YY=              3.9241   ZZ=            -14.7125
   XY=             -5.0735   XZ=              0.0000   YZ=              0.0000
 Traceless Quadrupole moment (field-independent basis, Debye-Ang):
   XX=             -2.8861   YY=             10.7613   ZZ=             -7.8752
   XY=             -5.0735   XZ=              0.0000   YZ=              0.0000
 Octapole moment (field-independent basis, Debye-Ang**2):
  XXX=             -0.9380  YYY=            -18.4616  ZZZ=              0.0000  XYY=            -13.1660
  XXY=             -7.5469  XXZ=              0.0000  XZZ=             -0.2478  YZZ=             -0.2026
  YYZ=              0.0000  XYZ=              0.0000
 Hexadecapole moment (field-independent basis, Debye-Ang**3):
 XXXX=            -11.8666 YYYY=           -262.0637 ZZZZ=            -11.3367 XXXY=              1.1013
 XXXZ=              0.0000 YYYX=            -40.5882 YYYZ=              0.0000 ZZZX=              0.0000
 ZZZY=              0.0000 XXYY=            -78.3696 XXZZ=             -4.3962 YYZZ=           -124.5077
 XXYZ=              0.0000 YYXZ=              0.0000 ZZXY=              1.5302
 N-N= 2.710366957684D+01 E-N=-4.156754364040D+02  KE= 1.518044581433D+02
 Symmetry A'   KE= 1.427675056364D+02
 Symmetry A"   KE= 9.036952506873D+00
 Leave Link  601 at Sat Aug 27 03:23:23 2022, MaxMem=   536870912 cpu:               0.1 elap:               0.1
 (Enter /usr/site/hpc/x86_64/glibc-2.17/broadwell/gaussian/g16_a.03/pgi-16.5/g16/l9999.exe)
 1\1\GINC-N003\SP\RCCSD(T)-FC\CC-pVTZ\H4O2\C7441284\27-Aug-2022\0\\#p C
 CSD(T)/cc-pVTZ\\H2O_H2O_3795\\0,1\O,0,0.,-0.009833,0.\H,0,-0.799571,-0
 .580965,0.\H,0,0.799571,-0.580965,0.\O,0,-0.009498,5.605441,0.\H,0,-0.
 354225,6.525588,0.\H,0,-0.768113,4.980934,0.\\Version=ES64L-G16RevA.03
 \State=1-A'\HF=-152.1075017\MP2=-152.6333914\MP3=-152.6409613\MP4D=-15
 2.6500661\MP4DQ=-152.642513\MP4SDQ=-152.645568\CCSD=-152.6449809\CCSD(
 T)=-152.660608\RMSD=7.223e-09\PG=CS [SG(H4O2)]\\@


 MORNING PEOPLE ARE USUALLY ADMIRED AS EARLY BIRDS.
 RECALL BEN FRANKLIN'S APHORISM THAT THE EARLY BIRD GETS THE WORM.
 I IDENTIFY WITH THE WORM. --  CRAIG JAGGER, MINNEAPOLIS, KS.
 Job cpu time:       0 days  0 hours  1 minutes 53.4 seconds.
 Elapsed time:       0 days  0 hours  0 minutes 29.9 seconds.
 File lengths (MBytes):  RWF=    316 Int=      0 D2E=      0 Chk=      8 Scr=      8
 Normal termination of Gaussian 16 at Sat Aug 27 03:23:23 2022.
