 Entering Gaussian System, Link 0=g16
 Input=H2O_H2O_992.com
 Output=H2O_H2O_992.log
 Initial command:
 /usr/site/hpc/x86_64/glibc-2.17/broadwell/gaussian/g16_a.03/pgi-16.5/g16/l1.exe "/gpfs/gpfs1/scratch/c7441284/ForceFieldModel/FittingData/Gau-3496208.inp" -scrdir="/gpfs/gpfs1/scratch/c7441284/ForceFieldModel/FittingData/"
 Entering Link 1 = /usr/site/hpc/x86_64/glibc-2.17/broadwell/gaussian/g16_a.03/pgi-16.5/g16/l1.exe PID=   3496209.
  
 Copyright (c) 1988,1990,1992,1993,1995,1998,2003,2009,2016,
            Gaussian, Inc.  All Rights Reserved.
  
 This is part of the Gaussian(R) 16 program.  It is based on
 the Gaussian(R) 09 system (copyright 2009, Gaussian, Inc.),
 the Gaussian(R) 03 system (copyright 2003, Gaussian, Inc.),
 the Gaussian(R) 98 system (copyright 1998, Gaussian, Inc.),
 the Gaussian(R) 94 system (copyright 1995, Gaussian, Inc.),
 the Gaussian 92(TM) system (copyright 1992, Gaussian, Inc.),
 the Gaussian 90(TM) system (copyright 1990, Gaussian, Inc.),
 the Gaussian 88(TM) system (copyright 1988, Gaussian, Inc.),
 the Gaussian 86(TM) system (copyright 1986, Carnegie Mellon
 University), and the Gaussian 82(TM) system (copyright 1983,
 Carnegie Mellon University). Gaussian is a federally registered
 trademark of Gaussian, Inc.
  
 This software contains proprietary and confidential information,
 including trade secrets, belonging to Gaussian, Inc.
  
 This software is provided under written license and may be
 used, copied, transmitted, or stored only in accord with that
 written license.
  
 The following legend is applicable only to US Government
 contracts under FAR:
  
                    RESTRICTED RIGHTS LEGEND
  
 Use, reproduction and disclosure by the US Government is
 subject to restrictions as set forth in subparagraphs (a)
 and (c) of the Commercial Computer Software - Restricted
 Rights clause in FAR 52.227-19.
  
 Gaussian, Inc.
 340 Quinnipiac St., Bldg. 40, Wallingford CT 06492
  
  
 ---------------------------------------------------------------
 Warning -- This program may not be used in any manner that
 competes with the business of Gaussian, Inc. or will provide
 assistance to any competitor of Gaussian, Inc.  The licensee
 of this program is prohibited from giving any competitor of
 Gaussian, Inc. access to this program.  By using this program,
 the user acknowledges that Gaussian, Inc. is engaged in the
 business of creating and licensing software in the field of
 computational chemistry and represents and warrants to the
 licensee that it is not a competitor of Gaussian, Inc. and that
 it will not use this program in any manner prohibited above.
 ---------------------------------------------------------------
  

 Cite this work as:
 Gaussian 16, Revision A.03,
 M. J. Frisch, G. W. Trucks, H. B. Schlegel, G. E. Scuseria, 
 M. A. Robb, J. R. Cheeseman, G. Scalmani, V. Barone, 
 G. A. Petersson, H. Nakatsuji, X. Li, M. Caricato, A. V. Marenich, 
 J. Bloino, B. G. Janesko, R. Gomperts, B. Mennucci, H. P. Hratchian, 
 J. V. Ortiz, A. F. Izmaylov, J. L. Sonnenberg, D. Williams-Young, 
 F. Ding, F. Lipparini, F. Egidi, J. Goings, B. Peng, A. Petrone, 
 T. Henderson, D. Ranasinghe, V. G. Zakrzewski, J. Gao, N. Rega, 
 G. Zheng, W. Liang, M. Hada, M. Ehara, K. Toyota, R. Fukuda, 
 J. Hasegawa, M. Ishida, T. Nakajima, Y. Honda, O. Kitao, H. Nakai, 
 T. Vreven, K. Throssell, J. A. Montgomery, Jr., J. E. Peralta, 
 F. Ogliaro, M. J. Bearpark, J. J. Heyd, E. N. Brothers, K. N. Kudin, 
 V. N. Staroverov, T. A. Keith, R. Kobayashi, J. Normand, 
 K. Raghavachari, A. P. Rendell, J. C. Burant, S. S. Iyengar, 
 J. Tomasi, M. Cossi, J. M. Millam, M. Klene, C. Adamo, R. Cammi, 
 J. W. Ochterski, R. L. Martin, K. Morokuma, O. Farkas, 
 J. B. Foresman, and D. J. Fox, Gaussian, Inc., Wallingford CT, 2016.
 
 ******************************************
 Gaussian 16:  ES64L-G16RevA.03 25-Dec-2016
                27-Aug-2022 
 ******************************************
 %NProcShared=4
 Will use up to    4 processors via shared memory.
 %Mem=4GB
 %Chk=H2O_H2O_992.chk
 ------------------
 #p CCSD(T)/cc-pVTZ
 ------------------
 1/38=1,172=1/1;
 2/12=2,17=6,18=5,40=1/2;
 3/5=16,6=1,11=9,25=1,30=1/1,2,3;
 4//1;
 5/5=2,38=5/2;
 8/6=4,9=120000,10=1/1,4;
 9/5=7,14=2/13;
 6/7=2,8=2,9=2,10=2/1;
 99/5=1,9=1/99;
 Leave Link    1 at Sat Aug 27 01:13:22 2022, MaxMem=   536870912 cpu:               0.5 elap:               0.2
 (Enter /usr/site/hpc/x86_64/glibc-2.17/broadwell/gaussian/g16_a.03/pgi-16.5/g16/l101.exe)
 -----------
 H2O_H2O_992
 -----------
 Symbolic Z-matrix:
 Charge =  0 Multiplicity = 1
 O                     0.       -0.00983   0. 
 H                    -0.79957  -0.58097   0. 
 H                     0.79957  -0.58097   0. 
 O                    -0.00882   2.62896   0. 
 H                    -0.16741   3.59868   0. 
 H                    -0.87469   2.16445   0. 
 
 ITRead=  0  0  0  0  0  0
 MicOpt= -1 -1 -1 -1 -1 -1
 NAtoms=      6 NQM=        6 NQMF=       0 NMMI=      0 NMMIF=      0
                NMic=       0 NMicF=      0.
                    Isotopes and Nuclear Properties:
 (Nuclear quadrupole moments (NQMom) in fm**2, nuclear magnetic moments (NMagM)
  in nuclear magnetons)

  Atom         1           2           3           4           5           6
 IAtWgt=          16           1           1          16           1           1
 AtmWgt=  15.9949146   1.0078250   1.0078250  15.9949146   1.0078250   1.0078250
 NucSpn=           0           1           1           0           1           1
 AtZEff=  -0.0000000  -0.0000000  -0.0000000  -0.0000000  -0.0000000  -0.0000000
 NQMom=    0.0000000   0.0000000   0.0000000   0.0000000   0.0000000   0.0000000
 NMagM=    0.0000000   2.7928460   2.7928460   0.0000000   2.7928460   2.7928460
 AtZNuc=   8.0000000   1.0000000   1.0000000   8.0000000   1.0000000   1.0000000
 Leave Link  101 at Sat Aug 27 01:13:22 2022, MaxMem=   536870912 cpu:               0.3 elap:               0.2
 (Enter /usr/site/hpc/x86_64/glibc-2.17/broadwell/gaussian/g16_a.03/pgi-16.5/g16/l202.exe)
                          Input orientation:                          
 ---------------------------------------------------------------------
 Center     Atomic      Atomic             Coordinates (Angstroms)
 Number     Number       Type             X           Y           Z
 ---------------------------------------------------------------------
      1          8           0        0.000000   -0.009833    0.000000
      2          1           0       -0.799571   -0.580965    0.000000
      3          1           0        0.799571   -0.580965    0.000000
      4          8           0       -0.008819    2.628962    0.000000
      5          1           0       -0.167410    3.598681    0.000000
      6          1           0       -0.874693    2.164453    0.000000
 ---------------------------------------------------------------------
                    Distance matrix (angstroms):
                    1          2          3          4          5
     1  O    0.000000
     2  H    0.982601   0.000000
     3  H    0.982601   1.599142   0.000000
     4  O    2.638810   3.305892   3.310155   0.000000
     5  H    3.612395   4.227182   4.290046   0.982602   0.000000
     6  H    2.343631   2.746446   3.215662   0.982602   1.599143
                    6
     6  H    0.000000
 Stoichiometry    H4O2
 Framework group  CS[SG(H4O2)]
 Deg. of freedom     9
 Full point group                 CS      NOp   2
 Largest Abelian subgroup         CS      NOp   2
 Largest concise Abelian subgroup C1      NOp   1
                         Standard orientation:                         
 ---------------------------------------------------------------------
 Center     Atomic      Atomic             Coordinates (Angstroms)
 Number     Number       Type             X           Y           Z
 ---------------------------------------------------------------------
      1          8           0        0.051329   -1.287724    0.000000
      2          1           0       -0.750146   -1.856180    0.000000
      3          1           0        0.848987   -1.861525    0.000000
      4          8           0        0.051329    1.351086    0.000000
      5          1           0       -0.104020    2.321330    0.000000
      6          1           0       -0.816092    0.889474    0.000000
 ---------------------------------------------------------------------
 Rotational constants (GHZ):         249.8587896           7.3322341           7.1232001
 Leave Link  202 at Sat Aug 27 01:13:22 2022, MaxMem=   536870912 cpu:               0.2 elap:               0.1
 (Enter /usr/site/hpc/x86_64/glibc-2.17/broadwell/gaussian/g16_a.03/pgi-16.5/g16/l301.exe)
 Standard basis: CC-pVTZ (5D, 7F)
 Ernie: Thresh=  0.10000D-02 Tol=  0.10000D-05 Strict=F.
 Ernie:  6 primitive shells out of 84 were deleted.
 There are    92 symmetry adapted cartesian basis functions of A'  symmetry.
 There are    38 symmetry adapted cartesian basis functions of A"  symmetry.
 There are    80 symmetry adapted basis functions of A'  symmetry.
 There are    36 symmetry adapted basis functions of A"  symmetry.
   116 basis functions,   172 primitive gaussians,   130 cartesian basis functions
    10 alpha electrons       10 beta electrons
       nuclear repulsion energy        36.8731813031 Hartrees.
 IExCor=    0 DFT=F Ex=HF Corr=None ExCW=0 ScaHFX=  1.000000
 ScaDFX=  1.000000  1.000000  1.000000  1.000000 ScalE2=  1.000000  1.000000
 IRadAn=      5 IRanWt=     -1 IRanGd=            0 ICorTp=0 IEmpDi=  4
 NAtoms=    6 NActive=    6 NUniq=    6 SFac= 1.00D+00 NAtFMM=   60 NAOKFM=F Big=F
 Integral buffers will be    131072 words long.
 Raffenetti 1 integral format.
 Two-electron integral symmetry is turned on.
 Leave Link  301 at Sat Aug 27 01:13:22 2022, MaxMem=   536870912 cpu:               0.2 elap:               0.1
 (Enter /usr/site/hpc/x86_64/glibc-2.17/broadwell/gaussian/g16_a.03/pgi-16.5/g16/l302.exe)
 NPDir=0 NMtPBC=     1 NCelOv=     1 NCel=       1 NClECP=     1 NCelD=      1
         NCelK=      1 NCelE2=     1 NClLst=     1 CellRange=     0.0.
 One-electron integrals computed using PRISM.
 One-electron integral symmetry used in STVInt
 NBasis=   116 RedAO= T EigKep=  2.09D-03  NBF=    80    36
 NBsUse=   116 1.00D-06 EigRej= -1.00D+00 NBFU=    80    36
 Leave Link  302 at Sat Aug 27 01:13:22 2022, MaxMem=   536870912 cpu:               0.4 elap:               0.1
 (Enter /usr/site/hpc/x86_64/glibc-2.17/broadwell/gaussian/g16_a.03/pgi-16.5/g16/l303.exe)
 DipDrv:  MaxL=1.
 Leave Link  303 at Sat Aug 27 01:13:22 2022, MaxMem=   536870912 cpu:               0.1 elap:               0.0
 (Enter /usr/site/hpc/x86_64/glibc-2.17/broadwell/gaussian/g16_a.03/pgi-16.5/g16/l401.exe)
 ExpMin= 1.03D-01 ExpMax= 1.53D+04 ExpMxC= 5.22D+02 IAcc=3 IRadAn=         5 AccDes= 0.00D+00
 Harris functional with IExCor=  205 and IRadAn=       5 diagonalized for initial guess.
 HarFok:  IExCor=  205 AccDes= 0.00D+00 IRadAn=         5 IDoV= 1 UseB2=F ITyADJ=14
 ICtDFT=  3500011 ScaDFX=  1.000000  1.000000  1.000000  1.000000
 FoFCou: FMM=F IPFlag=           0 FMFlag=      100000 FMFlg1=           0
         NFxFlg=           0 DoJE=T BraDBF=F KetDBF=T FulRan=T
         wScrn=  0.000000 ICntrl=       500 IOpCl=  0 I1Cent=   200000004 NGrid=           0
         NMat0=    1 NMatS0=      1 NMatT0=    0 NMatD0=    1 NMtDS0=    0 NMtDT0=    0
 Petite list used in FoFCou.
 Harris En= -152.300785780935    
 JPrj=0 DoOrth=F DoCkMO=F.
 Initial guess orbital symmetries:
       Occupied  (A') (A') (A') (A') (A') (A') (A') (A') (A") (A")
       Virtual   (A') (A') (A') (A') (A') (A') (A') (A') (A') (A")
                 (A') (A") (A') (A') (A") (A") (A') (A") (A") (A')
                 (A') (A') (A') (A') (A') (A') (A') (A') (A") (A")
                 (A") (A") (A') (A') (A') (A') (A') (A') (A') (A')
                 (A') (A') (A") (A") (A') (A') (A") (A") (A") (A")
                 (A') (A') (A') (A') (A") (A') (A") (A') (A') (A')
                 (A") (A') (A") (A') (A") (A") (A') (A') (A') (A")
                 (A") (A') (A') (A') (A') (A') (A') (A') (A') (A')
                 (A") (A") (A') (A') (A") (A") (A") (A") (A') (A')
                 (A") (A") (A') (A') (A') (A') (A") (A") (A') (A')
                 (A') (A') (A') (A') (A') (A')
 The electronic state of the initial guess is 1-A'.
 Leave Link  401 at Sat Aug 27 01:13:22 2022, MaxMem=   536870912 cpu:               0.8 elap:               0.2
 (Enter /usr/site/hpc/x86_64/glibc-2.17/broadwell/gaussian/g16_a.03/pgi-16.5/g16/l502.exe)
 Keep R1 ints in memory in symmetry-blocked form, NReq=34823457.
 FoFCou: FMM=F IPFlag=           0 FMFlag=           0 FMFlg1=           0
         NFxFlg=           0 DoJE=F BraDBF=F KetDBF=F FulRan=T
         wScrn=  0.000000 ICntrl=       600 IOpCl=  0 I1Cent=           0 NGrid=           0
         NMat0=    1 NMatS0=   6786 NMatT0=    0 NMatD0=    1 NMtDS0=    0 NMtDT0=    0
 Petite list used in FoFCou.
 Closed shell SCF:
 Using DIIS extrapolation, IDIIS=  1040.
 NGot=   536870912 LenX=   525040673 LenY=   525023332
 Requested convergence on RMS density matrix=1.00D-08 within 128 cycles.
 Requested convergence on MAX density matrix=1.00D-06.
 Requested convergence on             energy=1.00D-06.
 No special actions if energy rises.

 Cycle   1  Pass 1  IDiag  1:
 E= -151.919994343538    
 DIIS: error= 6.62D-02 at cycle   1 NSaved=   1.
 NSaved= 1 IEnMin= 1 EnMin= -151.919994343538     IErMin= 1 ErrMin= 6.62D-02
 ErrMax= 6.62D-02  0.00D+00 EMaxC= 1.00D-01 BMatC= 4.00D-01 BMatP= 4.00D-01
 IDIUse=3 WtCom= 3.38D-01 WtEn= 6.62D-01
 Coeff-Com:  0.100D+01
 Coeff-En:   0.100D+01
 Coeff:      0.100D+01
 Gap=     0.494 Goal=   None    Shift=    0.000
 GapD=    0.494 DampG=2.000 DampE=0.500 DampFc=1.0000 IDamp=-1.
 RMSDP=2.83D-03 MaxDP=7.21D-02              OVMax= 1.29D-01

 Cycle   2  Pass 1  IDiag  1:
 E= -152.031640568437     Delta-E=       -0.111646224899 Rises=F Damp=F
 DIIS: error= 4.15D-02 at cycle   2 NSaved=   2.
 NSaved= 2 IEnMin= 2 EnMin= -152.031640568437     IErMin= 2 ErrMin= 4.15D-02
 ErrMax= 4.15D-02  0.00D+00 EMaxC= 1.00D-01 BMatC= 1.15D-01 BMatP= 4.00D-01
 IDIUse=3 WtCom= 5.85D-01 WtEn= 4.15D-01
 Coeff-Com:  0.321D+00 0.679D+00
 Coeff-En:   0.171D+00 0.829D+00
 Coeff:      0.259D+00 0.741D+00
 Gap=     0.634 Goal=   None    Shift=    0.000
 RMSDP=1.53D-03 MaxDP=4.22D-02 DE=-1.12D-01 OVMax= 6.06D-02

 Cycle   3  Pass 1  IDiag  1:
 E= -152.098109909932     Delta-E=       -0.066469341496 Rises=F Damp=F
 DIIS: error= 9.16D-03 at cycle   3 NSaved=   3.
 NSaved= 3 IEnMin= 3 EnMin= -152.098109909932     IErMin= 3 ErrMin= 9.16D-03
 ErrMax= 9.16D-03  0.00D+00 EMaxC= 1.00D-01 BMatC= 6.18D-03 BMatP= 1.15D-01
 IDIUse=3 WtCom= 9.08D-01 WtEn= 9.16D-02
 Coeff-Com: -0.314D-01 0.156D+00 0.875D+00
 Coeff-En:   0.000D+00 0.000D+00 0.100D+01
 Coeff:     -0.286D-01 0.142D+00 0.887D+00
 Gap=     0.606 Goal=   None    Shift=    0.000
 RMSDP=2.73D-04 MaxDP=6.58D-03 DE=-6.65D-02 OVMax= 1.37D-02

 Cycle   4  Pass 1  IDiag  1:
 E= -152.101996723734     Delta-E=       -0.003886813802 Rises=F Damp=F
 DIIS: error= 8.75D-04 at cycle   4 NSaved=   4.
 NSaved= 4 IEnMin= 4 EnMin= -152.101996723734     IErMin= 4 ErrMin= 8.75D-04
 ErrMax= 8.75D-04  0.00D+00 EMaxC= 1.00D-01 BMatC= 4.07D-05 BMatP= 6.18D-03
 IDIUse=3 WtCom= 9.91D-01 WtEn= 8.75D-03
 Coeff-Com:  0.697D-02-0.621D-01-0.240D+00 0.130D+01
 Coeff-En:   0.000D+00 0.000D+00 0.000D+00 0.100D+01
 Coeff:      0.691D-02-0.615D-01-0.238D+00 0.129D+01
 Gap=     0.609 Goal=   None    Shift=    0.000
 RMSDP=5.44D-05 MaxDP=1.09D-03 DE=-3.89D-03 OVMax= 2.90D-03

 Cycle   5  Pass 1  IDiag  1:
 E= -152.102052438163     Delta-E=       -0.000055714429 Rises=F Damp=F
 DIIS: error= 1.97D-04 at cycle   5 NSaved=   5.
 NSaved= 5 IEnMin= 5 EnMin= -152.102052438163     IErMin= 5 ErrMin= 1.97D-04
 ErrMax= 1.97D-04  0.00D+00 EMaxC= 1.00D-01 BMatC= 1.46D-06 BMatP= 4.07D-05
 IDIUse=3 WtCom= 9.98D-01 WtEn= 1.97D-03
 Coeff-Com:  0.683D-03-0.714D-03-0.686D-02-0.186D+00 0.119D+01
 Coeff-En:   0.000D+00 0.000D+00 0.000D+00 0.000D+00 0.100D+01
 Coeff:      0.681D-03-0.713D-03-0.684D-02-0.185D+00 0.119D+01
 Gap=     0.609 Goal=   None    Shift=    0.000
 RMSDP=1.42D-05 MaxDP=2.89D-04 DE=-5.57D-05 OVMax= 7.70D-04

 Cycle   6  Pass 1  IDiag  1:
 E= -152.102055365563     Delta-E=       -0.000002927400 Rises=F Damp=F
 DIIS: error= 3.37D-05 at cycle   6 NSaved=   6.
 NSaved= 6 IEnMin= 6 EnMin= -152.102055365563     IErMin= 6 ErrMin= 3.37D-05
 ErrMax= 3.37D-05  0.00D+00 EMaxC= 1.00D-01 BMatC= 4.39D-08 BMatP= 1.46D-06
 IDIUse=1 WtCom= 1.00D+00 WtEn= 0.00D+00
 Coeff-Com: -0.294D-03 0.195D-02 0.807D-02-0.182D-01-0.200D+00 0.121D+01
 Coeff:     -0.294D-03 0.195D-02 0.807D-02-0.182D-01-0.200D+00 0.121D+01
 Gap=     0.610 Goal=   None    Shift=    0.000
 RMSDP=3.60D-06 MaxDP=9.75D-05 DE=-2.93D-06 OVMax= 1.61D-04

 Cycle   7  Pass 1  IDiag  1:
 E= -152.102055480893     Delta-E=       -0.000000115330 Rises=F Damp=F
 DIIS: error= 5.62D-06 at cycle   7 NSaved=   7.
 NSaved= 7 IEnMin= 7 EnMin= -152.102055480893     IErMin= 7 ErrMin= 5.62D-06
 ErrMax= 5.62D-06  0.00D+00 EMaxC= 1.00D-01 BMatC= 3.73D-09 BMatP= 4.39D-08
 IDIUse=1 WtCom= 1.00D+00 WtEn= 0.00D+00
 Coeff-Com: -0.459D-04 0.416D-04 0.309D-03 0.135D-01-0.847D-01 0.727D-01
 Coeff-Com:  0.998D+00
 Coeff:     -0.459D-04 0.416D-04 0.309D-03 0.135D-01-0.847D-01 0.727D-01
 Coeff:      0.998D+00
 Gap=     0.610 Goal=   None    Shift=    0.000
 RMSDP=5.98D-07 MaxDP=1.58D-05 DE=-1.15D-07 OVMax= 3.60D-05

 Cycle   8  Pass 1  IDiag  1:
 E= -152.102055486450     Delta-E=       -0.000000005556 Rises=F Damp=F
 DIIS: error= 2.62D-06 at cycle   8 NSaved=   8.
 NSaved= 8 IEnMin= 8 EnMin= -152.102055486450     IErMin= 8 ErrMin= 2.62D-06
 ErrMax= 2.62D-06  0.00D+00 EMaxC= 1.00D-01 BMatC= 5.67D-10 BMatP= 3.73D-09
 IDIUse=1 WtCom= 1.00D+00 WtEn= 0.00D+00
 Coeff-Com:  0.241D-04-0.233D-03-0.916D-03 0.583D-02 0.206D-02-0.116D+00
 Coeff-Com:  0.224D+00 0.885D+00
 Coeff:      0.241D-04-0.233D-03-0.916D-03 0.583D-02 0.206D-02-0.116D+00
 Coeff:      0.224D+00 0.885D+00
 Gap=     0.610 Goal=   None    Shift=    0.000
 RMSDP=1.70D-07 MaxDP=4.45D-06 DE=-5.56D-09 OVMax= 1.12D-05

 Cycle   9  Pass 1  IDiag  1:
 E= -152.102055487172     Delta-E=       -0.000000000722 Rises=F Damp=F
 DIIS: error= 1.10D-06 at cycle   9 NSaved=   9.
 NSaved= 9 IEnMin= 9 EnMin= -152.102055487172     IErMin= 9 ErrMin= 1.10D-06
 ErrMax= 1.10D-06  0.00D+00 EMaxC= 1.00D-01 BMatC= 3.72D-11 BMatP= 5.67D-10
 IDIUse=1 WtCom= 1.00D+00 WtEn= 0.00D+00
 Coeff-Com:  0.288D-05 0.203D-04 0.844D-04-0.245D-02 0.102D-01 0.456D-02
 Coeff-Com: -0.137D+00-0.915D-01 0.122D+01
 Coeff:      0.288D-05 0.203D-04 0.844D-04-0.245D-02 0.102D-01 0.456D-02
 Coeff:     -0.137D+00-0.915D-01 0.122D+01
 Gap=     0.610 Goal=   None    Shift=    0.000
 RMSDP=6.49D-08 MaxDP=1.19D-06 DE=-7.22D-10 OVMax= 3.55D-06

 Cycle  10  Pass 1  IDiag  1:
 E= -152.102055487245     Delta-E=       -0.000000000073 Rises=F Damp=F
 DIIS: error= 1.25D-07 at cycle  10 NSaved=  10.
 NSaved=10 IEnMin=10 EnMin= -152.102055487245     IErMin=10 ErrMin= 1.25D-07
 ErrMax= 1.25D-07  0.00D+00 EMaxC= 1.00D-01 BMatC= 8.54D-13 BMatP= 3.72D-11
 IDIUse=1 WtCom= 1.00D+00 WtEn= 0.00D+00
 Coeff-Com: -0.100D-05 0.338D-05 0.103D-04 0.183D-03-0.114D-02 0.355D-03
 Coeff-Com:  0.198D-01-0.366D-02-0.243D+00 0.123D+01
 Coeff:     -0.100D-05 0.338D-05 0.103D-04 0.183D-03-0.114D-02 0.355D-03
 Coeff:      0.198D-01-0.366D-02-0.243D+00 0.123D+01
 Gap=     0.610 Goal=   None    Shift=    0.000
 RMSDP=9.97D-09 MaxDP=1.63D-07 DE=-7.34D-11 OVMax= 5.98D-07

 SCF Done:  E(RHF) =  -152.102055487     A.U. after   10 cycles
            NFock= 10  Conv=0.10D-07     -V/T= 2.0018
 KE= 1.518350463190D+02 PE=-4.354661413776D+02 EE= 9.465585826835D+01
 Leave Link  502 at Sat Aug 27 01:13:24 2022, MaxMem=   536870912 cpu:               4.0 elap:               1.1
 (Enter /usr/site/hpc/x86_64/glibc-2.17/broadwell/gaussian/g16_a.03/pgi-16.5/g16/l801.exe)
 Windowed orbitals will be sorted by symmetry type.
 ExpMin= 1.03D-01 ExpMax= 1.53D+04 ExpMxC= 5.22D+02 IAcc=3 IRadAn=         5 AccDes= 0.00D+00
 HarFok:  IExCor=  205 AccDes= 0.00D+00 IRadAn=         5 IDoV=-2 UseB2=F ITyADJ=14
 ICtDFT= 12500011 ScaDFX=  1.000000  1.000000  1.000000  1.000000
 Largest valence mixing into a core orbital is  1.12D-04
 Largest core mixing into a valence orbital is  1.79D-05
 Range of M.O.s used for correlation:     3   116
 NBasis=   116 NAE=    10 NBE=    10 NFC=     2 NFV=     0
 NROrb=    114 NOA=     8 NOB=     8 NVA=   106 NVB=   106
 Leave Link  801 at Sat Aug 27 01:13:24 2022, MaxMem=   536870912 cpu:               0.3 elap:               0.1
 (Enter /usr/site/hpc/x86_64/glibc-2.17/broadwell/gaussian/g16_a.03/pgi-16.5/g16/l804.exe)
 Closed-shell transformation, MDV=   536870912 ITran=4 ISComp=2.
 Unit  1 TFree=        834515 TCopy=        406125.
 Semi-Direct transformation.
 ModeAB=           2 MOrb=             8 LenV=     536362766
 LASXX=      2873146 LTotXX=     2873146 LenRXX=     2873146
 LTotAB=     2958132 MaxLAS=     7765680 LenRXY=     7765680
 NonZer=     7796688 LenScr=    12058624 LnRSAI=           0
 LnScr1=           0 LExtra=           0 Total=     22697450
 MaxDsk=          -1 SrtSym=           F ITran=            4
 DoSDTr:  NPSUse=  4
 JobTyp=0 Pass  1:  I=   1 to   8.
 (rs|ai) integrals will be sorted in core.
 Complete sort for first half transformation.
 First half transformation complete.
 Complete sort for second half transformation.
 Second half transformation complete.
 Spin components of T(2) and E(2):
     alpha-alpha T2 =       0.1579324133D-01 E2=     -0.6438354304D-01
     alpha-beta  T2 =       0.9260026125D-01 E2=     -0.3998727629D+00
     beta-beta   T2 =       0.1579324133D-01 E2=     -0.6438354304D-01
 ANorm=    0.1060276730D+01
 E2 =    -0.5286398490D+00 EUMP2 =    -0.15263069533620D+03
 Leave Link  804 at Sat Aug 27 01:13:25 2022, MaxMem=   536870912 cpu:               4.6 elap:               1.2
 (Enter /usr/site/hpc/x86_64/glibc-2.17/broadwell/gaussian/g16_a.03/pgi-16.5/g16/l913.exe)
 CIDS:  MDV=   536870912.
 Frozen-core window:  NFC=   2 NFV=   0.
 IFCWin=0 IBDFC=1 NFBD=     0     0 NFCmp=     0     0 NFFFC=     0     0
 Using DD3R+UMP44R for 1st iteration.
 Using DD4RQ for 2nd and later iterations.
 Keep R2 and R3 ints in memory in symmetry-blocked form, NReq=35357534.
 FoFCou: FMM=F IPFlag=           0 FMFlag=           0 FMFlg1=           0
         NFxFlg=           0 DoJE=F BraDBF=F KetDBF=F FulRan=T
         wScrn=  0.000000 ICntrl=       600 IOpCl=  0 I1Cent=           0 NGrid=           0
         NMat0=    1 NMatS0=   6786 NMatT0=    0 NMatD0=    1 NMtDS0=    0 NMtDT0=    0
 Petite list used in FoFCou.
 CIDS: In Core Option IDoMem=           1.
 CCSD(T)
 =======
 Iterations=  50 Convergence= 0.100D-06
 Produce multiple copies of IABC intergrals
 Iteration Nr.   1
 **********************
 DD1Dir will call FoFMem   1 times, MxPair=        72
 NAB=    36 NAA=     0 NBB=     0.
 MP4(R+Q)=  0.77632820D-02
 Maximum subspace dimension=  5
 A-vector RMS=  1.8486931D-03 Max=  7.3198042D-03 conv= 1.00D-05.
 RLE energy=       -0.5279626350
 E3=       -0.71561252D-02        EUMP3=      -0.15263785146D+03
 E4(DQ)=   -0.14345593D-02        UMP4(DQ)=   -0.15263928602D+03
 E4(SDQ)=  -0.46310729D-02        UMP4(SDQ)=  -0.15264248253D+03
 VARIATIONAL ENERGIES WITH THE FIRST-ORDER WAVEFUNCTION:
 DE(Corr)= -0.52796178     E(Corr)=     -152.63001726    
 NORM(A)=   0.10604979D+01
 Iteration Nr.   2
 **********************
 DD1Dir will call FoFMem   1 times, MxPair=        72
 NAB=    36 NAA=     0 NBB=     0.
 A-vector RMS=  2.1012264D-04 Max=  1.3654662D-03 conv= 1.00D-05.
 RLE energy=       -0.5391870566
 DE(Corr)= -0.53806684     E(CORR)=     -152.64012233     Delta=-1.01D-02
 NORM(A)=   0.10643326D+01
 Iteration Nr.   3
 **********************
 DD1Dir will call FoFMem   1 times, MxPair=        72
 NAB=    36 NAA=     0 NBB=     0.
 A-vector RMS=  1.7013790D-04 Max=  1.4186789D-03 conv= 1.00D-05.
 RLE energy=       -0.5396943451
 DE(Corr)= -0.53908772     E(CORR)=     -152.64114321     Delta=-1.02D-03
 NORM(A)=   0.10649893D+01
 Iteration Nr.   4
 **********************
 DD1Dir will call FoFMem   1 times, MxPair=        72
 NAB=    36 NAA=     0 NBB=     0.
 A-vector RMS=  3.3987882D-05 Max=  1.8347218D-04 conv= 1.00D-05.
 RLE energy=       -0.5397737936
 DE(Corr)= -0.53973860     E(CORR)=     -152.64179408     Delta=-6.51D-04
 NORM(A)=   0.10651106D+01
 Iteration Nr.   5
 **********************
 DD1Dir will call FoFMem   1 times, MxPair=        72
 NAB=    36 NAA=     0 NBB=     0.
 A-vector RMS=  2.2460157D-05 Max=  2.4131642D-04 conv= 1.00D-05.
 RLE energy=       -0.5397880452
 DE(Corr)= -0.53977971     E(CORR)=     -152.64183520     Delta=-4.11D-05
 NORM(A)=   0.10651263D+01
 Iteration Nr.   6
 **********************
 DD1Dir will call FoFMem   1 times, MxPair=        72
 NAB=    36 NAA=     0 NBB=     0.
 A-vector RMS=  6.8555748D-06 Max=  6.5973439D-05 conv= 1.00D-05.
 RLE energy=       -0.5397788934
 DE(Corr)= -0.53978372     E(CORR)=     -152.64183920     Delta=-4.01D-06
 NORM(A)=   0.10651265D+01
 Iteration Nr.   7
 **********************
 DD1Dir will call FoFMem   1 times, MxPair=        72
 NAB=    36 NAA=     0 NBB=     0.
 A-vector RMS=  2.9086832D-06 Max=  3.0478248D-05 conv= 1.00D-05.
 RLE energy=       -0.5397829500
 DE(Corr)= -0.53978391     E(CORR)=     -152.64183939     Delta=-1.90D-07
 NORM(A)=   0.10651285D+01
 Iteration Nr.   8
 **********************
 DD1Dir will call FoFMem   1 times, MxPair=        72
 NAB=    36 NAA=     0 NBB=     0.
 A-vector RMS=  1.1537432D-06 Max=  1.2173523D-05 conv= 1.00D-05.
 RLE energy=       -0.5397831072
 DE(Corr)= -0.53978337     E(CORR)=     -152.64183885     Delta= 5.42D-07
 NORM(A)=   0.10651289D+01
 Iteration Nr.   9
 **********************
 DD1Dir will call FoFMem   1 times, MxPair=        72
 NAB=    36 NAA=     0 NBB=     0.
 A-vector RMS=  2.2611864D-07 Max=  2.2204343D-06 conv= 1.00D-05.
 RLE energy=       -0.5397833882
 DE(Corr)= -0.53978346     E(CORR)=     -152.64183895     Delta=-9.32D-08
 NORM(A)=   0.10651294D+01
 CI/CC converged in    9 iterations to DelEn=-9.32D-08 Conv= 1.00D-07 ErrA1= 2.26D-07 Conv= 1.00D-05
 Wavefunction amplitudes converged. E(Corr)=     -152.64183895    
 Largest amplitude= 2.81D-02
 IPart=  4 IA=    7   11.05% done.
 IPart=  4 IA=   13   21.46% done.
 IPart=  2 IA=   19   31.21% done.
 IPart=  3 IA=   25   40.32% done.
 IPart=  1 IA=   32   50.13% done.
 IPart=  1 IA=   40   60.27% done.
 IPart=  3 IA=   49   70.30% done.
 IPart=  1 IA=   60   80.58% done.
 IPart=  1 IA=   74   90.51% done.
 Time for triples=       53.22 seconds.
 T4(CCSD)= -0.16445767D-01
 T5(CCSD)=  0.43477220D-03
 CCSD(T)= -0.15265784994D+03
 Discarding MO integrals.
 Leave Link  913 at Sat Aug 27 01:13:44 2022, MaxMem=   536870912 cpu:              75.9 elap:              19.5
 (Enter /usr/site/hpc/x86_64/glibc-2.17/broadwell/gaussian/g16_a.03/pgi-16.5/g16/l601.exe)
 Copying SCF densities to generalized density rwf, IOpCl= 0 IROHF=0.

 **********************************************************************

            Population analysis using the SCF density.

 **********************************************************************

 Orbital symmetries:
       Occupied  (A') (A') (A') (A') (A') (A') (A') (A') (A") (A")
       Virtual   (A') (A') (A') (A') (A') (A') (A') (A') (A') (A")
                 (A') (A') (A') (A") (A") (A") (A') (A") (A") (A')
                 (A') (A') (A') (A') (A') (A') (A') (A') (A") (A")
                 (A") (A") (A') (A') (A') (A') (A') (A') (A') (A')
                 (A') (A') (A") (A") (A') (A') (A") (A") (A') (A')
                 (A") (A") (A') (A') (A") (A') (A") (A') (A") (A")
                 (A') (A') (A') (A') (A") (A") (A') (A') (A') (A')
                 (A") (A") (A') (A') (A') (A') (A') (A') (A') (A')
                 (A") (A") (A') (A') (A") (A") (A") (A") (A') (A")
                 (A") (A') (A') (A') (A') (A') (A") (A") (A') (A')
                 (A') (A') (A') (A') (A') (A')
 The electronic state is 1-A'.
 Alpha  occ. eigenvalues --  -20.55243 -20.53026  -1.32756  -1.30281  -0.70164
 Alpha  occ. eigenvalues --   -0.68000  -0.56181  -0.53112  -0.49879  -0.47327
 Alpha virt. eigenvalues --    0.13632   0.17432   0.19943   0.23890   0.53044
 Alpha virt. eigenvalues --    0.57321   0.58726   0.58814   0.70616   0.75199
 Alpha virt. eigenvalues --    0.76535   0.79446   0.82532   0.82856   0.84899
 Alpha virt. eigenvalues --    0.87237   0.91596   0.98694   1.03044   1.05529
 Alpha virt. eigenvalues --    1.15223   1.16808   1.33283   1.36747   1.51962
 Alpha virt. eigenvalues --    1.52550   1.54555   1.57991   2.00667   2.02922
 Alpha virt. eigenvalues --    2.06935   2.09716   2.14082   2.14914   2.20167
 Alpha virt. eigenvalues --    2.29981   2.32258   2.36556   2.61869   2.69322
 Alpha virt. eigenvalues --    2.93780   2.98367   3.39493   3.41900   3.50190
 Alpha virt. eigenvalues --    3.52554   3.53253   3.55729   3.59276   3.65365
 Alpha virt. eigenvalues --    3.78796   3.81182   3.86900   3.89101   3.93574
 Alpha virt. eigenvalues --    3.94143   3.95748   4.00900   4.04139   4.06841
 Alpha virt. eigenvalues --    4.08335   4.15446   4.18287   4.19389   4.29944
 Alpha virt. eigenvalues --    4.33097   4.43507   4.46134   4.47558   4.55016
 Alpha virt. eigenvalues --    4.66049   4.70534   4.86352   4.88647   5.04765
 Alpha virt. eigenvalues --    5.09204   5.25375   5.31271   5.57030   5.58563
 Alpha virt. eigenvalues --    5.98122   6.00422   6.40319   6.43517   6.86398
 Alpha virt. eigenvalues --    6.88641   6.89855   6.92190   6.94223   6.99352
 Alpha virt. eigenvalues --    7.01692   7.02769   7.09864   7.11026   7.17235
 Alpha virt. eigenvalues --    7.18355   7.18360   7.21062   7.46226   7.54606
 Alpha virt. eigenvalues --    7.71744   7.75860   8.16173   8.23893  12.53602
 Alpha virt. eigenvalues --   12.84622
          Condensed to atoms (all electrons):
               1          2          3          4          5          6
     1  O    7.835268   0.308593   0.333301  -0.014702   0.000394   0.012317
     2  H    0.308593   0.484179  -0.024759   0.001078  -0.000079  -0.001922
     3  H    0.333301  -0.024759   0.440168   0.001646  -0.000076  -0.001174
     4  O   -0.014702   0.001078   0.001646   7.845474   0.314487   0.332847
     5  H    0.000394  -0.000079  -0.000076   0.314487   0.493220  -0.028383
     6  H    0.012317  -0.001922  -0.001174   0.332847  -0.028383   0.434559
 Mulliken charges:
               1
     1  O   -0.475170
     2  H    0.232910
     3  H    0.250895
     4  O   -0.480829
     5  H    0.220438
     6  H    0.251756
 Sum of Mulliken charges =  -0.00000
 Mulliken charges with hydrogens summed into heavy atoms:
               1
     1  O    0.008635
     4  O   -0.008635
 Electronic spatial extent (au):  <R**2>=            173.8983
 Charge=             -0.0000 electrons
 Dipole moment (field-independent basis, Debye):
    X=             -1.6268    Y=             -1.2533    Z=              0.0000  Tot=              2.0536
 Quadrupole moment (field-independent basis, Debye-Ang):
   XX=             -9.5104   YY=             -3.3085   ZZ=            -14.7239
   XY=             -1.8250   XZ=              0.0000   YZ=              0.0000
 Traceless Quadrupole moment (field-independent basis, Debye-Ang):
   XX=             -0.3295   YY=              5.8724   ZZ=             -5.5429
   XY=             -1.8250   XZ=              0.0000   YZ=              0.0000
 Octapole moment (field-independent basis, Debye-Ang**2):
  XXX=             -1.1057  YYY=              0.6860  ZZZ=              0.0000  XYY=             -1.1659
  XXY=             -4.5004  XXZ=              0.0000  XZZ=             -0.1801  YZZ=             -0.2097
  YYZ=              0.0000  XYZ=              0.0000
 Hexadecapole moment (field-independent basis, Debye-Ang**3):
 XXXX=            -11.7016 YYYY=            -94.7162 ZZZZ=            -11.3778 XXXY=             -0.0003
 XXXZ=              0.0000 YYYX=             -1.7515 YYYZ=              0.0000 ZZZX=              0.0000
 ZZZY=              0.0000 XXYY=            -20.2564 XXZZ=             -4.4590 YYZZ=            -32.4529
 XXYZ=              0.0000 YYXZ=              0.0000 ZZXY=              0.5974
 N-N= 3.687318130308D+01 E-N=-4.354661404565D+02  KE= 1.518350463190D+02
 Symmetry A'   KE= 1.428026701861D+02
 Symmetry A"   KE= 9.032376132905D+00
 Leave Link  601 at Sat Aug 27 01:13:44 2022, MaxMem=   536870912 cpu:               0.1 elap:               0.1
 (Enter /usr/site/hpc/x86_64/glibc-2.17/broadwell/gaussian/g16_a.03/pgi-16.5/g16/l9999.exe)
 1\1\GINC-N003\SP\RCCSD(T)-FC\CC-pVTZ\H4O2\C7441284\27-Aug-2022\0\\#p C
 CSD(T)/cc-pVTZ\\H2O_H2O_992\\0,1\O,0,0.,-0.009833,0.\H,0,-0.799571,-0.
 580965,0.\H,0,0.799571,-0.580965,0.\O,0,-0.008819,2.628962,0.\H,0,-0.1
 6741,3.598681,0.\H,0,-0.874693,2.164453,0.\\Version=ES64L-G16RevA.03\S
 tate=1-A'\HF=-152.1020555\MP2=-152.6306953\MP3=-152.6378515\MP4D=-152.
 6470493\MP4DQ=-152.639286\MP4SDQ=-152.6424825\CCSD=-152.6418389\CCSD(T
 )=-152.6578499\RMSD=9.967e-09\PG=CS [SG(H4O2)]\\@


 SACRED COWS MAKE GREAT HAMBURGERS -- ROBERT REISNER
 Job cpu time:       0 days  0 hours  1 minutes 27.6 seconds.
 Elapsed time:       0 days  0 hours  0 minutes 22.9 seconds.
 File lengths (MBytes):  RWF=    572 Int=      0 D2E=      0 Chk=      8 Scr=      8
 Normal termination of Gaussian 16 at Sat Aug 27 01:13:44 2022.
