 Entering Gaussian System, Link 0=g16
 Input=H2O_H2O_1442.com
 Output=H2O_H2O_1442.log
 Initial command:
 /usr/site/hpc/x86_64/glibc-2.17/broadwell/gaussian/g16_a.03/pgi-16.5/g16/l1.exe "/gpfs/gpfs1/scratch/c7441284/ForceFieldModel/FittingData/Gau-3610231.inp" -scrdir="/gpfs/gpfs1/scratch/c7441284/ForceFieldModel/FittingData/"
 Entering Link 1 = /usr/site/hpc/x86_64/glibc-2.17/broadwell/gaussian/g16_a.03/pgi-16.5/g16/l1.exe PID=   3610232.
  
 Copyright (c) 1988,1990,1992,1993,1995,1998,2003,2009,2016,
            Gaussian, Inc.  All Rights Reserved.
  
 This is part of the Gaussian(R) 16 program.  It is based on
 the Gaussian(R) 09 system (copyright 2009, Gaussian, Inc.),
 the Gaussian(R) 03 system (copyright 2003, Gaussian, Inc.),
 the Gaussian(R) 98 system (copyright 1998, Gaussian, Inc.),
 the Gaussian(R) 94 system (copyright 1995, Gaussian, Inc.),
 the Gaussian 92(TM) system (copyright 1992, Gaussian, Inc.),
 the Gaussian 90(TM) system (copyright 1990, Gaussian, Inc.),
 the Gaussian 88(TM) system (copyright 1988, Gaussian, Inc.),
 the Gaussian 86(TM) system (copyright 1986, Carnegie Mellon
 University), and the Gaussian 82(TM) system (copyright 1983,
 Carnegie Mellon University). Gaussian is a federally registered
 trademark of Gaussian, Inc.
  
 This software contains proprietary and confidential information,
 including trade secrets, belonging to Gaussian, Inc.
  
 This software is provided under written license and may be
 used, copied, transmitted, or stored only in accord with that
 written license.
  
 The following legend is applicable only to US Government
 contracts under FAR:
  
                    RESTRICTED RIGHTS LEGEND
  
 Use, reproduction and disclosure by the US Government is
 subject to restrictions as set forth in subparagraphs (a)
 and (c) of the Commercial Computer Software - Restricted
 Rights clause in FAR 52.227-19.
  
 Gaussian, Inc.
 340 Quinnipiac St., Bldg. 40, Wallingford CT 06492
  
  
 ---------------------------------------------------------------
 Warning -- This program may not be used in any manner that
 competes with the business of Gaussian, Inc. or will provide
 assistance to any competitor of Gaussian, Inc.  The licensee
 of this program is prohibited from giving any competitor of
 Gaussian, Inc. access to this program.  By using this program,
 the user acknowledges that Gaussian, Inc. is engaged in the
 business of creating and licensing software in the field of
 computational chemistry and represents and warrants to the
 licensee that it is not a competitor of Gaussian, Inc. and that
 it will not use this program in any manner prohibited above.
 ---------------------------------------------------------------
  

 Cite this work as:
 Gaussian 16, Revision A.03,
 M. J. Frisch, G. W. Trucks, H. B. Schlegel, G. E. Scuseria, 
 M. A. Robb, J. R. Cheeseman, G. Scalmani, V. Barone, 
 G. A. Petersson, H. Nakatsuji, X. Li, M. Caricato, A. V. Marenich, 
 J. Bloino, B. G. Janesko, R. Gomperts, B. Mennucci, H. P. Hratchian, 
 J. V. Ortiz, A. F. Izmaylov, J. L. Sonnenberg, D. Williams-Young, 
 F. Ding, F. Lipparini, F. Egidi, J. Goings, B. Peng, A. Petrone, 
 T. Henderson, D. Ranasinghe, V. G. Zakrzewski, J. Gao, N. Rega, 
 G. Zheng, W. Liang, M. Hada, M. Ehara, K. Toyota, R. Fukuda, 
 J. Hasegawa, M. Ishida, T. Nakajima, Y. Honda, O. Kitao, H. Nakai, 
 T. Vreven, K. Throssell, J. A. Montgomery, Jr., J. E. Peralta, 
 F. Ogliaro, M. J. Bearpark, J. J. Heyd, E. N. Brothers, K. N. Kudin, 
 V. N. Staroverov, T. A. Keith, R. Kobayashi, J. Normand, 
 K. Raghavachari, A. P. Rendell, J. C. Burant, S. S. Iyengar, 
 J. Tomasi, M. Cossi, J. M. Millam, M. Klene, C. Adamo, R. Cammi, 
 J. W. Ochterski, R. L. Martin, K. Morokuma, O. Farkas, 
 J. B. Foresman, and D. J. Fox, Gaussian, Inc., Wallingford CT, 2016.
 
 ******************************************
 Gaussian 16:  ES64L-G16RevA.03 25-Dec-2016
                27-Aug-2022 
 ******************************************
 %NProcShared=4
 Will use up to    4 processors via shared memory.
 %Mem=4GB
 %Chk=H2O_H2O_1442.chk
 ------------------
 #p CCSD(T)/cc-pVTZ
 ------------------
 1/38=1,172=1/1;
 2/12=2,17=6,18=5,40=1/2;
 3/5=16,6=1,11=9,25=1,30=1/1,2,3;
 4//1;
 5/5=2,38=5/2;
 8/6=4,9=120000,10=1/1,4;
 9/5=7,14=2/13;
 6/7=2,8=2,9=2,10=2/1;
 99/5=1,9=1/99;
 Leave Link    1 at Sat Aug 27 04:47:00 2022, MaxMem=   536870912 cpu:               0.4 elap:               0.1
 (Enter /usr/site/hpc/x86_64/glibc-2.17/broadwell/gaussian/g16_a.03/pgi-16.5/g16/l101.exe)
 ------------
 H2O_H2O_1442
 ------------
 Symbolic Z-matrix:
 Charge =  0 Multiplicity = 1
 O                     0.       -0.00983   0. 
 H                    -0.79957  -0.58097   0. 
 H                     0.79957  -0.58097   0. 
 O                    -0.00882   3.10762   0. 
 H                    -0.16741   4.07733   0. 
 H                    -0.87469   2.64311   0. 
 
 ITRead=  0  0  0  0  0  0
 MicOpt= -1 -1 -1 -1 -1 -1
 NAtoms=      6 NQM=        6 NQMF=       0 NMMI=      0 NMMIF=      0
                NMic=       0 NMicF=      0.
                    Isotopes and Nuclear Properties:
 (Nuclear quadrupole moments (NQMom) in fm**2, nuclear magnetic moments (NMagM)
  in nuclear magnetons)

  Atom         1           2           3           4           5           6
 IAtWgt=          16           1           1          16           1           1
 AtmWgt=  15.9949146   1.0078250   1.0078250  15.9949146   1.0078250   1.0078250
 NucSpn=           0           1           1           0           1           1
 AtZEff=  -0.0000000  -0.0000000  -0.0000000  -0.0000000  -0.0000000  -0.0000000
 NQMom=    0.0000000   0.0000000   0.0000000   0.0000000   0.0000000   0.0000000
 NMagM=    0.0000000   2.7928460   2.7928460   0.0000000   2.7928460   2.7928460
 AtZNuc=   8.0000000   1.0000000   1.0000000   8.0000000   1.0000000   1.0000000
 Leave Link  101 at Sat Aug 27 04:47:00 2022, MaxMem=   536870912 cpu:               0.3 elap:               0.1
 (Enter /usr/site/hpc/x86_64/glibc-2.17/broadwell/gaussian/g16_a.03/pgi-16.5/g16/l202.exe)
                          Input orientation:                          
 ---------------------------------------------------------------------
 Center     Atomic      Atomic             Coordinates (Angstroms)
 Number     Number       Type             X           Y           Z
 ---------------------------------------------------------------------
      1          8           0        0.000000   -0.009833    0.000000
      2          1           0       -0.799571   -0.580965    0.000000
      3          1           0        0.799571   -0.580965    0.000000
      4          8           0       -0.008819    3.107615    0.000000
      5          1           0       -0.167410    4.077334    0.000000
      6          1           0       -0.874693    2.643106    0.000000
 ---------------------------------------------------------------------
                    Distance matrix (angstroms):
                    1          2          3          4          5
     1  O    0.000000
     2  H    0.982601   0.000000
     3  H    0.982601   1.599142   0.000000
     4  O    3.117460   3.772388   3.776125   0.000000
     5  H    4.090594   4.700997   4.757605   0.982602   0.000000
     6  H    2.793416   3.224946   3.632877   0.982602   1.599143
                    6
     6  H    0.000000
 Stoichiometry    H4O2
 Framework group  CS[SG(H4O2)]
 Deg. of freedom     9
 Full point group                 CS      NOp   2
 Largest Abelian subgroup         CS      NOp   2
 Largest concise Abelian subgroup C1      NOp   1
                         Standard orientation:                         
 ---------------------------------------------------------------------
 Center     Atomic      Atomic             Coordinates (Angstroms)
 Number     Number       Type             X           Y           Z
 ---------------------------------------------------------------------
      1          8           0        0.051313   -1.527023    0.000000
      2          1           0       -0.749870   -2.095890    0.000000
      3          1           0        0.849265   -2.100414    0.000000
      4          8           0        0.051313    1.590438    0.000000
      5          1           0       -0.104534    2.560602    0.000000
      6          1           0       -0.815871    1.128380    0.000000
 ---------------------------------------------------------------------
 Rotational constants (GHZ):         250.0653598           5.3460138           5.2341164
 Leave Link  202 at Sat Aug 27 04:47:01 2022, MaxMem=   536870912 cpu:               0.1 elap:               0.0
 (Enter /usr/site/hpc/x86_64/glibc-2.17/broadwell/gaussian/g16_a.03/pgi-16.5/g16/l301.exe)
 Standard basis: CC-pVTZ (5D, 7F)
 Ernie: Thresh=  0.10000D-02 Tol=  0.10000D-05 Strict=F.
 Ernie:  6 primitive shells out of 84 were deleted.
 There are    92 symmetry adapted cartesian basis functions of A'  symmetry.
 There are    38 symmetry adapted cartesian basis functions of A"  symmetry.
 There are    80 symmetry adapted basis functions of A'  symmetry.
 There are    36 symmetry adapted basis functions of A"  symmetry.
   116 basis functions,   172 primitive gaussians,   130 cartesian basis functions
    10 alpha electrons       10 beta electrons
       nuclear repulsion energy        34.0863653900 Hartrees.
 IExCor=    0 DFT=F Ex=HF Corr=None ExCW=0 ScaHFX=  1.000000
 ScaDFX=  1.000000  1.000000  1.000000  1.000000 ScalE2=  1.000000  1.000000
 IRadAn=      5 IRanWt=     -1 IRanGd=            0 ICorTp=0 IEmpDi=  4
 NAtoms=    6 NActive=    6 NUniq=    6 SFac= 1.00D+00 NAtFMM=   60 NAOKFM=F Big=F
 Integral buffers will be    131072 words long.
 Raffenetti 1 integral format.
 Two-electron integral symmetry is turned on.
 Leave Link  301 at Sat Aug 27 04:47:01 2022, MaxMem=   536870912 cpu:               0.2 elap:               0.1
 (Enter /usr/site/hpc/x86_64/glibc-2.17/broadwell/gaussian/g16_a.03/pgi-16.5/g16/l302.exe)
 NPDir=0 NMtPBC=     1 NCelOv=     1 NCel=       1 NClECP=     1 NCelD=      1
         NCelK=      1 NCelE2=     1 NClLst=     1 CellRange=     0.0.
 One-electron integrals computed using PRISM.
 One-electron integral symmetry used in STVInt
 NBasis=   116 RedAO= T EigKep=  2.17D-03  NBF=    80    36
 NBsUse=   116 1.00D-06 EigRej= -1.00D+00 NBFU=    80    36
 Leave Link  302 at Sat Aug 27 04:47:01 2022, MaxMem=   536870912 cpu:               0.4 elap:               0.1
 (Enter /usr/site/hpc/x86_64/glibc-2.17/broadwell/gaussian/g16_a.03/pgi-16.5/g16/l303.exe)
 DipDrv:  MaxL=1.
 Leave Link  303 at Sat Aug 27 04:47:01 2022, MaxMem=   536870912 cpu:               0.1 elap:               0.0
 (Enter /usr/site/hpc/x86_64/glibc-2.17/broadwell/gaussian/g16_a.03/pgi-16.5/g16/l401.exe)
 ExpMin= 1.03D-01 ExpMax= 1.53D+04 ExpMxC= 5.22D+02 IAcc=3 IRadAn=         5 AccDes= 0.00D+00
 Harris functional with IExCor=  205 and IRadAn=       5 diagonalized for initial guess.
 HarFok:  IExCor=  205 AccDes= 0.00D+00 IRadAn=         5 IDoV= 1 UseB2=F ITyADJ=14
 ICtDFT=  3500011 ScaDFX=  1.000000  1.000000  1.000000  1.000000
 FoFCou: FMM=F IPFlag=           0 FMFlag=      100000 FMFlg1=           0
         NFxFlg=           0 DoJE=T BraDBF=F KetDBF=T FulRan=T
         wScrn=  0.000000 ICntrl=       500 IOpCl=  0 I1Cent=   200000004 NGrid=           0
         NMat0=    1 NMatS0=      1 NMatT0=    0 NMatD0=    1 NMtDS0=    0 NMtDT0=    0
 Petite list used in FoFCou.
 Harris En= -152.300181886328    
 JPrj=0 DoOrth=F DoCkMO=F.
 Initial guess orbital symmetries:
       Occupied  (A') (A') (A') (A') (A') (A') (A') (A') (A") (A")
       Virtual   (A') (A') (A') (A') (A') (A') (A') (A') (A') (A")
                 (A") (A') (A') (A') (A") (A") (A') (A") (A") (A')
                 (A') (A') (A') (A') (A') (A') (A') (A') (A") (A")
                 (A") (A") (A') (A') (A') (A') (A') (A') (A') (A')
                 (A') (A') (A") (A") (A') (A') (A") (A") (A") (A")
                 (A') (A') (A') (A') (A') (A") (A") (A') (A') (A')
                 (A') (A") (A") (A') (A") (A") (A') (A') (A') (A')
                 (A") (A") (A') (A') (A') (A') (A') (A') (A') (A')
                 (A") (A") (A') (A') (A") (A") (A") (A") (A') (A')
                 (A") (A") (A') (A') (A') (A') (A") (A") (A') (A')
                 (A') (A') (A') (A') (A') (A')
 The electronic state of the initial guess is 1-A'.
 Leave Link  401 at Sat Aug 27 04:47:01 2022, MaxMem=   536870912 cpu:               0.8 elap:               0.2
 (Enter /usr/site/hpc/x86_64/glibc-2.17/broadwell/gaussian/g16_a.03/pgi-16.5/g16/l502.exe)
 Keep R1 ints in memory in symmetry-blocked form, NReq=34823457.
 FoFCou: FMM=F IPFlag=           0 FMFlag=           0 FMFlg1=           0
         NFxFlg=           0 DoJE=F BraDBF=F KetDBF=F FulRan=T
         wScrn=  0.000000 ICntrl=       600 IOpCl=  0 I1Cent=           0 NGrid=           0
         NMat0=    1 NMatS0=   6786 NMatT0=    0 NMatD0=    1 NMtDS0=    0 NMtDT0=    0
 Petite list used in FoFCou.
 Closed shell SCF:
 Using DIIS extrapolation, IDIIS=  1040.
 NGot=   536870912 LenX=   525040673 LenY=   525023332
 Requested convergence on RMS density matrix=1.00D-08 within 128 cycles.
 Requested convergence on MAX density matrix=1.00D-06.
 Requested convergence on             energy=1.00D-06.
 No special actions if energy rises.

 Cycle   1  Pass 1  IDiag  1:
 E= -151.925490326780    
 DIIS: error= 6.63D-02 at cycle   1 NSaved=   1.
 NSaved= 1 IEnMin= 1 EnMin= -151.925490326780     IErMin= 1 ErrMin= 6.63D-02
 ErrMax= 6.63D-02  0.00D+00 EMaxC= 1.00D-01 BMatC= 3.99D-01 BMatP= 3.99D-01
 IDIUse=3 WtCom= 3.37D-01 WtEn= 6.63D-01
 Coeff-Com:  0.100D+01
 Coeff-En:   0.100D+01
 Coeff:      0.100D+01
 Gap=     0.503 Goal=   None    Shift=    0.000
 GapD=    0.503 DampG=2.000 DampE=0.500 DampFc=1.0000 IDamp=-1.
 RMSDP=2.68D-03 MaxDP=6.65D-02              OVMax= 1.28D-01

 Cycle   2  Pass 1  IDiag  1:
 E= -152.036710420079     Delta-E=       -0.111220093299 Rises=F Damp=F
 DIIS: error= 4.17D-02 at cycle   2 NSaved=   2.
 NSaved= 2 IEnMin= 2 EnMin= -152.036710420079     IErMin= 2 ErrMin= 4.17D-02
 ErrMax= 4.17D-02  0.00D+00 EMaxC= 1.00D-01 BMatC= 1.14D-01 BMatP= 3.99D-01
 IDIUse=3 WtCom= 5.83D-01 WtEn= 4.17D-01
 Coeff-Com:  0.321D+00 0.679D+00
 Coeff-En:   0.170D+00 0.830D+00
 Coeff:      0.258D+00 0.742D+00
 Gap=     0.641 Goal=   None    Shift=    0.000
 RMSDP=1.44D-03 MaxDP=3.97D-02 DE=-1.11D-01 OVMax= 5.77D-02

 Cycle   3  Pass 1  IDiag  1:
 E= -152.102366460882     Delta-E=       -0.065656040803 Rises=F Damp=F
 DIIS: error= 9.13D-03 at cycle   3 NSaved=   3.
 NSaved= 3 IEnMin= 3 EnMin= -152.102366460882     IErMin= 3 ErrMin= 9.13D-03
 ErrMax= 9.13D-03  0.00D+00 EMaxC= 1.00D-01 BMatC= 6.09D-03 BMatP= 1.14D-01
 IDIUse=3 WtCom= 9.09D-01 WtEn= 9.13D-02
 Coeff-Com: -0.309D-01 0.156D+00 0.875D+00
 Coeff-En:   0.000D+00 0.000D+00 0.100D+01
 Coeff:     -0.281D-01 0.142D+00 0.886D+00
 Gap=     0.613 Goal=   None    Shift=    0.000
 RMSDP=2.63D-04 MaxDP=6.02D-03 DE=-6.57D-02 OVMax= 1.36D-02

 Cycle   4  Pass 1  IDiag  1:
 E= -152.106180340049     Delta-E=       -0.003813879166 Rises=F Damp=F
 DIIS: error= 8.67D-04 at cycle   4 NSaved=   4.
 NSaved= 4 IEnMin= 4 EnMin= -152.106180340049     IErMin= 4 ErrMin= 8.67D-04
 ErrMax= 8.67D-04  0.00D+00 EMaxC= 1.00D-01 BMatC= 3.95D-05 BMatP= 6.09D-03
 IDIUse=3 WtCom= 9.91D-01 WtEn= 8.67D-03
 Coeff-Com:  0.683D-02-0.615D-01-0.238D+00 0.129D+01
 Coeff-En:   0.000D+00 0.000D+00 0.000D+00 0.100D+01
 Coeff:      0.677D-02-0.610D-01-0.236D+00 0.129D+01
 Gap=     0.616 Goal=   None    Shift=    0.000
 RMSDP=5.38D-05 MaxDP=1.04D-03 DE=-3.81D-03 OVMax= 2.61D-03

 Cycle   5  Pass 1  IDiag  1:
 E= -152.106233827220     Delta-E=       -0.000053487171 Rises=F Damp=F
 DIIS: error= 1.96D-04 at cycle   5 NSaved=   5.
 NSaved= 5 IEnMin= 5 EnMin= -152.106233827220     IErMin= 5 ErrMin= 1.96D-04
 ErrMax= 1.96D-04  0.00D+00 EMaxC= 1.00D-01 BMatC= 1.42D-06 BMatP= 3.95D-05
 IDIUse=3 WtCom= 9.98D-01 WtEn= 1.96D-03
 Coeff-Com:  0.672D-03-0.584D-03-0.692D-02-0.195D+00 0.120D+01
 Coeff-En:   0.000D+00 0.000D+00 0.000D+00 0.000D+00 0.100D+01
 Coeff:      0.671D-03-0.583D-03-0.691D-02-0.195D+00 0.120D+01
 Gap=     0.616 Goal=   None    Shift=    0.000
 RMSDP=1.42D-05 MaxDP=3.01D-04 DE=-5.35D-05 OVMax= 7.31D-04

 Cycle   6  Pass 1  IDiag  1:
 E= -152.106236740511     Delta-E=       -0.000002913291 Rises=F Damp=F
 DIIS: error= 3.19D-05 at cycle   6 NSaved=   6.
 NSaved= 6 IEnMin= 6 EnMin= -152.106236740511     IErMin= 6 ErrMin= 3.19D-05
 ErrMax= 3.19D-05  0.00D+00 EMaxC= 1.00D-01 BMatC= 4.26D-08 BMatP= 1.42D-06
 IDIUse=1 WtCom= 1.00D+00 WtEn= 0.00D+00
 Coeff-Com: -0.267D-03 0.184D-02 0.759D-02-0.185D-01-0.179D+00 0.119D+01
 Coeff:     -0.267D-03 0.184D-02 0.759D-02-0.185D-01-0.179D+00 0.119D+01
 Gap=     0.616 Goal=   None    Shift=    0.000
 RMSDP=3.18D-06 MaxDP=7.47D-05 DE=-2.91D-06 OVMax= 1.61D-04

 Cycle   7  Pass 1  IDiag  1:
 E= -152.106236848381     Delta-E=       -0.000000107870 Rises=F Damp=F
 DIIS: error= 6.33D-06 at cycle   7 NSaved=   7.
 NSaved= 7 IEnMin= 7 EnMin= -152.106236848381     IErMin= 7 ErrMin= 6.33D-06
 ErrMax= 6.33D-06  0.00D+00 EMaxC= 1.00D-01 BMatC= 4.88D-09 BMatP= 4.26D-08
 IDIUse=1 WtCom= 1.00D+00 WtEn= 0.00D+00
 Coeff-Com: -0.766D-04 0.240D-03 0.117D-02 0.124D-01-0.108D+00 0.193D+00
 Coeff-Com:  0.902D+00
 Coeff:     -0.766D-04 0.240D-03 0.117D-02 0.124D-01-0.108D+00 0.193D+00
 Coeff:      0.902D+00
 Gap=     0.616 Goal=   None    Shift=    0.000
 RMSDP=5.68D-07 MaxDP=1.64D-05 DE=-1.08D-07 OVMax= 3.63D-05

 Cycle   8  Pass 1  IDiag  1:
 E= -152.106236854697     Delta-E=       -0.000000006317 Rises=F Damp=F
 DIIS: error= 2.79D-06 at cycle   8 NSaved=   8.
 NSaved= 8 IEnMin= 8 EnMin= -152.106236854697     IErMin= 8 ErrMin= 2.79D-06
 ErrMax= 2.79D-06  0.00D+00 EMaxC= 1.00D-01 BMatC= 6.05D-10 BMatP= 4.88D-09
 IDIUse=1 WtCom= 1.00D+00 WtEn= 0.00D+00
 Coeff-Com:  0.257D-04-0.237D-03-0.947D-03 0.547D-02 0.615D-02-0.130D+00
 Coeff-Com:  0.136D+00 0.983D+00
 Coeff:      0.257D-04-0.237D-03-0.947D-03 0.547D-02 0.615D-02-0.130D+00
 Coeff:      0.136D+00 0.983D+00
 Gap=     0.616 Goal=   None    Shift=    0.000
 RMSDP=1.95D-07 MaxDP=4.71D-06 DE=-6.32D-09 OVMax= 1.38D-05

 Cycle   9  Pass 1  IDiag  1:
 E= -152.106236855592     Delta-E=       -0.000000000894 Rises=F Damp=F
 DIIS: error= 5.95D-07 at cycle   9 NSaved=   9.
 NSaved= 9 IEnMin= 9 EnMin= -152.106236855592     IErMin= 9 ErrMin= 5.95D-07
 ErrMax= 5.95D-07  0.00D+00 EMaxC= 1.00D-01 BMatC= 3.18D-11 BMatP= 6.05D-10
 IDIUse=1 WtCom= 1.00D+00 WtEn= 0.00D+00
 Coeff-Com:  0.203D-05 0.248D-04 0.102D-03-0.247D-02 0.939D-02 0.731D-02
 Coeff-Com: -0.103D+00-0.170D+00 0.126D+01
 Coeff:      0.203D-05 0.248D-04 0.102D-03-0.247D-02 0.939D-02 0.731D-02
 Coeff:     -0.103D+00-0.170D+00 0.126D+01
 Gap=     0.616 Goal=   None    Shift=    0.000
 RMSDP=6.12D-08 MaxDP=1.27D-06 DE=-8.94D-10 OVMax= 3.35D-06

 Cycle  10  Pass 1  IDiag  1:
 E= -152.106236855657     Delta-E=       -0.000000000065 Rises=F Damp=F
 DIIS: error= 9.69D-08 at cycle  10 NSaved=  10.
 NSaved=10 IEnMin=10 EnMin= -152.106236855657     IErMin=10 ErrMin= 9.69D-08
 ErrMax= 9.69D-08  0.00D+00 EMaxC= 1.00D-01 BMatC= 6.40D-13 BMatP= 3.18D-11
 IDIUse=1 WtCom= 1.00D+00 WtEn= 0.00D+00
 Coeff-Com: -0.846D-06 0.983D-06 0.109D-05 0.284D-03-0.135D-02-0.287D-03
 Coeff-Com:  0.177D-01 0.194D-01-0.281D+00 0.124D+01
 Coeff:     -0.846D-06 0.983D-06 0.109D-05 0.284D-03-0.135D-02-0.287D-03
 Coeff:      0.177D-01 0.194D-01-0.281D+00 0.124D+01
 Gap=     0.616 Goal=   None    Shift=    0.000
 RMSDP=8.57D-09 MaxDP=1.78D-07 DE=-6.54D-11 OVMax= 5.08D-07

 SCF Done:  E(RHF) =  -152.106236856     A.U. after   10 cycles
            NFock= 10  Conv=0.86D-08     -V/T= 2.0020
 KE= 1.518063773235D+02 PE=-4.297992966957D+02 EE= 9.180031712657D+01
 Leave Link  502 at Sat Aug 27 04:47:02 2022, MaxMem=   536870912 cpu:               3.8 elap:               1.0
 (Enter /usr/site/hpc/x86_64/glibc-2.17/broadwell/gaussian/g16_a.03/pgi-16.5/g16/l801.exe)
 Windowed orbitals will be sorted by symmetry type.
 ExpMin= 1.03D-01 ExpMax= 1.53D+04 ExpMxC= 5.22D+02 IAcc=3 IRadAn=         5 AccDes= 0.00D+00
 HarFok:  IExCor=  205 AccDes= 0.00D+00 IRadAn=         5 IDoV=-2 UseB2=F ITyADJ=14
 ICtDFT= 12500011 ScaDFX=  1.000000  1.000000  1.000000  1.000000
 Largest valence mixing into a core orbital is  1.12D-04
 Largest core mixing into a valence orbital is  1.77D-05
 Range of M.O.s used for correlation:     3   116
 NBasis=   116 NAE=    10 NBE=    10 NFC=     2 NFV=     0
 NROrb=    114 NOA=     8 NOB=     8 NVA=   106 NVB=   106
 Leave Link  801 at Sat Aug 27 04:47:02 2022, MaxMem=   536870912 cpu:               0.3 elap:               0.1
 (Enter /usr/site/hpc/x86_64/glibc-2.17/broadwell/gaussian/g16_a.03/pgi-16.5/g16/l804.exe)
 Closed-shell transformation, MDV=   536870912 ITran=4 ISComp=2.
 Unit  1 TFree=        834515 TCopy=        406125.
 Semi-Direct transformation.
 ModeAB=           4 MOrb=             8 LenV=     536365619
 LASXX=      2873146 LTotXX=     2873146 LenRXX=     5831278
 LTotAB=     2958132 MaxLAS=     7265904 LenRXY=           0
 NonZer=     8704424 LenScr=    13107200 LnRSAI=     7265904
 LnScr1=    11010048 LExtra=           0 Total=     37214430
 MaxDsk=          -1 SrtSym=           T ITran=            4
 DoSDTr:  NPSUse=  4
 JobTyp=0 Pass  1:  I=   1 to   8.
 (rs|ai) integrals will be sorted in core.
 Complete sort for first half transformation.
 First half transformation complete.
 Complete sort for second half transformation.
 Second half transformation complete.
 Spin components of T(2) and E(2):
     alpha-alpha T2 =       0.1567904054D-01 E2=     -0.6405158167D-01
     alpha-beta  T2 =       0.9230934577D-01 E2=     -0.3990300239D+00
     beta-beta   T2 =       0.1567904054D-01 E2=     -0.6405158167D-01
 ANorm=    0.1060031805D+01
 E2 =    -0.5271331872D+00 EUMP2 =    -0.15263337004289D+03
 Leave Link  804 at Sat Aug 27 04:47:03 2022, MaxMem=   536870912 cpu:               4.0 elap:               1.0
 (Enter /usr/site/hpc/x86_64/glibc-2.17/broadwell/gaussian/g16_a.03/pgi-16.5/g16/l913.exe)
 CIDS:  MDV=   536870912.
 Frozen-core window:  NFC=   2 NFV=   0.
 IFCWin=0 IBDFC=1 NFBD=     0     0 NFCmp=     0     0 NFFFC=     0     0
 Using DD3R+UMP44R for 1st iteration.
 Using DD4RQ for 2nd and later iterations.
 Keep R2 and R3 ints in memory in symmetry-blocked form, NReq=35357534.
 FoFCou: FMM=F IPFlag=           0 FMFlag=           0 FMFlg1=           0
         NFxFlg=           0 DoJE=F BraDBF=F KetDBF=F FulRan=T
         wScrn=  0.000000 ICntrl=       600 IOpCl=  0 I1Cent=           0 NGrid=           0
         NMat0=    1 NMatS0=   6786 NMatT0=    0 NMatD0=    1 NMtDS0=    0 NMtDT0=    0
 Petite list used in FoFCou.
 CIDS: In Core Option IDoMem=           1.
 CCSD(T)
 =======
 Iterations=  50 Convergence= 0.100D-06
 Produce multiple copies of IABC intergrals
 Iteration Nr.   1
 **********************
 DD1Dir will call FoFMem   1 times, MxPair=        72
 NAB=    36 NAA=     0 NBB=     0.
 MP4(R+Q)=  0.76375455D-02
 Maximum subspace dimension=  5
 A-vector RMS=  1.7953791D-03 Max=  5.7258337D-03 conv= 1.00D-05.
 RLE energy=       -0.5267663431
 E3=       -0.73418106D-02        EUMP3=      -0.15264071185D+03
 E4(DQ)=   -0.15212175D-02        UMP4(DQ)=   -0.15264223307D+03
 E4(SDQ)=  -0.46481166D-02        UMP4(SDQ)=  -0.15264535997D+03
 VARIATIONAL ENERGIES WITH THE FIRST-ORDER WAVEFUNCTION:
 DE(Corr)= -0.52676610     E(Corr)=     -152.63300295    
 NORM(A)=   0.10603246D+01
 Iteration Nr.   2
 **********************
 DD1Dir will call FoFMem   1 times, MxPair=        72
 NAB=    36 NAA=     0 NBB=     0.
 A-vector RMS=  2.1081583D-04 Max=  1.4960530D-03 conv= 1.00D-05.
 RLE energy=       -0.5379123378
 DE(Corr)= -0.53677161     E(CORR)=     -152.64300846     Delta=-1.00D-02
 NORM(A)=   0.10641190D+01
 Iteration Nr.   3
 **********************
 DD1Dir will call FoFMem   1 times, MxPair=        72
 NAB=    36 NAA=     0 NBB=     0.
 A-vector RMS=  1.5324908D-04 Max=  1.1119738D-03 conv= 1.00D-05.
 RLE energy=       -0.5384145981
 DE(Corr)= -0.53781844     E(CORR)=     -152.64405530     Delta=-1.05D-03
 NORM(A)=   0.10647650D+01
 Iteration Nr.   4
 **********************
 DD1Dir will call FoFMem   1 times, MxPair=        72
 NAB=    36 NAA=     0 NBB=     0.
 A-vector RMS=  3.0101798D-05 Max=  1.5109547D-04 conv= 1.00D-05.
 RLE energy=       -0.5384956169
 DE(Corr)= -0.53846068     E(CORR)=     -152.64469753     Delta=-6.42D-04
 NORM(A)=   0.10648801D+01
 Iteration Nr.   5
 **********************
 DD1Dir will call FoFMem   1 times, MxPair=        72
 NAB=    36 NAA=     0 NBB=     0.
 A-vector RMS=  2.0020022D-05 Max=  1.9634062D-04 conv= 1.00D-05.
 RLE energy=       -0.5385070318
 DE(Corr)= -0.53849952     E(CORR)=     -152.64473638     Delta=-3.88D-05
 NORM(A)=   0.10648921D+01
 Iteration Nr.   6
 **********************
 DD1Dir will call FoFMem   1 times, MxPair=        72
 NAB=    36 NAA=     0 NBB=     0.
 A-vector RMS=  6.1946814D-06 Max=  5.7243606D-05 conv= 1.00D-05.
 RLE energy=       -0.5384979915
 DE(Corr)= -0.53850308     E(CORR)=     -152.64473994     Delta=-3.56D-06
 NORM(A)=   0.10648921D+01
 Iteration Nr.   7
 **********************
 DD1Dir will call FoFMem   1 times, MxPair=        72
 NAB=    36 NAA=     0 NBB=     0.
 A-vector RMS=  2.7493072D-06 Max=  2.7377830D-05 conv= 1.00D-05.
 RLE energy=       -0.5385030728
 DE(Corr)= -0.53850326     E(CORR)=     -152.64474011     Delta=-1.75D-07
 NORM(A)=   0.10648941D+01
 Iteration Nr.   8
 **********************
 DD1Dir will call FoFMem   1 times, MxPair=        72
 NAB=    36 NAA=     0 NBB=     0.
 A-vector RMS=  9.8360973D-07 Max=  1.0404470D-05 conv= 1.00D-05.
 RLE energy=       -0.5385025462
 DE(Corr)= -0.53850276     E(CORR)=     -152.64473961     Delta= 4.97D-07
 NORM(A)=   0.10648943D+01
 Iteration Nr.   9
 **********************
 DD1Dir will call FoFMem   1 times, MxPair=        72
 NAB=    36 NAA=     0 NBB=     0.
 A-vector RMS=  1.7954945D-07 Max=  1.9916972D-06 conv= 1.00D-05.
 RLE energy=       -0.5385028181
 DE(Corr)= -0.53850289     E(CORR)=     -152.64473975     Delta=-1.34D-07
 NORM(A)=   0.10648947D+01
 Iteration Nr.  10
 **********************
 DD1Dir will call FoFMem   1 times, MxPair=        72
 NAB=    36 NAA=     0 NBB=     0.
 A-vector RMS=  7.7436063D-08 Max=  7.4196499D-07 conv= 1.00D-05.
 RLE energy=       -0.5385030245
 DE(Corr)= -0.53850301     E(CORR)=     -152.64473986     Delta=-1.14D-07
 NORM(A)=   0.10648948D+01
 Iteration Nr.  11
 **********************
 DD1Dir will call FoFMem   1 times, MxPair=        72
 NAB=    36 NAA=     0 NBB=     0.
 A-vector RMS=  2.7417220D-08 Max=  2.7113786D-07 conv= 1.00D-05.
 RLE energy=       -0.5385030785
 DE(Corr)= -0.53850306     E(CORR)=     -152.64473992     Delta=-5.54D-08
 NORM(A)=   0.10648949D+01
 CI/CC converged in   11 iterations to DelEn=-5.54D-08 Conv= 1.00D-07 ErrA1= 2.74D-08 Conv= 1.00D-05
 Wavefunction amplitudes converged. E(Corr)=     -152.64473992    
 Largest amplitude= 3.08D-02
 IPart=  2 IA=    7   11.05% done.
 IPart=  3 IA=   13   21.46% done.
 IPart=  2 IA=   19   31.21% done.
 IPart=  3 IA=   25   40.32% done.
 IPart=  3 IA=   32   50.13% done.
 IPart=  4 IA=   40   60.27% done.
 IPart=  1 IA=   49   70.30% done.
 IPart=  1 IA=   60   80.58% done.
 IPart=  3 IA=   74   90.51% done.
 Time for triples=       46.05 seconds.
 T4(CCSD)= -0.16222333D-01
 T5(CCSD)=  0.41959835D-03
 CCSD(T)= -0.15266054265D+03
 Discarding MO integrals.
 Leave Link  913 at Sat Aug 27 04:47:20 2022, MaxMem=   536870912 cpu:              67.6 elap:              16.9
 (Enter /usr/site/hpc/x86_64/glibc-2.17/broadwell/gaussian/g16_a.03/pgi-16.5/g16/l601.exe)
 Copying SCF densities to generalized density rwf, IOpCl= 0 IROHF=0.

 **********************************************************************

            Population analysis using the SCF density.

 **********************************************************************

 Orbital symmetries:
       Occupied  (A') (A') (A') (A') (A') (A') (A') (A') (A") (A")
       Virtual   (A') (A') (A') (A') (A') (A') (A') (A') (A') (A')
                 (A') (A") (A') (A") (A") (A") (A') (A") (A") (A')
                 (A') (A') (A') (A') (A') (A') (A') (A') (A") (A")
                 (A") (A') (A") (A') (A') (A') (A') (A') (A') (A')
                 (A') (A') (A") (A") (A') (A') (A") (A") (A') (A')
                 (A") (A") (A') (A') (A') (A") (A") (A') (A") (A")
                 (A') (A') (A') (A') (A") (A") (A') (A') (A') (A')
                 (A") (A") (A') (A') (A') (A') (A') (A') (A') (A')
                 (A") (A") (A') (A') (A") (A") (A") (A") (A') (A')
                 (A") (A") (A') (A') (A') (A') (A") (A") (A') (A')
                 (A') (A') (A') (A') (A') (A')
 The electronic state is 1-A'.
 Alpha  occ. eigenvalues --  -20.55414 -20.53712  -1.32711  -1.30973  -0.70132
 Alpha  occ. eigenvalues --   -0.68380  -0.56141  -0.54241  -0.49828  -0.48082
 Alpha virt. eigenvalues --    0.13563   0.16815   0.19993   0.23244   0.54176
 Alpha virt. eigenvalues --    0.55508   0.57325   0.58313   0.66554   0.75959
 Alpha virt. eigenvalues --    0.76945   0.77077   0.79444   0.81936   0.84922
 Alpha virt. eigenvalues --    0.86665   0.88487   0.97898   0.99663   1.06390
 Alpha virt. eigenvalues --    1.13779   1.16245   1.18967   1.27604   1.51796
 Alpha virt. eigenvalues --    1.52175   1.53823   1.54982   2.00691   2.02656
 Alpha virt. eigenvalues --    2.06865   2.07938   2.08660   2.15333   2.18023
 Alpha virt. eigenvalues --    2.25003   2.30918   2.34407   2.61497   2.65205
 Alpha virt. eigenvalues --    2.93210   2.95522   3.39466   3.41229   3.50146
 Alpha virt. eigenvalues --    3.51867   3.53217   3.54926   3.59488   3.61975
 Alpha virt. eigenvalues --    3.78758   3.80460   3.84547   3.87690   3.90739
 Alpha virt. eigenvalues --    3.93664   3.95219   3.96662   4.03489   4.05124
 Alpha virt. eigenvalues --    4.08577   4.11442   4.16223   4.17659   4.30206
 Alpha virt. eigenvalues --    4.31956   4.41626   4.43113   4.45762   4.49779
 Alpha virt. eigenvalues --    4.66440   4.68677   4.83832   4.85622   5.04812
 Alpha virt. eigenvalues --    5.07461   5.25877   5.26028   5.55512   5.57703
 Alpha virt. eigenvalues --    5.98047   5.99757   6.40513   6.42351   6.86292
 Alpha virt. eigenvalues --    6.88025   6.89764   6.91493   6.95014   6.97196
 Alpha virt. eigenvalues --    6.99240   7.00990   7.08057   7.11033   7.15534
 Alpha virt. eigenvalues --    7.16792   7.18398   7.20182   7.47456   7.50176
 Alpha virt. eigenvalues --    7.71394   7.74629   8.15806   8.18539  12.48210
 Alpha virt. eigenvalues --   12.65269
          Condensed to atoms (all electrons):
               1          2          3          4          5          6
     1  O    7.825932   0.320381   0.334949  -0.001181  -0.000039   0.006530
     2  H    0.320381   0.469557  -0.028571   0.000205  -0.000011  -0.000809
     3  H    0.334949  -0.028571   0.440782   0.000378  -0.000010  -0.000486
     4  O   -0.001181   0.000205   0.000378   7.830449   0.325474   0.338663
     5  H   -0.000039  -0.000011  -0.000010   0.325474   0.473756  -0.032790
     6  H    0.006530  -0.000809  -0.000486   0.338663  -0.032790   0.434157
 Mulliken charges:
               1
     1  O   -0.486573
     2  H    0.239248
     3  H    0.252958
     4  O   -0.493988
     5  H    0.233620
     6  H    0.254736
 Sum of Mulliken charges =  -0.00000
 Mulliken charges with hydrogens summed into heavy atoms:
               1
     1  O    0.005633
     4  O   -0.005633
 Electronic spatial extent (au):  <R**2>=            224.6681
 Charge=             -0.0000 electrons
 Dipole moment (field-independent basis, Debye):
    X=             -1.6825    Y=             -1.2142    Z=              0.0000  Tot=              2.0749
 Quadrupole moment (field-independent basis, Debye-Ang):
   XX=             -9.4833   YY=             -1.6703   ZZ=            -14.7187
   XY=             -2.2221   XZ=              0.0000   YZ=              0.0000
 Traceless Quadrupole moment (field-independent basis, Debye-Ang):
   XX=             -0.8592   YY=              6.9538   ZZ=             -6.0946
   XY=             -2.2221   XZ=              0.0000   YZ=              0.0000
 Octapole moment (field-independent basis, Debye-Ang**2):
  XXX=             -1.1840  YYY=             -0.2408  ZZZ=              0.0000  XYY=             -2.0641
  XXY=             -4.8872  XXZ=              0.0000  XZZ=             -0.1998  YZZ=             -0.1955
  YYZ=              0.0000  XYZ=              0.0000
 Hexadecapole moment (field-independent basis, Debye-Ang**3):
 XXXX=            -11.6060 YYYY=           -118.0711 ZZZZ=            -11.3572 XXXY=              0.0011
 XXXZ=              0.0000 YYYX=             -3.1441 YYYZ=              0.0000 ZZZX=              0.0000
 ZZZY=              0.0000 XXYY=            -26.5848 XXZZ=             -4.4410 YYZZ=            -42.8843
 XXYZ=              0.0000 YYXZ=              0.0000 ZZXY=              0.7280
 N-N= 3.408636539001D+01 E-N=-4.297992957192D+02  KE= 1.518063773235D+02
 Symmetry A'   KE= 1.427687530502D+02
 Symmetry A"   KE= 9.037624273244D+00
 Leave Link  601 at Sat Aug 27 04:47:20 2022, MaxMem=   536870912 cpu:               0.1 elap:               0.0
 (Enter /usr/site/hpc/x86_64/glibc-2.17/broadwell/gaussian/g16_a.03/pgi-16.5/g16/l9999.exe)
 1\1\GINC-N003\SP\RCCSD(T)-FC\CC-pVTZ\H4O2\C7441284\27-Aug-2022\0\\#p C
 CSD(T)/cc-pVTZ\\H2O_H2O_1442\\0,1\O,0,0.,-0.009833,0.\H,0,-0.799571,-0
 .580965,0.\H,0,0.799571,-0.580965,0.\O,0,-0.008819,3.107615,0.\H,0,-0.
 16741,4.077334,0.\H,0,-0.874693,2.643106,0.\\Version=ES64L-G16RevA.03\
 State=1-A'\HF=-152.1062369\MP2=-152.63337\MP3=-152.6407119\MP4D=-152.6
 498706\MP4DQ=-152.6422331\MP4SDQ=-152.64536\CCSD=-152.6447399\CCSD(T)=
 -152.6605427\RMSD=8.575e-09\PG=CS [SG(H4O2)]\\@


     SCHOPENHAUER'S LAW OF ENTROPY
 IF YOU PUT A SPOONFUL OF WINE IN A BARREL FULL
 OF SEWAGE, YOU GET SEWAGE.
 IF YOU PUT A SPOONFUL OF SEWAGE IN A BARREL FULL
 OF WINE, YOU GET SEWAGE.
 Job cpu time:       0 days  0 hours  1 minutes 18.0 seconds.
 Elapsed time:       0 days  0 hours  0 minutes 19.8 seconds.
 File lengths (MBytes):  RWF=    356 Int=      0 D2E=      0 Chk=      8 Scr=      8
 Normal termination of Gaussian 16 at Sat Aug 27 04:47:20 2022.
