 Entering Gaussian System, Link 0=g16
 Input=H2O_H2O_692.com
 Output=H2O_H2O_692.log
 Initial command:
 /usr/site/hpc/x86_64/glibc-2.17/broadwell/gaussian/g16_a.03/pgi-16.5/g16/l1.exe "/gpfs/gpfs1/scratch/c7441284/ForceFieldModel/FittingData/Gau-3720884.inp" -scrdir="/gpfs/gpfs1/scratch/c7441284/ForceFieldModel/FittingData/"
 Entering Link 1 = /usr/site/hpc/x86_64/glibc-2.17/broadwell/gaussian/g16_a.03/pgi-16.5/g16/l1.exe PID=   3720885.
  
 Copyright (c) 1988,1990,1992,1993,1995,1998,2003,2009,2016,
            Gaussian, Inc.  All Rights Reserved.
  
 This is part of the Gaussian(R) 16 program.  It is based on
 the Gaussian(R) 09 system (copyright 2009, Gaussian, Inc.),
 the Gaussian(R) 03 system (copyright 2003, Gaussian, Inc.),
 the Gaussian(R) 98 system (copyright 1998, Gaussian, Inc.),
 the Gaussian(R) 94 system (copyright 1995, Gaussian, Inc.),
 the Gaussian 92(TM) system (copyright 1992, Gaussian, Inc.),
 the Gaussian 90(TM) system (copyright 1990, Gaussian, Inc.),
 the Gaussian 88(TM) system (copyright 1988, Gaussian, Inc.),
 the Gaussian 86(TM) system (copyright 1986, Carnegie Mellon
 University), and the Gaussian 82(TM) system (copyright 1983,
 Carnegie Mellon University). Gaussian is a federally registered
 trademark of Gaussian, Inc.
  
 This software contains proprietary and confidential information,
 including trade secrets, belonging to Gaussian, Inc.
  
 This software is provided under written license and may be
 used, copied, transmitted, or stored only in accord with that
 written license.
  
 The following legend is applicable only to US Government
 contracts under FAR:
  
                    RESTRICTED RIGHTS LEGEND
  
 Use, reproduction and disclosure by the US Government is
 subject to restrictions as set forth in subparagraphs (a)
 and (c) of the Commercial Computer Software - Restricted
 Rights clause in FAR 52.227-19.
  
 Gaussian, Inc.
 340 Quinnipiac St., Bldg. 40, Wallingford CT 06492
  
  
 ---------------------------------------------------------------
 Warning -- This program may not be used in any manner that
 competes with the business of Gaussian, Inc. or will provide
 assistance to any competitor of Gaussian, Inc.  The licensee
 of this program is prohibited from giving any competitor of
 Gaussian, Inc. access to this program.  By using this program,
 the user acknowledges that Gaussian, Inc. is engaged in the
 business of creating and licensing software in the field of
 computational chemistry and represents and warrants to the
 licensee that it is not a competitor of Gaussian, Inc. and that
 it will not use this program in any manner prohibited above.
 ---------------------------------------------------------------
  

 Cite this work as:
 Gaussian 16, Revision A.03,
 M. J. Frisch, G. W. Trucks, H. B. Schlegel, G. E. Scuseria, 
 M. A. Robb, J. R. Cheeseman, G. Scalmani, V. Barone, 
 G. A. Petersson, H. Nakatsuji, X. Li, M. Caricato, A. V. Marenich, 
 J. Bloino, B. G. Janesko, R. Gomperts, B. Mennucci, H. P. Hratchian, 
 J. V. Ortiz, A. F. Izmaylov, J. L. Sonnenberg, D. Williams-Young, 
 F. Ding, F. Lipparini, F. Egidi, J. Goings, B. Peng, A. Petrone, 
 T. Henderson, D. Ranasinghe, V. G. Zakrzewski, J. Gao, N. Rega, 
 G. Zheng, W. Liang, M. Hada, M. Ehara, K. Toyota, R. Fukuda, 
 J. Hasegawa, M. Ishida, T. Nakajima, Y. Honda, O. Kitao, H. Nakai, 
 T. Vreven, K. Throssell, J. A. Montgomery, Jr., J. E. Peralta, 
 F. Ogliaro, M. J. Bearpark, J. J. Heyd, E. N. Brothers, K. N. Kudin, 
 V. N. Staroverov, T. A. Keith, R. Kobayashi, J. Normand, 
 K. Raghavachari, A. P. Rendell, J. C. Burant, S. S. Iyengar, 
 J. Tomasi, M. Cossi, J. M. Millam, M. Klene, C. Adamo, R. Cammi, 
 J. W. Ochterski, R. L. Martin, K. Morokuma, O. Farkas, 
 J. B. Foresman, and D. J. Fox, Gaussian, Inc., Wallingford CT, 2016.
 
 ******************************************
 Gaussian 16:  ES64L-G16RevA.03 25-Dec-2016
                26-Aug-2022 
 ******************************************
 %NProcShared=4
 Will use up to    4 processors via shared memory.
 %Mem=4GB
 %Chk=H2O_H2O_692.chk
 ------------------
 #p CCSD(T)/cc-pVTZ
 ------------------
 1/38=1,172=1/1;
 2/12=2,17=6,18=5,40=1/2;
 3/5=16,6=1,11=9,25=1,30=1/1,2,3;
 4//1;
 5/5=2,38=5/2;
 8/6=4,9=120000,10=1/1,4;
 9/5=7,14=2/13;
 6/7=2,8=2,9=2,10=2/1;
 99/5=1,9=1/99;
 Leave Link    1 at Fri Aug 26 19:07:58 2022, MaxMem=   536870912 cpu:               0.4 elap:               0.1
 (Enter /usr/site/hpc/x86_64/glibc-2.17/broadwell/gaussian/g16_a.03/pgi-16.5/g16/l101.exe)
 -----------
 H2O_H2O_692
 -----------
 Symbolic Z-matrix:
 Charge =  0 Multiplicity = 1
 O                     0.       -0.00983   0. 
 H                    -0.79957  -0.58097   0. 
 H                     0.79957  -0.58097   0. 
 O                    -0.00882   2.30986   0. 
 H                    -0.16741   3.27958   0. 
 H                    -0.87469   1.84535   0. 
 
 ITRead=  0  0  0  0  0  0
 MicOpt= -1 -1 -1 -1 -1 -1
 NAtoms=      6 NQM=        6 NQMF=       0 NMMI=      0 NMMIF=      0
                NMic=       0 NMicF=      0.
                    Isotopes and Nuclear Properties:
 (Nuclear quadrupole moments (NQMom) in fm**2, nuclear magnetic moments (NMagM)
  in nuclear magnetons)

  Atom         1           2           3           4           5           6
 IAtWgt=          16           1           1          16           1           1
 AtmWgt=  15.9949146   1.0078250   1.0078250  15.9949146   1.0078250   1.0078250
 NucSpn=           0           1           1           0           1           1
 AtZEff=  -0.0000000  -0.0000000  -0.0000000  -0.0000000  -0.0000000  -0.0000000
 NQMom=    0.0000000   0.0000000   0.0000000   0.0000000   0.0000000   0.0000000
 NMagM=    0.0000000   2.7928460   2.7928460   0.0000000   2.7928460   2.7928460
 AtZNuc=   8.0000000   1.0000000   1.0000000   8.0000000   1.0000000   1.0000000
 Leave Link  101 at Fri Aug 26 19:07:58 2022, MaxMem=   536870912 cpu:               0.4 elap:               0.1
 (Enter /usr/site/hpc/x86_64/glibc-2.17/broadwell/gaussian/g16_a.03/pgi-16.5/g16/l202.exe)
                          Input orientation:                          
 ---------------------------------------------------------------------
 Center     Atomic      Atomic             Coordinates (Angstroms)
 Number     Number       Type             X           Y           Z
 ---------------------------------------------------------------------
      1          8           0        0.000000   -0.009833    0.000000
      2          1           0       -0.799571   -0.580965    0.000000
      3          1           0        0.799571   -0.580965    0.000000
      4          8           0       -0.008819    2.309860    0.000000
      5          1           0       -0.167410    3.279579    0.000000
      6          1           0       -0.874693    1.845351    0.000000
 ---------------------------------------------------------------------
                    Distance matrix (angstroms):
                    1          2          3          4          5
     1  O    0.000000
     2  H    0.982601   0.000000
     3  H    0.982601   1.599142   0.000000
     4  O    2.319710   2.997025   3.001727   0.000000
     5  H    3.293669   3.911960   3.979806   0.982602   0.000000
     6  H    2.051047   2.427479   2.947909   0.982602   1.599143
                    6
     6  H    0.000000
 Stoichiometry    H4O2
 Framework group  CS[SG(H4O2)]
 Deg. of freedom     9
 Full point group                 CS      NOp   2
 Largest Abelian subgroup         CS      NOp   2
 Largest concise Abelian subgroup C1      NOp   1
                         Standard orientation:                         
 ---------------------------------------------------------------------
 Center     Atomic      Atomic             Coordinates (Angstroms)
 Number     Number       Type             X           Y           Z
 ---------------------------------------------------------------------
      1          8           0        0.051344   -1.128197    0.000000
      2          1           0       -0.750393   -1.696285    0.000000
      3          1           0        0.848738   -1.702365    0.000000
      4          8           0        0.051344    1.191513    0.000000
      5          1           0       -0.103559    2.161828    0.000000
      6          1           0       -0.816290    0.730299    0.000000
 ---------------------------------------------------------------------
 Rotational constants (GHZ):         249.6813129           9.3336940           8.9973511
 Leave Link  202 at Fri Aug 26 19:07:58 2022, MaxMem=   536870912 cpu:               0.1 elap:               0.0
 (Enter /usr/site/hpc/x86_64/glibc-2.17/broadwell/gaussian/g16_a.03/pgi-16.5/g16/l301.exe)
 Standard basis: CC-pVTZ (5D, 7F)
 Ernie: Thresh=  0.10000D-02 Tol=  0.10000D-05 Strict=F.
 Ernie:  6 primitive shells out of 84 were deleted.
 There are    92 symmetry adapted cartesian basis functions of A'  symmetry.
 There are    38 symmetry adapted cartesian basis functions of A"  symmetry.
 There are    80 symmetry adapted basis functions of A'  symmetry.
 There are    36 symmetry adapted basis functions of A"  symmetry.
   116 basis functions,   172 primitive gaussians,   130 cartesian basis functions
    10 alpha electrons       10 beta electrons
       nuclear repulsion energy        39.3331065180 Hartrees.
 IExCor=    0 DFT=F Ex=HF Corr=None ExCW=0 ScaHFX=  1.000000
 ScaDFX=  1.000000  1.000000  1.000000  1.000000 ScalE2=  1.000000  1.000000
 IRadAn=      5 IRanWt=     -1 IRanGd=            0 ICorTp=0 IEmpDi=  4
 NAtoms=    6 NActive=    6 NUniq=    6 SFac= 1.00D+00 NAtFMM=   60 NAOKFM=F Big=F
 Integral buffers will be    131072 words long.
 Raffenetti 1 integral format.
 Two-electron integral symmetry is turned on.
 Leave Link  301 at Fri Aug 26 19:07:59 2022, MaxMem=   536870912 cpu:               0.3 elap:               0.1
 (Enter /usr/site/hpc/x86_64/glibc-2.17/broadwell/gaussian/g16_a.03/pgi-16.5/g16/l302.exe)
 NPDir=0 NMtPBC=     1 NCelOv=     1 NCel=       1 NClECP=     1 NCelD=      1
         NCelK=      1 NCelE2=     1 NClLst=     1 CellRange=     0.0.
 One-electron integrals computed using PRISM.
 One-electron integral symmetry used in STVInt
 NBasis=   116 RedAO= T EigKep=  2.03D-03  NBF=    80    36
 NBsUse=   116 1.00D-06 EigRej= -1.00D+00 NBFU=    80    36
 Leave Link  302 at Fri Aug 26 19:07:59 2022, MaxMem=   536870912 cpu:               0.6 elap:               0.2
 (Enter /usr/site/hpc/x86_64/glibc-2.17/broadwell/gaussian/g16_a.03/pgi-16.5/g16/l303.exe)
 DipDrv:  MaxL=1.
 Leave Link  303 at Fri Aug 26 19:07:59 2022, MaxMem=   536870912 cpu:               0.1 elap:               0.1
 (Enter /usr/site/hpc/x86_64/glibc-2.17/broadwell/gaussian/g16_a.03/pgi-16.5/g16/l401.exe)
 ExpMin= 1.03D-01 ExpMax= 1.53D+04 ExpMxC= 5.22D+02 IAcc=3 IRadAn=         5 AccDes= 0.00D+00
 Harris functional with IExCor=  205 and IRadAn=       5 diagonalized for initial guess.
 HarFok:  IExCor=  205 AccDes= 0.00D+00 IRadAn=         5 IDoV= 1 UseB2=F ITyADJ=14
 ICtDFT=  3500011 ScaDFX=  1.000000  1.000000  1.000000  1.000000
 FoFCou: FMM=F IPFlag=           0 FMFlag=      100000 FMFlg1=           0
         NFxFlg=           0 DoJE=T BraDBF=F KetDBF=T FulRan=T
         wScrn=  0.000000 ICntrl=       500 IOpCl=  0 I1Cent=   200000004 NGrid=           0
         NMat0=    1 NMatS0=      1 NMatT0=    0 NMatD0=    1 NMtDS0=    0 NMtDT0=    0
 Petite list used in FoFCou.
 Harris En= -152.296763161398    
 JPrj=0 DoOrth=F DoCkMO=F.
 Initial guess orbital symmetries:
       Occupied  (A') (A') (A') (A') (A') (A') (A') (A') (A") (A")
       Virtual   (A') (A') (A') (A') (A') (A') (A') (A') (A") (A')
                 (A") (A') (A') (A') (A") (A") (A') (A") (A') (A")
                 (A') (A') (A') (A') (A') (A') (A') (A') (A") (A")
                 (A") (A") (A') (A') (A') (A') (A') (A') (A') (A')
                 (A') (A') (A") (A") (A') (A") (A') (A") (A") (A")
                 (A') (A') (A') (A') (A') (A") (A") (A') (A') (A')
                 (A") (A') (A") (A') (A") (A") (A') (A') (A") (A')
                 (A") (A') (A') (A') (A') (A') (A') (A') (A') (A')
                 (A") (A") (A') (A') (A") (A") (A") (A") (A') (A")
                 (A') (A") (A') (A') (A') (A") (A') (A") (A') (A')
                 (A') (A') (A') (A') (A') (A')
 The electronic state of the initial guess is 1-A'.
 Leave Link  401 at Fri Aug 26 19:07:59 2022, MaxMem=   536870912 cpu:               1.0 elap:               0.3
 (Enter /usr/site/hpc/x86_64/glibc-2.17/broadwell/gaussian/g16_a.03/pgi-16.5/g16/l502.exe)
 Keep R1 ints in memory in symmetry-blocked form, NReq=34823457.
 FoFCou: FMM=F IPFlag=           0 FMFlag=           0 FMFlg1=           0
         NFxFlg=           0 DoJE=F BraDBF=F KetDBF=F FulRan=T
         wScrn=  0.000000 ICntrl=       600 IOpCl=  0 I1Cent=           0 NGrid=           0
         NMat0=    1 NMatS0=   6786 NMatT0=    0 NMatD0=    1 NMtDS0=    0 NMtDT0=    0
 Petite list used in FoFCou.
 Closed shell SCF:
 Using DIIS extrapolation, IDIIS=  1040.
 NGot=   536870912 LenX=   525040673 LenY=   525023332
 Requested convergence on RMS density matrix=1.00D-08 within 128 cycles.
 Requested convergence on MAX density matrix=1.00D-06.
 Requested convergence on             energy=1.00D-06.
 No special actions if energy rises.

 Cycle   1  Pass 1  IDiag  1:
 E= -151.904861140838    
 DIIS: error= 6.21D-02 at cycle   1 NSaved=   1.
 NSaved= 1 IEnMin= 1 EnMin= -151.904861140838     IErMin= 1 ErrMin= 6.21D-02
 ErrMax= 6.21D-02  0.00D+00 EMaxC= 1.00D-01 BMatC= 4.06D-01 BMatP= 4.06D-01
 IDIUse=3 WtCom= 3.79D-01 WtEn= 6.21D-01
 Coeff-Com:  0.100D+01
 Coeff-En:   0.100D+01
 Coeff:      0.100D+01
 Gap=     0.480 Goal=   None    Shift=    0.000
 GapD=    0.480 DampG=2.000 DampE=0.500 DampFc=1.0000 IDamp=-1.
 RMSDP=3.08D-03 MaxDP=8.17D-02              OVMax= 1.32D-01

 Cycle   2  Pass 1  IDiag  1:
 E= -152.017562805947     Delta-E=       -0.112701665109 Rises=F Damp=F
 DIIS: error= 4.05D-02 at cycle   2 NSaved=   2.
 NSaved= 2 IEnMin= 2 EnMin= -152.017562805947     IErMin= 2 ErrMin= 4.05D-02
 ErrMax= 4.05D-02  0.00D+00 EMaxC= 1.00D-01 BMatC= 1.19D-01 BMatP= 4.06D-01
 IDIUse=3 WtCom= 5.95D-01 WtEn= 4.05D-01
 Coeff-Com:  0.324D+00 0.676D+00
 Coeff-En:   0.179D+00 0.821D+00
 Coeff:      0.265D+00 0.735D+00
 Gap=     0.627 Goal=   None    Shift=    0.000
 RMSDP=1.70D-03 MaxDP=5.21D-02 DE=-1.13D-01 OVMax= 6.55D-02

 Cycle   3  Pass 1  IDiag  1:
 E= -152.086993160795     Delta-E=       -0.069430354848 Rises=F Damp=F
 DIIS: error= 8.53D-03 at cycle   3 NSaved=   3.
 NSaved= 3 IEnMin= 3 EnMin= -152.086993160795     IErMin= 3 ErrMin= 8.53D-03
 ErrMax= 8.53D-03  0.00D+00 EMaxC= 1.00D-01 BMatC= 6.12D-03 BMatP= 1.19D-01
 IDIUse=3 WtCom= 9.15D-01 WtEn= 8.53D-02
 Coeff-Com: -0.322D-01 0.152D+00 0.881D+00
 Coeff-En:   0.000D+00 0.000D+00 0.100D+01
 Coeff:     -0.295D-01 0.139D+00 0.891D+00
 Gap=     0.598 Goal=   None    Shift=    0.000
 RMSDP=2.79D-04 MaxDP=6.97D-03 DE=-6.94D-02 OVMax= 1.37D-02

 Cycle   4  Pass 1  IDiag  1:
 E= -152.090879942806     Delta-E=       -0.003886782011 Rises=F Damp=F
 DIIS: error= 8.63D-04 at cycle   4 NSaved=   4.
 NSaved= 4 IEnMin= 4 EnMin= -152.090879942806     IErMin= 4 ErrMin= 8.63D-04
 ErrMax= 8.63D-04  0.00D+00 EMaxC= 1.00D-01 BMatC= 3.90D-05 BMatP= 6.12D-03
 IDIUse=3 WtCom= 9.91D-01 WtEn= 8.63D-03
 Coeff-Com:  0.745D-02-0.615D-01-0.252D+00 0.131D+01
 Coeff-En:   0.000D+00 0.000D+00 0.000D+00 0.100D+01
 Coeff:      0.738D-02-0.610D-01-0.250D+00 0.130D+01
 Gap=     0.601 Goal=   None    Shift=    0.000
 RMSDP=5.65D-05 MaxDP=1.13D-03 DE=-3.89D-03 OVMax= 3.02D-03

 Cycle   5  Pass 1  IDiag  1:
 E= -152.090936482199     Delta-E=       -0.000056539392 Rises=F Damp=F
 DIIS: error= 2.02D-04 at cycle   5 NSaved=   5.
 NSaved= 5 IEnMin= 5 EnMin= -152.090936482199     IErMin= 5 ErrMin= 2.02D-04
 ErrMax= 2.02D-04  0.00D+00 EMaxC= 1.00D-01 BMatC= 1.49D-06 BMatP= 3.90D-05
 IDIUse=3 WtCom= 9.98D-01 WtEn= 2.02D-03
 Coeff-Com:  0.580D-03-0.213D-03-0.302D-02-0.185D+00 0.119D+01
 Coeff-En:   0.000D+00 0.000D+00 0.000D+00 0.000D+00 0.100D+01
 Coeff:      0.579D-03-0.213D-03-0.302D-02-0.185D+00 0.119D+01
 Gap=     0.602 Goal=   None    Shift=    0.000
 RMSDP=1.43D-05 MaxDP=2.84D-04 DE=-5.65D-05 OVMax= 7.72D-04

 Cycle   6  Pass 1  IDiag  1:
 E= -152.090939364504     Delta-E=       -0.000002882305 Rises=F Damp=F
 DIIS: error= 3.35D-05 at cycle   6 NSaved=   6.
 NSaved= 6 IEnMin= 6 EnMin= -152.090939364504     IErMin= 6 ErrMin= 3.35D-05
 ErrMax= 3.35D-05  0.00D+00 EMaxC= 1.00D-01 BMatC= 5.87D-08 BMatP= 1.49D-06
 IDIUse=1 WtCom= 1.00D+00 WtEn= 0.00D+00
 Coeff-Com: -0.246D-03 0.204D-02 0.833D-02-0.469D-01-0.350D-01 0.107D+01
 Coeff:     -0.246D-03 0.204D-02 0.833D-02-0.469D-01-0.350D-01 0.107D+01
 Gap=     0.602 Goal=   None    Shift=    0.000
 RMSDP=3.66D-06 MaxDP=1.20D-04 DE=-2.88D-06 OVMax= 1.47D-04

 Cycle   7  Pass 1  IDiag  1:
 E= -152.090939485358     Delta-E=       -0.000000120855 Rises=F Damp=F
 DIIS: error= 1.00D-05 at cycle   7 NSaved=   7.
 NSaved= 7 IEnMin= 7 EnMin= -152.090939485358     IErMin= 7 ErrMin= 1.00D-05
 ErrMax= 1.00D-05  0.00D+00 EMaxC= 1.00D-01 BMatC= 1.07D-08 BMatP= 5.87D-08
 IDIUse=1 WtCom= 1.00D+00 WtEn= 0.00D+00
 Coeff-Com: -0.108D-03 0.405D-03 0.176D-02 0.114D-01-0.141D+00 0.269D+00
 Coeff-Com:  0.858D+00
 Coeff:     -0.108D-03 0.405D-03 0.176D-02 0.114D-01-0.141D+00 0.269D+00
 Coeff:      0.858D+00
 Gap=     0.602 Goal=   None    Shift=    0.000
 RMSDP=9.70D-07 MaxDP=2.81D-05 DE=-1.21D-07 OVMax= 4.70D-05

 Cycle   8  Pass 1  IDiag  1:
 E= -152.090939497834     Delta-E=       -0.000000012475 Rises=F Damp=F
 DIIS: error= 2.32D-06 at cycle   8 NSaved=   8.
 NSaved= 8 IEnMin= 8 EnMin= -152.090939497834     IErMin= 8 ErrMin= 2.32D-06
 ErrMax= 2.32D-06  0.00D+00 EMaxC= 1.00D-01 BMatC= 5.73D-10 BMatP= 1.07D-08
 IDIUse=1 WtCom= 1.00D+00 WtEn= 0.00D+00
 Coeff-Com:  0.254D-04-0.238D-03-0.969D-03 0.648D-02-0.167D-02-0.931D-01
 Coeff-Com:  0.548D-02 0.108D+01
 Coeff:      0.254D-04-0.238D-03-0.969D-03 0.648D-02-0.167D-02-0.931D-01
 Coeff:      0.548D-02 0.108D+01
 Gap=     0.602 Goal=   None    Shift=    0.000
 RMSDP=2.58D-07 MaxDP=5.89D-06 DE=-1.25D-08 OVMax= 1.42D-05

 Cycle   9  Pass 1  IDiag  1:
 E= -152.090939498870     Delta-E=       -0.000000001036 Rises=F Damp=F
 DIIS: error= 9.02D-07 at cycle   9 NSaved=   9.
 NSaved= 9 IEnMin= 9 EnMin= -152.090939498870     IErMin= 9 ErrMin= 9.02D-07
 ErrMax= 9.02D-07  0.00D+00 EMaxC= 1.00D-01 BMatC= 3.76D-11 BMatP= 5.73D-10
 IDIUse=1 WtCom= 1.00D+00 WtEn= 0.00D+00
 Coeff-Com:  0.309D-05 0.169D-04 0.854D-04-0.242D-02 0.112D-01 0.452D-03
 Coeff-Com: -0.636D-01-0.217D+00 0.127D+01
 Coeff:      0.309D-05 0.169D-04 0.854D-04-0.242D-02 0.112D-01 0.452D-03
 Coeff:     -0.636D-01-0.217D+00 0.127D+01
 Gap=     0.602 Goal=   None    Shift=    0.000
 RMSDP=7.20D-08 MaxDP=1.52D-06 DE=-1.04D-09 OVMax= 3.92D-06

 Cycle  10  Pass 1  IDiag  1:
 E= -152.090939498954     Delta-E=       -0.000000000084 Rises=F Damp=F
 DIIS: error= 1.40D-07 at cycle  10 NSaved=  10.
 NSaved=10 IEnMin=10 EnMin= -152.090939498954     IErMin=10 ErrMin= 1.40D-07
 ErrMax= 1.40D-07  0.00D+00 EMaxC= 1.00D-01 BMatC= 1.10D-12 BMatP= 3.76D-11
 IDIUse=1 WtCom= 1.00D+00 WtEn= 0.00D+00
 Coeff-Com: -0.111D-05 0.404D-05 0.116D-04 0.191D-03-0.129D-02 0.732D-03
 Coeff-Com:  0.984D-02 0.219D-01-0.289D+00 0.126D+01
 Coeff:     -0.111D-05 0.404D-05 0.116D-04 0.191D-03-0.129D-02 0.732D-03
 Coeff:      0.984D-02 0.219D-01-0.289D+00 0.126D+01
 Gap=     0.602 Goal=   None    Shift=    0.000
 RMSDP=1.24D-08 MaxDP=2.30D-07 DE=-8.39D-11 OVMax= 7.57D-07

 Cycle  11  Pass 1  IDiag  1:
 E= -152.090939498957     Delta-E=       -0.000000000003 Rises=F Damp=F
 DIIS: error= 2.79D-08 at cycle  11 NSaved=  11.
 NSaved=11 IEnMin=11 EnMin= -152.090939498957     IErMin=11 ErrMin= 2.79D-08
 ErrMax= 2.79D-08  0.00D+00 EMaxC= 1.00D-01 BMatC= 4.14D-14 BMatP= 1.10D-12
 IDIUse=1 WtCom= 1.00D+00 WtEn= 0.00D+00
 Coeff-Com:  0.447D-07-0.136D-05-0.594D-05 0.731D-04-0.245D-03-0.304D-03
 Coeff-Com:  0.128D-02 0.835D-02-0.214D-01-0.169D+00 0.118D+01
 Coeff:      0.447D-07-0.136D-05-0.594D-05 0.731D-04-0.245D-03-0.304D-03
 Coeff:      0.128D-02 0.835D-02-0.214D-01-0.169D+00 0.118D+01
 Gap=     0.602 Goal=   None    Shift=    0.000
 RMSDP=3.84D-09 MaxDP=1.25D-07 DE=-3.18D-12 OVMax= 1.77D-07

 SCF Done:  E(RHF) =  -152.090939499     A.U. after   11 cycles
            NFock= 11  Conv=0.38D-08     -V/T= 2.0012
 KE= 1.519071870854D+02 PE=-4.405015321726D+02 EE= 9.717029907020D+01
 Leave Link  502 at Fri Aug 26 19:08:01 2022, MaxMem=   536870912 cpu:               5.9 elap:               1.6
 (Enter /usr/site/hpc/x86_64/glibc-2.17/broadwell/gaussian/g16_a.03/pgi-16.5/g16/l801.exe)
 Windowed orbitals will be sorted by symmetry type.
 ExpMin= 1.03D-01 ExpMax= 1.53D+04 ExpMxC= 5.22D+02 IAcc=3 IRadAn=         5 AccDes= 0.00D+00
 HarFok:  IExCor=  205 AccDes= 0.00D+00 IRadAn=         5 IDoV=-2 UseB2=F ITyADJ=14
 ICtDFT= 12500011 ScaDFX=  1.000000  1.000000  1.000000  1.000000
 Largest valence mixing into a core orbital is  1.12D-04
 Largest core mixing into a valence orbital is  1.84D-05
 Range of M.O.s used for correlation:     3   116
 NBasis=   116 NAE=    10 NBE=    10 NFC=     2 NFV=     0
 NROrb=    114 NOA=     8 NOB=     8 NVA=   106 NVB=   106
 Leave Link  801 at Fri Aug 26 19:08:01 2022, MaxMem=   536870912 cpu:               0.4 elap:               0.1
 (Enter /usr/site/hpc/x86_64/glibc-2.17/broadwell/gaussian/g16_a.03/pgi-16.5/g16/l804.exe)
 Closed-shell transformation, MDV=   536870912 ITran=4 ISComp=2.
 Unit  1 TFree=        834515 TCopy=        406125.
 Semi-Direct transformation.
 ModeAB=           2 MOrb=             8 LenV=     536360923
 LASXX=      2873146 LTotXX=     2873146 LenRXX=     2873146
 LTotAB=     2958132 MaxLAS=     7765680 LenRXY=     7765680
 NonZer=     7952640 LenScr=    12058624 LnRSAI=           0
 LnScr1=           0 LExtra=           0 Total=     22697450
 MaxDsk=          -1 SrtSym=           F ITran=            4
 DoSDTr:  NPSUse=  4
 JobTyp=0 Pass  1:  I=   1 to   8.
 (rs|ai) integrals will be sorted in core.
 Complete sort for first half transformation.
 First half transformation complete.
 Complete sort for second half transformation.
 Second half transformation complete.
 Spin components of T(2) and E(2):
     alpha-alpha T2 =       0.1595132711D-01 E2=     -0.6489867212D-01
     alpha-beta  T2 =       0.9299119074D-01 E2=     -0.4011653319D+00
     beta-beta   T2 =       0.1595132711D-01 E2=     -0.6489867212D-01
 ANorm=    0.1060610129D+01
 E2 =    -0.5309626761D+00 EUMP2 =    -0.15262190217507D+03
 Leave Link  804 at Fri Aug 26 19:08:03 2022, MaxMem=   536870912 cpu:               6.3 elap:               1.6
 (Enter /usr/site/hpc/x86_64/glibc-2.17/broadwell/gaussian/g16_a.03/pgi-16.5/g16/l913.exe)
 CIDS:  MDV=   536870912.
 Frozen-core window:  NFC=   2 NFV=   0.
 IFCWin=0 IBDFC=1 NFBD=     0     0 NFCmp=     0     0 NFFFC=     0     0
 Using DD3R+UMP44R for 1st iteration.
 Using DD4RQ for 2nd and later iterations.
 Keep R2 and R3 ints in memory in symmetry-blocked form, NReq=35357534.
 FoFCou: FMM=F IPFlag=           0 FMFlag=           0 FMFlg1=           0
         NFxFlg=           0 DoJE=F BraDBF=F KetDBF=F FulRan=T
         wScrn=  0.000000 ICntrl=       600 IOpCl=  0 I1Cent=           0 NGrid=           0
         NMat0=    1 NMatS0=   6786 NMatT0=    0 NMatD0=    1 NMtDS0=    0 NMtDT0=    0
 Petite list used in FoFCou.
 CIDS: In Core Option IDoMem=           1.
 CCSD(T)
 =======
 Iterations=  50 Convergence= 0.100D-06
 Produce multiple copies of IABC intergrals
 Iteration Nr.   1
 **********************
 DD1Dir will call FoFMem   1 times, MxPair=        72
 NAB=    36 NAA=     0 NBB=     0.
 MP4(R+Q)=  0.79388406D-02
 Maximum subspace dimension=  5
 A-vector RMS=  1.9179428D-03 Max=  9.1260876D-03 conv= 1.00D-05.
 RLE energy=       -0.5297774132
 E3=       -0.68211525D-02        EUMP3=      -0.15262872333D+03
 E4(DQ)=   -0.13259733D-02        UMP4(DQ)=   -0.15263004930D+03
 E4(SDQ)=  -0.46150084D-02        UMP4(SDQ)=  -0.15263333834D+03
 VARIATIONAL ENERGIES WITH THE FIRST-ORDER WAVEFUNCTION:
 DE(Corr)= -0.52977477     E(Corr)=     -152.62071427    
 NORM(A)=   0.10607088D+01
 Iteration Nr.   2
 **********************
 DD1Dir will call FoFMem   1 times, MxPair=        72
 NAB=    36 NAA=     0 NBB=     0.
 A-vector RMS=  2.1138657D-04 Max=  1.4746850D-03 conv= 1.00D-05.
 RLE energy=       -0.5411171492
 DE(Corr)= -0.54002624     E(CORR)=     -152.63096573     Delta=-1.03D-02
 NORM(A)=   0.10645981D+01
 Iteration Nr.   3
 **********************
 DD1Dir will call FoFMem   1 times, MxPair=        72
 NAB=    36 NAA=     0 NBB=     0.
 A-vector RMS=  1.9467996D-04 Max=  1.8133098D-03 conv= 1.00D-05.
 RLE energy=       -0.5416328586
 DE(Corr)= -0.54101083     E(CORR)=     -152.63195033     Delta=-9.85D-04
 NORM(A)=   0.10652722D+01
 Iteration Nr.   4
 **********************
 DD1Dir will call FoFMem   1 times, MxPair=        72
 NAB=    36 NAA=     0 NBB=     0.
 A-vector RMS=  3.9566930D-05 Max=  2.4794397D-04 conv= 1.00D-05.
 RLE energy=       -0.5417106425
 DE(Corr)= -0.54167429     E(CORR)=     -152.63261379     Delta=-6.63D-04
 NORM(A)=   0.10654033D+01
 Iteration Nr.   5
 **********************
 DD1Dir will call FoFMem   1 times, MxPair=        72
 NAB=    36 NAA=     0 NBB=     0.
 A-vector RMS=  2.6152565D-05 Max=  2.9726463D-04 conv= 1.00D-05.
 RLE energy=       -0.5417284660
 DE(Corr)= -0.54171902     E(CORR)=     -152.63265852     Delta=-4.47D-05
 NORM(A)=   0.10654247D+01
 Iteration Nr.   6
 **********************
 DD1Dir will call FoFMem   1 times, MxPair=        72
 NAB=    36 NAA=     0 NBB=     0.
 A-vector RMS=  7.8416931D-06 Max=  7.4363425D-05 conv= 1.00D-05.
 RLE energy=       -0.5417191430
 DE(Corr)= -0.54172365     E(CORR)=     -152.63266315     Delta=-4.63D-06
 NORM(A)=   0.10654256D+01
 Iteration Nr.   7
 **********************
 DD1Dir will call FoFMem   1 times, MxPair=        72
 NAB=    36 NAA=     0 NBB=     0.
 A-vector RMS=  3.1491954D-06 Max=  3.3000941D-05 conv= 1.00D-05.
 RLE energy=       -0.5417220988
 DE(Corr)= -0.54172386     E(CORR)=     -152.63266335     Delta=-2.07D-07
 NORM(A)=   0.10654277D+01
 Iteration Nr.   8
 **********************
 DD1Dir will call FoFMem   1 times, MxPair=        72
 NAB=    36 NAA=     0 NBB=     0.
 A-vector RMS=  1.3172614D-06 Max=  1.3075244D-05 conv= 1.00D-05.
 RLE energy=       -0.5417229358
 DE(Corr)= -0.54172325     E(CORR)=     -152.63266275     Delta= 6.03D-07
 NORM(A)=   0.10654285D+01
 Iteration Nr.   9
 **********************
 DD1Dir will call FoFMem   1 times, MxPair=        72
 NAB=    36 NAA=     0 NBB=     0.
 A-vector RMS=  2.6183125D-07 Max=  2.7150314D-06 conv= 1.00D-05.
 RLE energy=       -0.5417232484
 DE(Corr)= -0.54172331     E(CORR)=     -152.63266281     Delta=-6.19D-08
 NORM(A)=   0.10654289D+01
 CI/CC converged in    9 iterations to DelEn=-6.19D-08 Conv= 1.00D-07 ErrA1= 2.62D-07 Conv= 1.00D-05
 Wavefunction amplitudes converged. E(Corr)=     -152.63266281    
 Largest amplitude= 2.74D-02
 IPart=  3 IA=    7   11.05% done.
 IPart=  4 IA=   13   21.46% done.
 IPart=  4 IA=   19   31.21% done.
 IPart=  3 IA=   25   40.32% done.
 IPart=  2 IA=   32   50.13% done.
 IPart=  2 IA=   40   60.27% done.
 IPart=  4 IA=   49   70.30% done.
 IPart=  2 IA=   60   80.58% done.
 IPart=  1 IA=   74   90.51% done.
 Time for triples=       72.91 seconds.
 T4(CCSD)= -0.16755194D-01
 T5(CCSD)=  0.45502452D-03
 CCSD(T)= -0.15264896298D+03
 Discarding MO integrals.
 Leave Link  913 at Fri Aug 26 19:08:29 2022, MaxMem=   536870912 cpu:             104.7 elap:              26.3
 (Enter /usr/site/hpc/x86_64/glibc-2.17/broadwell/gaussian/g16_a.03/pgi-16.5/g16/l601.exe)
 Copying SCF densities to generalized density rwf, IOpCl= 0 IROHF=0.

 **********************************************************************

            Population analysis using the SCF density.

 **********************************************************************

 Orbital symmetries:
       Occupied  (A') (A') (A') (A') (A') (A') (A') (A') (A") (A")
       Virtual   (A') (A') (A') (A') (A') (A') (A') (A') (A') (A")
                 (A') (A") (A') (A") (A") (A') (A') (A") (A') (A")
                 (A') (A') (A') (A') (A') (A') (A') (A') (A") (A")
                 (A") (A') (A") (A') (A') (A') (A') (A') (A') (A')
                 (A') (A') (A") (A") (A') (A") (A') (A") (A') (A')
                 (A") (A") (A') (A') (A") (A") (A') (A") (A') (A')
                 (A") (A') (A') (A") (A') (A") (A') (A') (A') (A')
                 (A") (A") (A') (A') (A') (A') (A') (A') (A') (A')
                 (A") (A") (A') (A') (A") (A") (A") (A") (A') (A")
                 (A") (A') (A') (A') (A") (A') (A") (A') (A') (A')
                 (A') (A') (A') (A') (A') (A')
 The electronic state is 1-A'.
 Alpha  occ. eigenvalues --  -20.54929 -20.52341  -1.33046  -1.29566  -0.70410
 Alpha  occ. eigenvalues --   -0.68104  -0.56130  -0.51535  -0.50117  -0.46510
 Alpha virt. eigenvalues --    0.13684   0.17914   0.19886   0.24279   0.52389
 Alpha virt. eigenvalues --    0.57172   0.59465   0.61203   0.71418   0.74723
 Alpha virt. eigenvalues --    0.78446   0.83020   0.83170   0.84681   0.87595
 Alpha virt. eigenvalues --    0.89045   0.94335   0.99025   1.03840   1.07430
 Alpha virt. eigenvalues --    1.14823   1.19021   1.37638   1.41959   1.51959
 Alpha virt. eigenvalues --    1.54738   1.56550   1.63622   1.99454   2.03573
 Alpha virt. eigenvalues --    2.07466   2.09987   2.10929   2.18940   2.22141
 Alpha virt. eigenvalues --    2.26035   2.28047   2.41376   2.63209   2.78958
 Alpha virt. eigenvalues --    2.93988   3.04377   3.39207   3.42682   3.49599
 Alpha virt. eigenvalues --    3.53179   3.53393   3.56923   3.59644   3.69057
 Alpha virt. eigenvalues --    3.78474   3.82395   3.85343   3.90151   3.93465
 Alpha virt. eigenvalues --    3.96465   3.98920   4.04027   4.04252   4.06815
 Alpha virt. eigenvalues --    4.09242   4.14049   4.20132   4.29255   4.31395
 Alpha virt. eigenvalues --    4.35412   4.43908   4.47435   4.52676   4.62981
 Alpha virt. eigenvalues --    4.66108   4.72583   4.86583   4.90555   5.05760
 Alpha virt. eigenvalues --    5.09203   5.27880   5.36372   5.57897   5.62248
 Alpha virt. eigenvalues --    5.98204   6.01040   6.40499   6.43849   6.86585
 Alpha virt. eigenvalues --    6.88912   6.90310   6.92768   6.96437   6.99084
 Alpha virt. eigenvalues --    7.03183   7.06013   7.07698   7.11289   7.18462
 Alpha virt. eigenvalues --    7.19283   7.22087   7.22671   7.48187   7.65063
 Alpha virt. eigenvalues --    7.73059   7.79016   8.17011   8.30946  12.61745
 Alpha virt. eigenvalues --   13.09252
          Condensed to atoms (all electrons):
               1          2          3          4          5          6
     1  O    7.862965   0.299236   0.326900  -0.050254   0.002120   0.015303
     2  H    0.299236   0.499794  -0.022000   0.002909  -0.000274  -0.003004
     3  H    0.326900  -0.022000   0.450004   0.004347  -0.000258  -0.001944
     4  O   -0.050254   0.002909   0.004347   7.871910   0.305539   0.328733
     5  H    0.002120  -0.000274  -0.000258   0.305539   0.514637  -0.025248
     6  H    0.015303  -0.003004  -0.001944   0.328733  -0.025248   0.436481
 Mulliken charges:
               1
     1  O   -0.456269
     2  H    0.223338
     3  H    0.242952
     4  O   -0.463184
     5  H    0.203484
     6  H    0.249680
 Sum of Mulliken charges =   0.00000
 Mulliken charges with hydrogens summed into heavy atoms:
               1
     1  O    0.010020
     4  O   -0.010020
 Electronic spatial extent (au):  <R**2>=            144.7237
 Charge=              0.0000 electrons
 Dipole moment (field-independent basis, Debye):
    X=             -1.5683    Y=             -1.2841    Z=              0.0000  Tot=              2.0270
 Quadrupole moment (field-independent basis, Debye-Ang):
   XX=             -9.5351   YY=             -4.5712   ZZ=            -14.7205
   XY=             -1.5589   XZ=              0.0000   YZ=              0.0000
 Traceless Quadrupole moment (field-independent basis, Debye-Ang):
   XX=              0.0738   YY=              5.0378   ZZ=             -5.1116
   XY=             -1.5589   XZ=              0.0000   YZ=              0.0000
 Octapole moment (field-independent basis, Debye-Ang**2):
  XXX=             -1.0353  YYY=              1.0509  ZZZ=              0.0000  XYY=             -0.6667
  XXY=             -4.2265  XXZ=              0.0000  XZZ=             -0.1635  YZZ=             -0.2194
  YYZ=              0.0000  XYZ=              0.0000
 Hexadecapole moment (field-independent basis, Debye-Ang**3):
 XXXX=            -11.7916 YYYY=            -80.8143 ZZZZ=            -11.3880 XXXY=             -0.0007
 XXXZ=              0.0000 YYYX=             -1.1258 YYYZ=              0.0000 ZZZX=              0.0000
 ZZZY=              0.0000 XXYY=            -16.7169 XXZZ=             -4.4734 YYZZ=            -26.4969
 XXYZ=              0.0000 YYXZ=              0.0000 ZZXY=              0.5119
 N-N= 3.933310651802D+01 E-N=-4.405015316296D+02  KE= 1.519071870854D+02
 Symmetry A'   KE= 1.428814492640D+02
 Symmetry A"   KE= 9.025737821431D+00
 Leave Link  601 at Fri Aug 26 19:08:29 2022, MaxMem=   536870912 cpu:               0.2 elap:               0.1
 (Enter /usr/site/hpc/x86_64/glibc-2.17/broadwell/gaussian/g16_a.03/pgi-16.5/g16/l9999.exe)
 1\1\GINC-N050\SP\RCCSD(T)-FC\CC-pVTZ\H4O2\C7441284\26-Aug-2022\0\\#p C
 CSD(T)/cc-pVTZ\\H2O_H2O_692\\0,1\O,0,0.,-0.009833,0.\H,0,-0.799571,-0.
 580965,0.\H,0,0.799571,-0.580965,0.\O,0,-0.008819,2.30986,0.\H,0,-0.16
 741,3.279579,0.\H,0,-0.874693,1.845351,0.\\Version=ES64L-G16RevA.03\St
 ate=1-A'\HF=-152.0909395\MP2=-152.6219022\MP3=-152.6287233\MP4D=-152.6
 379881\MP4DQ=-152.6300493\MP4SDQ=-152.6333383\CCSD=-152.6326628\CCSD(T
 )=-152.648963\RMSD=3.837e-09\PG=CS [SG(H4O2)]\\@


 In the race for quality, there is no finish line.
                               -- David T. Kearns
 Job cpu time:       0 days  0 hours  2 minutes  0.6 seconds.
 Elapsed time:       0 days  0 hours  0 minutes 30.7 seconds.
 File lengths (MBytes):  RWF=    572 Int=      0 D2E=      0 Chk=      8 Scr=      8
 Normal termination of Gaussian 16 at Fri Aug 26 19:08:29 2022.
