 Entering Gaussian System, Link 0=g16
 Input=H2O_H2O_2330.com
 Output=H2O_H2O_2330.log
 Initial command:
 /usr/site/hpc/x86_64/glibc-2.17/broadwell/gaussian/g16_a.03/pgi-16.5/g16/l1.exe "/gpfs/gpfs1/scratch/c7441284/ForceFieldModel/FittingData/Gau-3793283.inp" -scrdir="/gpfs/gpfs1/scratch/c7441284/ForceFieldModel/FittingData/"
 Entering Link 1 = /usr/site/hpc/x86_64/glibc-2.17/broadwell/gaussian/g16_a.03/pgi-16.5/g16/l1.exe PID=   3793284.
  
 Copyright (c) 1988,1990,1992,1993,1995,1998,2003,2009,2016,
            Gaussian, Inc.  All Rights Reserved.
  
 This is part of the Gaussian(R) 16 program.  It is based on
 the Gaussian(R) 09 system (copyright 2009, Gaussian, Inc.),
 the Gaussian(R) 03 system (copyright 2003, Gaussian, Inc.),
 the Gaussian(R) 98 system (copyright 1998, Gaussian, Inc.),
 the Gaussian(R) 94 system (copyright 1995, Gaussian, Inc.),
 the Gaussian 92(TM) system (copyright 1992, Gaussian, Inc.),
 the Gaussian 90(TM) system (copyright 1990, Gaussian, Inc.),
 the Gaussian 88(TM) system (copyright 1988, Gaussian, Inc.),
 the Gaussian 86(TM) system (copyright 1986, Carnegie Mellon
 University), and the Gaussian 82(TM) system (copyright 1983,
 Carnegie Mellon University). Gaussian is a federally registered
 trademark of Gaussian, Inc.
  
 This software contains proprietary and confidential information,
 including trade secrets, belonging to Gaussian, Inc.
  
 This software is provided under written license and may be
 used, copied, transmitted, or stored only in accord with that
 written license.
  
 The following legend is applicable only to US Government
 contracts under FAR:
  
                    RESTRICTED RIGHTS LEGEND
  
 Use, reproduction and disclosure by the US Government is
 subject to restrictions as set forth in subparagraphs (a)
 and (c) of the Commercial Computer Software - Restricted
 Rights clause in FAR 52.227-19.
  
 Gaussian, Inc.
 340 Quinnipiac St., Bldg. 40, Wallingford CT 06492
  
  
 ---------------------------------------------------------------
 Warning -- This program may not be used in any manner that
 competes with the business of Gaussian, Inc. or will provide
 assistance to any competitor of Gaussian, Inc.  The licensee
 of this program is prohibited from giving any competitor of
 Gaussian, Inc. access to this program.  By using this program,
 the user acknowledges that Gaussian, Inc. is engaged in the
 business of creating and licensing software in the field of
 computational chemistry and represents and warrants to the
 licensee that it is not a competitor of Gaussian, Inc. and that
 it will not use this program in any manner prohibited above.
 ---------------------------------------------------------------
  

 Cite this work as:
 Gaussian 16, Revision A.03,
 M. J. Frisch, G. W. Trucks, H. B. Schlegel, G. E. Scuseria, 
 M. A. Robb, J. R. Cheeseman, G. Scalmani, V. Barone, 
 G. A. Petersson, H. Nakatsuji, X. Li, M. Caricato, A. V. Marenich, 
 J. Bloino, B. G. Janesko, R. Gomperts, B. Mennucci, H. P. Hratchian, 
 J. V. Ortiz, A. F. Izmaylov, J. L. Sonnenberg, D. Williams-Young, 
 F. Ding, F. Lipparini, F. Egidi, J. Goings, B. Peng, A. Petrone, 
 T. Henderson, D. Ranasinghe, V. G. Zakrzewski, J. Gao, N. Rega, 
 G. Zheng, W. Liang, M. Hada, M. Ehara, K. Toyota, R. Fukuda, 
 J. Hasegawa, M. Ishida, T. Nakajima, Y. Honda, O. Kitao, H. Nakai, 
 T. Vreven, K. Throssell, J. A. Montgomery, Jr., J. E. Peralta, 
 F. Ogliaro, M. J. Bearpark, J. J. Heyd, E. N. Brothers, K. N. Kudin, 
 V. N. Staroverov, T. A. Keith, R. Kobayashi, J. Normand, 
 K. Raghavachari, A. P. Rendell, J. C. Burant, S. S. Iyengar, 
 J. Tomasi, M. Cossi, J. M. Millam, M. Klene, C. Adamo, R. Cammi, 
 J. W. Ochterski, R. L. Martin, K. Morokuma, O. Farkas, 
 J. B. Foresman, and D. J. Fox, Gaussian, Inc., Wallingford CT, 2016.
 
 ******************************************
 Gaussian 16:  ES64L-G16RevA.03 25-Dec-2016
                27-Aug-2022 
 ******************************************
 %NProcShared=4
 Will use up to    4 processors via shared memory.
 %Mem=4GB
 %Chk=H2O_H2O_2330.chk
 ------------------
 #p CCSD(T)/cc-pVTZ
 ------------------
 1/38=1,172=1/1;
 2/12=2,17=6,18=5,40=1/2;
 3/5=16,6=1,11=9,25=1,30=1/1,2,3;
 4//1;
 5/5=2,38=5/2;
 8/6=4,9=120000,10=1/1,4;
 9/5=7,14=2/13;
 6/7=2,8=2,9=2,10=2/1;
 99/5=1,9=1/99;
 Leave Link    1 at Sat Aug 27 09:54:17 2022, MaxMem=   536870912 cpu:               0.2 elap:               0.1
 (Enter /usr/site/hpc/x86_64/glibc-2.17/broadwell/gaussian/g16_a.03/pgi-16.5/g16/l101.exe)
 ------------
 H2O_H2O_2330
 ------------
 Symbolic Z-matrix:
 Charge =  0 Multiplicity = 1
 O                     0.       -0.00983   0. 
 H                    -0.79957  -0.58097   0. 
 H                     0.79957  -0.58097   0. 
 O                    -0.00316   4.06988   0. 
 H                     0.57039   4.86772   0. 
 H                    -0.94388   4.35369   0. 
 
 ITRead=  0  0  0  0  0  0
 MicOpt= -1 -1 -1 -1 -1 -1
 NAtoms=      6 NQM=        6 NQMF=       0 NMMI=      0 NMMIF=      0
                NMic=       0 NMicF=      0.
                    Isotopes and Nuclear Properties:
 (Nuclear quadrupole moments (NQMom) in fm**2, nuclear magnetic moments (NMagM)
  in nuclear magnetons)

  Atom         1           2           3           4           5           6
 IAtWgt=          16           1           1          16           1           1
 AtmWgt=  15.9949146   1.0078250   1.0078250  15.9949146   1.0078250   1.0078250
 NucSpn=           0           1           1           0           1           1
 AtZEff=  -0.0000000  -0.0000000  -0.0000000  -0.0000000  -0.0000000  -0.0000000
 NQMom=    0.0000000   0.0000000   0.0000000   0.0000000   0.0000000   0.0000000
 NMagM=    0.0000000   2.7928460   2.7928460   0.0000000   2.7928460   2.7928460
 AtZNuc=   8.0000000   1.0000000   1.0000000   8.0000000   1.0000000   1.0000000
 Leave Link  101 at Sat Aug 27 09:54:17 2022, MaxMem=   536870912 cpu:               0.3 elap:               0.1
 (Enter /usr/site/hpc/x86_64/glibc-2.17/broadwell/gaussian/g16_a.03/pgi-16.5/g16/l202.exe)
                          Input orientation:                          
 ---------------------------------------------------------------------
 Center     Atomic      Atomic             Coordinates (Angstroms)
 Number     Number       Type             X           Y           Z
 ---------------------------------------------------------------------
      1          8           0        0.000000   -0.009833    0.000000
      2          1           0       -0.799571   -0.580965    0.000000
      3          1           0        0.799571   -0.580965    0.000000
      4          8           0       -0.003161    4.069882    0.000000
      5          1           0        0.570393    4.867718    0.000000
      6          1           0       -0.943883    4.353691    0.000000
 ---------------------------------------------------------------------
                    Distance matrix (angstroms):
                    1          2          3          4          5
     1  O    0.000000
     2  H    0.982601   0.000000
     3  H    0.982601   1.599142   0.000000
     4  O    4.079716   4.718543   4.719614   0.000000
     5  H    4.910789   5.618269   5.453501   0.982602   0.000000
     6  H    4.464444   4.936766   5.233590   0.982601   1.599142
                    6
     6  H    0.000000
 Stoichiometry    H4O2
 Framework group  CS[SG(H4O2)]
 Deg. of freedom     9
 Full point group                 CS      NOp   2
 Largest Abelian subgroup         CS      NOp   2
 Largest concise Abelian subgroup C1      NOp   1
                         Standard orientation:                         
 ---------------------------------------------------------------------
 Center     Atomic      Atomic             Coordinates (Angstroms)
 Number     Number       Type             X           Y           Z
 ---------------------------------------------------------------------
      1          8           0        0.018361   -2.036841    0.000000
      2          1           0       -0.781653   -2.607354    0.000000
      3          1           0        0.817489   -2.608593    0.000000
      4          8           0        0.018361    2.042875    0.000000
      5          1           0        0.592533    2.840266    0.000000
      6          1           0       -0.922141    2.327413    0.000000
 ---------------------------------------------------------------------
 Rotational constants (GHZ):         201.6227301           3.1505153           3.1020434
 Leave Link  202 at Sat Aug 27 09:54:17 2022, MaxMem=   536870912 cpu:               0.0 elap:               0.0
 (Enter /usr/site/hpc/x86_64/glibc-2.17/broadwell/gaussian/g16_a.03/pgi-16.5/g16/l301.exe)
 Standard basis: CC-pVTZ (5D, 7F)
 Ernie: Thresh=  0.10000D-02 Tol=  0.10000D-05 Strict=F.
 Ernie:  6 primitive shells out of 84 were deleted.
 There are    92 symmetry adapted cartesian basis functions of A'  symmetry.
 There are    38 symmetry adapted cartesian basis functions of A"  symmetry.
 There are    80 symmetry adapted basis functions of A'  symmetry.
 There are    36 symmetry adapted basis functions of A"  symmetry.
   116 basis functions,   172 primitive gaussians,   130 cartesian basis functions
    10 alpha electrons       10 beta electrons
       nuclear repulsion energy        30.2007442027 Hartrees.
 IExCor=    0 DFT=F Ex=HF Corr=None ExCW=0 ScaHFX=  1.000000
 ScaDFX=  1.000000  1.000000  1.000000  1.000000 ScalE2=  1.000000  1.000000
 IRadAn=      5 IRanWt=     -1 IRanGd=            0 ICorTp=0 IEmpDi=  4
 NAtoms=    6 NActive=    6 NUniq=    6 SFac= 1.00D+00 NAtFMM=   60 NAOKFM=F Big=F
 Integral buffers will be    131072 words long.
 Raffenetti 1 integral format.
 Two-electron integral symmetry is turned on.
 Leave Link  301 at Sat Aug 27 09:54:17 2022, MaxMem=   536870912 cpu:               0.2 elap:               0.1
 (Enter /usr/site/hpc/x86_64/glibc-2.17/broadwell/gaussian/g16_a.03/pgi-16.5/g16/l302.exe)
 NPDir=0 NMtPBC=     1 NCelOv=     1 NCel=       1 NClECP=     1 NCelD=      1
         NCelK=      1 NCelE2=     1 NClLst=     1 CellRange=     0.0.
 One-electron integrals computed using PRISM.
 One-electron integral symmetry used in STVInt
 NBasis=   116 RedAO= T EigKep=  2.50D-03  NBF=    80    36
 NBsUse=   116 1.00D-06 EigRej= -1.00D+00 NBFU=    80    36
 Leave Link  302 at Sat Aug 27 09:54:17 2022, MaxMem=   536870912 cpu:               0.4 elap:               0.1
 (Enter /usr/site/hpc/x86_64/glibc-2.17/broadwell/gaussian/g16_a.03/pgi-16.5/g16/l303.exe)
 DipDrv:  MaxL=1.
 Leave Link  303 at Sat Aug 27 09:54:17 2022, MaxMem=   536870912 cpu:               0.1 elap:               0.0
 (Enter /usr/site/hpc/x86_64/glibc-2.17/broadwell/gaussian/g16_a.03/pgi-16.5/g16/l401.exe)
 ExpMin= 1.03D-01 ExpMax= 1.53D+04 ExpMxC= 5.22D+02 IAcc=3 IRadAn=         5 AccDes= 0.00D+00
 Harris functional with IExCor=  205 and IRadAn=       5 diagonalized for initial guess.
 HarFok:  IExCor=  205 AccDes= 0.00D+00 IRadAn=         5 IDoV= 1 UseB2=F ITyADJ=14
 ICtDFT=  3500011 ScaDFX=  1.000000  1.000000  1.000000  1.000000
 FoFCou: FMM=F IPFlag=           0 FMFlag=      100000 FMFlg1=           0
         NFxFlg=           0 DoJE=T BraDBF=F KetDBF=T FulRan=T
         wScrn=  0.000000 ICntrl=       500 IOpCl=  0 I1Cent=   200000004 NGrid=           0
         NMat0=    1 NMatS0=      1 NMatT0=    0 NMatD0=    1 NMtDS0=    0 NMtDT0=    0
 Petite list used in FoFCou.
 Harris En= -152.298846995723    
 JPrj=0 DoOrth=F DoCkMO=F.
 Initial guess orbital symmetries:
       Occupied  (A') (A') (A') (A') (A') (A') (A') (A') (A") (A")
       Virtual   (A') (A') (A') (A') (A') (A') (A') (A') (A') (A')
                 (A") (A") (A') (A') (A') (A") (A") (A') (A") (A")
                 (A') (A') (A') (A') (A') (A') (A') (A') (A") (A")
                 (A") (A") (A') (A') (A') (A') (A') (A') (A') (A')
                 (A') (A') (A") (A") (A') (A') (A") (A") (A") (A")
                 (A') (A') (A') (A') (A') (A') (A") (A") (A') (A')
                 (A') (A') (A") (A") (A") (A") (A') (A') (A') (A')
                 (A") (A") (A') (A') (A') (A') (A') (A') (A') (A')
                 (A") (A") (A') (A') (A") (A") (A") (A") (A') (A')
                 (A") (A") (A') (A') (A') (A') (A") (A") (A') (A')
                 (A') (A') (A') (A') (A') (A')
 The electronic state of the initial guess is 1-A'.
 Leave Link  401 at Sat Aug 27 09:54:17 2022, MaxMem=   536870912 cpu:               0.7 elap:               0.2
 (Enter /usr/site/hpc/x86_64/glibc-2.17/broadwell/gaussian/g16_a.03/pgi-16.5/g16/l502.exe)
 Keep R1 ints in memory in symmetry-blocked form, NReq=34823457.
 FoFCou: FMM=F IPFlag=           0 FMFlag=           0 FMFlg1=           0
         NFxFlg=           0 DoJE=F BraDBF=F KetDBF=F FulRan=T
         wScrn=  0.000000 ICntrl=       600 IOpCl=  0 I1Cent=           0 NGrid=           0
         NMat0=    1 NMatS0=   6786 NMatT0=    0 NMatD0=    1 NMtDS0=    0 NMtDT0=    0
 Petite list used in FoFCou.
 Closed shell SCF:
 Using DIIS extrapolation, IDIIS=  1040.
 NGot=   536870912 LenX=   525040673 LenY=   525023332
 Requested convergence on RMS density matrix=1.00D-08 within 128 cycles.
 Requested convergence on MAX density matrix=1.00D-06.
 Requested convergence on             energy=1.00D-06.
 No special actions if energy rises.

 Cycle   1  Pass 1  IDiag  1:
 E= -151.922873066661    
 DIIS: error= 6.60D-02 at cycle   1 NSaved=   1.
 NSaved= 1 IEnMin= 1 EnMin= -151.922873066661     IErMin= 1 ErrMin= 6.60D-02
 ErrMax= 6.60D-02  0.00D+00 EMaxC= 1.00D-01 BMatC= 4.02D-01 BMatP= 4.02D-01
 IDIUse=3 WtCom= 3.40D-01 WtEn= 6.60D-01
 Coeff-Com:  0.100D+01
 Coeff-En:   0.100D+01
 Coeff:      0.100D+01
 Gap=     0.510 Goal=   None    Shift=    0.000
 GapD=    0.510 DampG=2.000 DampE=0.500 DampFc=1.0000 IDamp=-1.
 RMSDP=2.56D-03 MaxDP=6.58D-02              OVMax= 1.29D-01

 Cycle   2  Pass 1  IDiag  1:
 E= -152.035294991119     Delta-E=       -0.112421924458 Rises=F Damp=F
 DIIS: error= 4.18D-02 at cycle   2 NSaved=   2.
 NSaved= 2 IEnMin= 2 EnMin= -152.035294991119     IErMin= 2 ErrMin= 4.18D-02
 ErrMax= 4.18D-02  0.00D+00 EMaxC= 1.00D-01 BMatC= 1.15D-01 BMatP= 4.02D-01
 IDIUse=3 WtCom= 5.82D-01 WtEn= 4.18D-01
 Coeff-Com:  0.321D+00 0.679D+00
 Coeff-En:   0.170D+00 0.830D+00
 Coeff:      0.258D+00 0.742D+00
 Gap=     0.656 Goal=   None    Shift=    0.000
 RMSDP=1.37D-03 MaxDP=3.94D-02 DE=-1.12D-01 OVMax= 5.78D-02

 Cycle   3  Pass 1  IDiag  1:
 E= -152.101535551232     Delta-E=       -0.066240560113 Rises=F Damp=F
 DIIS: error= 9.01D-03 at cycle   3 NSaved=   3.
 NSaved= 3 IEnMin= 3 EnMin= -152.101535551232     IErMin= 3 ErrMin= 9.01D-03
 ErrMax= 9.01D-03  0.00D+00 EMaxC= 1.00D-01 BMatC= 6.04D-03 BMatP= 1.15D-01
 IDIUse=3 WtCom= 9.10D-01 WtEn= 9.01D-02
 Coeff-Com: -0.307D-01 0.155D+00 0.876D+00
 Coeff-En:   0.000D+00 0.000D+00 0.100D+01
 Coeff:     -0.280D-01 0.141D+00 0.887D+00
 Gap=     0.628 Goal=   None    Shift=    0.000
 RMSDP=2.51D-04 MaxDP=5.66D-03 DE=-6.62D-02 OVMax= 1.36D-02

 Cycle   4  Pass 1  IDiag  1:
 E= -152.105322038788     Delta-E=       -0.003786487556 Rises=F Damp=F
 DIIS: error= 8.70D-04 at cycle   4 NSaved=   4.
 NSaved= 4 IEnMin= 4 EnMin= -152.105322038788     IErMin= 4 ErrMin= 8.70D-04
 ErrMax= 8.70D-04  0.00D+00 EMaxC= 1.00D-01 BMatC= 3.92D-05 BMatP= 6.04D-03
 IDIUse=3 WtCom= 9.91D-01 WtEn= 8.70D-03
 Coeff-Com:  0.678D-02-0.611D-01-0.238D+00 0.129D+01
 Coeff-En:   0.000D+00 0.000D+00 0.000D+00 0.100D+01
 Coeff:      0.672D-02-0.605D-01-0.236D+00 0.129D+01
 Gap=     0.631 Goal=   None    Shift=    0.000
 RMSDP=5.33D-05 MaxDP=1.04D-03 DE=-3.79D-03 OVMax= 2.38D-03

 Cycle   5  Pass 1  IDiag  1:
 E= -152.105374832027     Delta-E=       -0.000052793239 Rises=F Damp=F
 DIIS: error= 1.98D-04 at cycle   5 NSaved=   5.
 NSaved= 5 IEnMin= 5 EnMin= -152.105374832027     IErMin= 5 ErrMin= 1.98D-04
 ErrMax= 1.98D-04  0.00D+00 EMaxC= 1.00D-01 BMatC= 1.42D-06 BMatP= 3.92D-05
 IDIUse=3 WtCom= 9.98D-01 WtEn= 1.98D-03
 Coeff-Com:  0.637D-03-0.257D-03-0.577D-02-0.204D+00 0.121D+01
 Coeff-En:   0.000D+00 0.000D+00 0.000D+00 0.000D+00 0.100D+01
 Coeff:      0.636D-03-0.256D-03-0.576D-02-0.204D+00 0.121D+01
 Gap=     0.631 Goal=   None    Shift=    0.000
 RMSDP=1.40D-05 MaxDP=2.87D-04 DE=-5.28D-05 OVMax= 6.97D-04

 Cycle   6  Pass 1  IDiag  1:
 E= -152.105377767217     Delta-E=       -0.000002935190 Rises=F Damp=F
 DIIS: error= 3.09D-05 at cycle   6 NSaved=   6.
 NSaved= 6 IEnMin= 6 EnMin= -152.105377767217     IErMin= 6 ErrMin= 3.09D-05
 ErrMax= 3.09D-05  0.00D+00 EMaxC= 1.00D-01 BMatC= 3.84D-08 BMatP= 1.42D-06
 IDIUse=1 WtCom= 1.00D+00 WtEn= 0.00D+00
 Coeff-Com: -0.295D-03 0.174D-02 0.751D-02-0.276D-02-0.261D+00 0.125D+01
 Coeff:     -0.295D-03 0.174D-02 0.751D-02-0.276D-02-0.261D+00 0.125D+01
 Gap=     0.631 Goal=   None    Shift=    0.000
 RMSDP=3.07D-06 MaxDP=6.84D-05 DE=-2.94D-06 OVMax= 1.61D-04

 Cycle   7  Pass 1  IDiag  1:
 E= -152.105377874382     Delta-E=       -0.000000107165 Rises=F Damp=F
 DIIS: error= 5.60D-06 at cycle   7 NSaved=   7.
 NSaved= 7 IEnMin= 7 EnMin= -152.105377874382     IErMin= 7 ErrMin= 5.60D-06
 ErrMax= 5.60D-06  0.00D+00 EMaxC= 1.00D-01 BMatC= 2.02D-09 BMatP= 3.84D-08
 IDIUse=1 WtCom= 1.00D+00 WtEn= 0.00D+00
 Coeff-Com:  0.320D-04-0.414D-03-0.167D-02 0.146D-01-0.145D-01-0.230D+00
 Coeff-Com:  0.123D+01
 Coeff:      0.320D-04-0.414D-03-0.167D-02 0.146D-01-0.145D-01-0.230D+00
 Coeff:      0.123D+01
 Gap=     0.631 Goal=   None    Shift=    0.000
 RMSDP=4.70D-07 MaxDP=1.05D-05 DE=-1.07D-07 OVMax= 3.11D-05

 Cycle   8  Pass 1  IDiag  1:
 E= -152.105377878641     Delta-E=       -0.000000004259 Rises=F Damp=F
 DIIS: error= 1.68D-06 at cycle   8 NSaved=   8.
 NSaved= 8 IEnMin= 8 EnMin= -152.105377878641     IErMin= 8 ErrMin= 1.68D-06
 ErrMax= 1.68D-06  0.00D+00 EMaxC= 1.00D-01 BMatC= 1.04D-10 BMatP= 2.02D-09
 IDIUse=1 WtCom= 1.00D+00 WtEn= 0.00D+00
 Coeff-Com:  0.515D-05 0.434D-04 0.191D-03-0.508D-02 0.196D-01 0.104D-01
 Coeff-Com: -0.393D+00 0.137D+01
 Coeff:      0.515D-05 0.434D-04 0.191D-03-0.508D-02 0.196D-01 0.104D-01
 Coeff:     -0.393D+00 0.137D+01
 Gap=     0.631 Goal=   None    Shift=    0.000
 RMSDP=1.16D-07 MaxDP=2.23D-06 DE=-4.26D-09 OVMax= 6.54D-06

 Cycle   9  Pass 1  IDiag  1:
 E= -152.105377878879     Delta-E=       -0.000000000237 Rises=F Damp=F
 DIIS: error= 2.38D-07 at cycle   9 NSaved=   9.
 NSaved= 9 IEnMin= 9 EnMin= -152.105377878879     IErMin= 9 ErrMin= 2.38D-07
 ErrMax= 2.38D-07  0.00D+00 EMaxC= 1.00D-01 BMatC= 4.88D-12 BMatP= 1.04D-10
 IDIUse=1 WtCom= 1.00D+00 WtEn= 0.00D+00
 Coeff-Com:  0.262D-06 0.197D-04 0.802D-04-0.143D-02 0.485D-02 0.559D-02
 Coeff-Com: -0.100D+00 0.238D+00 0.853D+00
 Coeff:      0.262D-06 0.197D-04 0.802D-04-0.143D-02 0.485D-02 0.559D-02
 Coeff:     -0.100D+00 0.238D+00 0.853D+00
 Gap=     0.631 Goal=   None    Shift=    0.000
 RMSDP=1.35D-08 MaxDP=3.65D-07 DE=-2.37D-10 OVMax= 8.99D-07

 Cycle  10  Pass 1  IDiag  1:
 E= -152.105377878884     Delta-E=       -0.000000000006 Rises=F Damp=F
 DIIS: error= 8.85D-08 at cycle  10 NSaved=  10.
 NSaved=10 IEnMin=10 EnMin= -152.105377878884     IErMin=10 ErrMin= 8.85D-08
 ErrMax= 8.85D-08  0.00D+00 EMaxC= 1.00D-01 BMatC= 6.89D-13 BMatP= 4.88D-12
 IDIUse=1 WtCom= 1.00D+00 WtEn= 0.00D+00
 Coeff-Com: -0.670D-06-0.427D-05-0.213D-04 0.574D-03-0.206D-02-0.224D-02
 Coeff-Com:  0.520D-01-0.194D+00 0.117D+00 0.103D+01
 Coeff:     -0.670D-06-0.427D-05-0.213D-04 0.574D-03-0.206D-02-0.224D-02
 Coeff:      0.520D-01-0.194D+00 0.117D+00 0.103D+01
 Gap=     0.631 Goal=   None    Shift=    0.000
 RMSDP=6.76D-09 MaxDP=2.06D-07 DE=-5.74D-12 OVMax= 4.11D-07

 SCF Done:  E(RHF) =  -152.105377879     A.U. after   10 cycles
            NFock= 10  Conv=0.68D-08     -V/T= 2.0020
 KE= 1.518063161788D+02 PE=-4.220128270884D+02 EE= 8.790038882803D+01
 Leave Link  502 at Sat Aug 27 09:54:18 2022, MaxMem=   536870912 cpu:               3.6 elap:               1.0
 (Enter /usr/site/hpc/x86_64/glibc-2.17/broadwell/gaussian/g16_a.03/pgi-16.5/g16/l801.exe)
 Windowed orbitals will be sorted by symmetry type.
 ExpMin= 1.03D-01 ExpMax= 1.53D+04 ExpMxC= 5.22D+02 IAcc=3 IRadAn=         5 AccDes= 0.00D+00
 HarFok:  IExCor=  205 AccDes= 0.00D+00 IRadAn=         5 IDoV=-2 UseB2=F ITyADJ=14
 ICtDFT= 12500011 ScaDFX=  1.000000  1.000000  1.000000  1.000000
 Largest valence mixing into a core orbital is  1.12D-04
 Largest core mixing into a valence orbital is  1.77D-05
 Range of M.O.s used for correlation:     3   116
 NBasis=   116 NAE=    10 NBE=    10 NFC=     2 NFV=     0
 NROrb=    114 NOA=     8 NOB=     8 NVA=   106 NVB=   106
 Leave Link  801 at Sat Aug 27 09:54:18 2022, MaxMem=   536870912 cpu:               0.3 elap:               0.1
 (Enter /usr/site/hpc/x86_64/glibc-2.17/broadwell/gaussian/g16_a.03/pgi-16.5/g16/l804.exe)
 Closed-shell transformation, MDV=   536870912 ITran=4 ISComp=2.
 Unit  1 TFree=        834515 TCopy=        406125.
 Semi-Direct transformation.
 ModeAB=           4 MOrb=             8 LenV=     536372152
 LASXX=      2873146 LTotXX=     2873146 LenRXX=     5831278
 LTotAB=     2958132 MaxLAS=     6307392 LenRXY=           0
 NonZer=     8704424 LenScr=    13107200 LnRSAI=     6307392
 LnScr1=     9961472 LExtra=           0 Total=     35207342
 MaxDsk=          -1 SrtSym=           T ITran=            4
 DoSDTr:  NPSUse=  4
 JobTyp=0 Pass  1:  I=   1 to   8.
 (rs|ai) integrals will be sorted in core.
 Complete sort for first half transformation.
 First half transformation complete.
 Complete sort for second half transformation.
 Second half transformation complete.
 Spin components of T(2) and E(2):
     alpha-alpha T2 =       0.1559541599D-01 E2=     -0.6384746069D-01
     alpha-beta  T2 =       0.9209596225D-01 E2=     -0.3985504227D+00
     beta-beta   T2 =       0.1559541599D-01 E2=     -0.6384746069D-01
 ANorm=    0.1059852251D+01
 E2 =    -0.5262453441D+00 EUMP2 =    -0.15263162322295D+03
 Leave Link  804 at Sat Aug 27 09:54:19 2022, MaxMem=   536870912 cpu:               3.3 elap:               0.8
 (Enter /usr/site/hpc/x86_64/glibc-2.17/broadwell/gaussian/g16_a.03/pgi-16.5/g16/l913.exe)
 CIDS:  MDV=   536870912.
 Frozen-core window:  NFC=   2 NFV=   0.
 IFCWin=0 IBDFC=1 NFBD=     0     0 NFCmp=     0     0 NFFFC=     0     0
 Using DD3R+UMP44R for 1st iteration.
 Using DD4RQ for 2nd and later iterations.
 Keep R2 and R3 ints in memory in symmetry-blocked form, NReq=35357534.
 FoFCou: FMM=F IPFlag=           0 FMFlag=           0 FMFlg1=           0
         NFxFlg=           0 DoJE=F BraDBF=F KetDBF=F FulRan=T
         wScrn=  0.000000 ICntrl=       600 IOpCl=  0 I1Cent=           0 NGrid=           0
         NMat0=    1 NMatS0=   6786 NMatT0=    0 NMatD0=    1 NMtDS0=    0 NMtDT0=    0
 Petite list used in FoFCou.
 CIDS: In Core Option IDoMem=           1.
 CCSD(T)
 =======
 Iterations=  50 Convergence= 0.100D-06
 Produce multiple copies of IABC intergrals
 Iteration Nr.   1
 **********************
 DD1Dir will call FoFMem   1 times, MxPair=        72
 NAB=    36 NAA=     0 NBB=     0.
 MP4(R+Q)=  0.75823622D-02
 Maximum subspace dimension=  5
 A-vector RMS=  1.7564825D-03 Max=  5.4873395D-03 conv= 1.00D-05.
 RLE energy=       -0.5261198926
 E3=       -0.75287203D-02        EUMP3=      -0.15263915194D+03
 E4(DQ)=   -0.15542416D-02        UMP4(DQ)=   -0.15264070618D+03
 E4(SDQ)=  -0.46344812D-02        UMP4(SDQ)=  -0.15264378642D+03
 VARIATIONAL ENERGIES WITH THE FIRST-ORDER WAVEFUNCTION:
 DE(Corr)= -0.52611987     E(Corr)=     -152.63149775    
 NORM(A)=   0.10602081D+01
 Iteration Nr.   2
 **********************
 DD1Dir will call FoFMem   1 times, MxPair=        72
 NAB=    36 NAA=     0 NBB=     0.
 A-vector RMS=  2.1213404D-04 Max=  1.3077419D-03 conv= 1.00D-05.
 RLE energy=       -0.5372240824
 DE(Corr)= -0.53606586     E(CORR)=     -152.64144374     Delta=-9.95D-03
 NORM(A)=   0.10639795D+01
 Iteration Nr.   3
 **********************
 DD1Dir will call FoFMem   1 times, MxPair=        72
 NAB=    36 NAA=     0 NBB=     0.
 A-vector RMS=  1.4424201D-04 Max=  1.0570175D-03 conv= 1.00D-05.
 RLE energy=       -0.5377227059
 DE(Corr)= -0.53713263     E(CORR)=     -152.64251051     Delta=-1.07D-03
 NORM(A)=   0.10646223D+01
 Iteration Nr.   4
 **********************
 DD1Dir will call FoFMem   1 times, MxPair=        72
 NAB=    36 NAA=     0 NBB=     0.
 A-vector RMS=  2.7047695D-05 Max=  1.4547376D-04 conv= 1.00D-05.
 RLE energy=       -0.5378057479
 DE(Corr)= -0.53777033     E(CORR)=     -152.64314821     Delta=-6.38D-04
 NORM(A)=   0.10647350D+01
 Iteration Nr.   5
 **********************
 DD1Dir will call FoFMem   1 times, MxPair=        72
 NAB=    36 NAA=     0 NBB=     0.
 A-vector RMS=  1.9429896D-05 Max=  1.9983487D-04 conv= 1.00D-05.
 RLE energy=       -0.5378148699
 DE(Corr)= -0.53780784     E(CORR)=     -152.64318572     Delta=-3.75D-05
 NORM(A)=   0.10647453D+01
 Iteration Nr.   6
 **********************
 DD1Dir will call FoFMem   1 times, MxPair=        72
 NAB=    36 NAA=     0 NBB=     0.
 A-vector RMS=  5.8222791D-06 Max=  5.5921448D-05 conv= 1.00D-05.
 RLE energy=       -0.5378054634
 DE(Corr)= -0.53781112     E(CORR)=     -152.64318900     Delta=-3.28D-06
 NORM(A)=   0.10647454D+01
 Iteration Nr.   7
 **********************
 DD1Dir will call FoFMem   1 times, MxPair=        72
 NAB=    36 NAA=     0 NBB=     0.
 A-vector RMS=  2.7652517D-06 Max=  3.0223273D-05 conv= 1.00D-05.
 RLE energy=       -0.5378120546
 DE(Corr)= -0.53781127     E(CORR)=     -152.64318915     Delta=-1.48D-07
 NORM(A)=   0.10647478D+01
 Iteration Nr.   8
 **********************
 DD1Dir will call FoFMem   1 times, MxPair=        72
 NAB=    36 NAA=     0 NBB=     0.
 A-vector RMS=  7.0917879D-07 Max=  8.7600479D-06 conv= 1.00D-05.
 RLE energy=       -0.5378106228
 DE(Corr)= -0.53781080     E(CORR)=     -152.64318868     Delta= 4.68D-07
 NORM(A)=   0.10647479D+01
 Iteration Nr.   9
 **********************
 DD1Dir will call FoFMem   1 times, MxPair=        72
 NAB=    36 NAA=     0 NBB=     0.
 A-vector RMS=  1.9697770D-07 Max=  2.3911389D-06 conv= 1.00D-05.
 RLE energy=       -0.5378109670
 DE(Corr)= -0.53781104     E(CORR)=     -152.64318891     Delta=-2.37D-07
 NORM(A)=   0.10647482D+01
 Iteration Nr.  10
 **********************
 DD1Dir will call FoFMem   1 times, MxPair=        72
 NAB=    36 NAA=     0 NBB=     0.
 A-vector RMS=  6.3755870D-08 Max=  6.6822035D-07 conv= 1.00D-05.
 RLE energy=       -0.5378110896
 DE(Corr)= -0.53781106     E(CORR)=     -152.64318894     Delta=-2.76D-08
 NORM(A)=   0.10647483D+01
 CI/CC converged in   10 iterations to DelEn=-2.76D-08 Conv= 1.00D-07 ErrA1= 6.38D-08 Conv= 1.00D-05
 Wavefunction amplitudes converged. E(Corr)=     -152.64318894    
 Largest amplitude= 2.69D-02
 IPart=  2 IA=    7   11.05% done.
 IPart=  3 IA=   13   21.46% done.
 IPart=  4 IA=   19   31.21% done.
 IPart=  2 IA=   25   40.32% done.
 IPart=  1 IA=   32   50.13% done.
 IPart=  1 IA=   40   60.27% done.
 IPart=  4 IA=   49   70.30% done.
 IPart=  2 IA=   60   80.58% done.
 IPart=  1 IA=   74   90.51% done.
 Time for triples=       51.38 seconds.
 T4(CCSD)= -0.16089110D-01
 T5(CCSD)=  0.40885770D-03
 CCSD(T)= -0.15265886920D+03
 Discarding MO integrals.
 Leave Link  913 at Sat Aug 27 09:54:38 2022, MaxMem=   536870912 cpu:              74.3 elap:              19.1
 (Enter /usr/site/hpc/x86_64/glibc-2.17/broadwell/gaussian/g16_a.03/pgi-16.5/g16/l601.exe)
 Copying SCF densities to generalized density rwf, IOpCl= 0 IROHF=0.

 **********************************************************************

            Population analysis using the SCF density.

 **********************************************************************

 Orbital symmetries:
       Occupied  (A') (A') (A') (A') (A') (A') (A') (A') (A") (A")
       Virtual   (A') (A') (A') (A') (A') (A') (A') (A') (A') (A')
                 (A") (A") (A') (A') (A') (A") (A") (A') (A") (A")
                 (A') (A') (A') (A') (A') (A') (A') (A') (A") (A")
                 (A") (A") (A') (A') (A') (A') (A') (A') (A') (A')
                 (A') (A') (A") (A") (A') (A') (A") (A") (A') (A')
                 (A") (A") (A') (A') (A') (A') (A") (A") (A") (A")
                 (A') (A') (A') (A') (A") (A") (A') (A') (A') (A')
                 (A") (A") (A') (A') (A') (A') (A') (A') (A') (A')
                 (A") (A") (A') (A') (A") (A") (A") (A") (A') (A')
                 (A") (A") (A') (A') (A') (A') (A") (A") (A') (A')
                 (A') (A') (A') (A') (A') (A')
 The electronic state is 1-A'.
 Alpha  occ. eigenvalues --  -20.54675 -20.54589  -1.31960  -1.31872  -0.69377
 Alpha  occ. eigenvalues --   -0.69284  -0.55405  -0.55096  -0.49062  -0.48967
 Alpha virt. eigenvalues --    0.14168   0.15552   0.20589   0.21105   0.54324
 Alpha virt. eigenvalues --    0.55890   0.57862   0.58109   0.63150   0.74240
 Alpha virt. eigenvalues --    0.79535   0.80165   0.80797   0.81262   0.82097
 Alpha virt. eigenvalues --    0.85540   0.85624   0.88255   0.97753   0.98549
 Alpha virt. eigenvalues --    1.15468   1.16299   1.17535   1.18785   1.52343
 Alpha virt. eigenvalues --    1.52564   1.52727   1.52841   2.01519   2.01744
 Alpha virt. eigenvalues --    2.07616   2.07707   2.08580   2.11935   2.15314
 Alpha virt. eigenvalues --    2.16262   2.23014   2.32440   2.62256   2.62482
 Alpha virt. eigenvalues --    2.93568   2.93974   3.40162   3.40251   3.50712
 Alpha virt. eigenvalues --    3.50800   3.53884   3.53970   3.60239   3.60402
 Alpha virt. eigenvalues --    3.79494   3.79593   3.85996   3.86485   3.87706
 Alpha virt. eigenvalues --    3.89801   3.94347   3.94435   4.03498   4.04233
 Alpha virt. eigenvalues --    4.08973   4.09099   4.16026   4.16237   4.30920
 Alpha virt. eigenvalues --    4.31007   4.40557   4.41347   4.46299   4.46469
 Alpha virt. eigenvalues --    4.67334   4.67439   4.81290   4.82313   5.04836
 Alpha virt. eigenvalues --    5.05539   5.24828   5.25292   5.54440   5.55618
 Alpha virt. eigenvalues --    5.98807   5.98893   6.41235   6.41320   6.87038
 Alpha virt. eigenvalues --    6.87126   6.90498   6.90586   6.95405   6.95536
 Alpha virt. eigenvalues --    6.99990   7.00133   7.08414   7.09103   7.12006
 Alpha virt. eigenvalues --    7.15907   7.19183   7.19272   7.47979   7.48376
 Alpha virt. eigenvalues --    7.70940   7.71709   8.15623   8.16370  12.48904
 Alpha virt. eigenvalues --   12.51992
          Condensed to atoms (all electrons):
               1          2          3          4          5          6
     1  O    7.812402   0.340423   0.342646   0.000296   0.000018   0.000081
     2  H    0.340423   0.448648  -0.035670   0.000029  -0.000002  -0.000010
     3  H    0.342646  -0.035670   0.443651   0.000034  -0.000003  -0.000006
     4  O    0.000296   0.000029   0.000034   7.812261   0.339071   0.343998
     5  H    0.000018  -0.000002  -0.000003   0.339071   0.450658  -0.035853
     6  H    0.000081  -0.000010  -0.000006   0.343998  -0.035853   0.442279
 Mulliken charges:
               1
     1  O   -0.495864
     2  H    0.246582
     3  H    0.249349
     4  O   -0.495689
     5  H    0.246111
     6  H    0.249510
 Sum of Mulliken charges =  -0.00000
 Mulliken charges with hydrogens summed into heavy atoms:
               1
     1  O    0.000067
     4  O   -0.000067
 Electronic spatial extent (au):  <R**2>=            357.3269
 Charge=             -0.0000 electrons
 Dipole moment (field-independent basis, Debye):
    X=             -0.6213    Y=             -0.1090    Z=              0.0000  Tot=              0.6308
 Quadrupole moment (field-independent basis, Debye-Ang):
   XX=             -8.0421   YY=              3.9611   ZZ=            -14.7097
   XY=             -0.7582   XZ=              0.0000   YZ=              0.0000
 Traceless Quadrupole moment (field-independent basis, Debye-Ang):
   XX=             -1.7786   YY=             10.2247   ZZ=             -8.4461
   XY=             -0.7582   XZ=              0.0000   YZ=              0.0000
 Octapole moment (field-independent basis, Debye-Ang**2):
  XXX=             -1.2753  YYY=              0.2619  ZZZ=              0.0000  XYY=              0.6071
  XXY=             -0.8817  XXZ=              0.0000  XZZ=             -0.0793  YZZ=             -0.0157
  YYZ=              0.0000  XYZ=              0.0000
 Hexadecapole moment (field-independent basis, Debye-Ang**3):
 XXXX=            -11.1962 YYYY=           -180.9634 ZZZZ=            -11.3317 XXXY=             -2.1195
 XXXZ=              0.0000 YYYX=              7.0325 YYYZ=              0.0000 ZZZX=              0.0000
 ZZZY=              0.0000 XXYY=            -30.2094 XXZZ=             -4.5605 YYZZ=            -70.2016
 XXYZ=              0.0000 YYXZ=              0.0000 ZZXY=              0.3213
 N-N= 3.020074420269D+01 E-N=-4.220128259915D+02  KE= 1.518063161788D+02
 Symmetry A'   KE= 1.427672816287D+02
 Symmetry A"   KE= 9.039034550131D+00
 Leave Link  601 at Sat Aug 27 09:54:38 2022, MaxMem=   536870912 cpu:               0.2 elap:               0.1
 (Enter /usr/site/hpc/x86_64/glibc-2.17/broadwell/gaussian/g16_a.03/pgi-16.5/g16/l9999.exe)
 1\1\GINC-N003\SP\RCCSD(T)-FC\CC-pVTZ\H4O2\C7441284\27-Aug-2022\0\\#p C
 CSD(T)/cc-pVTZ\\H2O_H2O_2330\\0,1\O,0,0.,-0.009833,0.\H,0,-0.799571,-0
 .580965,0.\H,0,0.799571,-0.580965,0.\O,0,-0.003161,4.069882,0.\H,0,0.5
 70393,4.867718,0.\H,0,-0.943883,4.353691,0.\\Version=ES64L-G16RevA.03\
 State=1-A'\HF=-152.1053779\MP2=-152.6316232\MP3=-152.6391519\MP4D=-152
 .6482885\MP4DQ=-152.6407062\MP4SDQ=-152.6437864\CCSD=-152.6431889\CCSD
 (T)=-152.6588692\RMSD=6.763e-09\PG=CS [SG(H4O2)]\\@


 ROSE IS A RED
 TY COBB IS BLUE
 'CAUSE PETE JUST HIT
 NO. 4592.
 Job cpu time:       0 days  0 hours  1 minutes 23.7 seconds.
 Elapsed time:       0 days  0 hours  0 minutes 21.7 seconds.
 File lengths (MBytes):  RWF=    340 Int=      0 D2E=      0 Chk=      8 Scr=      8
 Normal termination of Gaussian 16 at Sat Aug 27 09:54:38 2022.
