 Entering Gaussian System, Link 0=g16
 Input=H2O_H2O_2748.com
 Output=H2O_H2O_2748.log
 Initial command:
 /usr/site/hpc/x86_64/glibc-2.17/broadwell/gaussian/g16_a.03/pgi-16.5/g16/l1.exe "/gpfs/gpfs1/scratch/c7441284/ForceFieldModel/FittingData/Gau-3542348.inp" -scrdir="/gpfs/gpfs1/scratch/c7441284/ForceFieldModel/FittingData/"
 Entering Link 1 = /usr/site/hpc/x86_64/glibc-2.17/broadwell/gaussian/g16_a.03/pgi-16.5/g16/l1.exe PID=   3542349.
  
 Copyright (c) 1988,1990,1992,1993,1995,1998,2003,2009,2016,
            Gaussian, Inc.  All Rights Reserved.
  
 This is part of the Gaussian(R) 16 program.  It is based on
 the Gaussian(R) 09 system (copyright 2009, Gaussian, Inc.),
 the Gaussian(R) 03 system (copyright 2003, Gaussian, Inc.),
 the Gaussian(R) 98 system (copyright 1998, Gaussian, Inc.),
 the Gaussian(R) 94 system (copyright 1995, Gaussian, Inc.),
 the Gaussian 92(TM) system (copyright 1992, Gaussian, Inc.),
 the Gaussian 90(TM) system (copyright 1990, Gaussian, Inc.),
 the Gaussian 88(TM) system (copyright 1988, Gaussian, Inc.),
 the Gaussian 86(TM) system (copyright 1986, Carnegie Mellon
 University), and the Gaussian 82(TM) system (copyright 1983,
 Carnegie Mellon University). Gaussian is a federally registered
 trademark of Gaussian, Inc.
  
 This software contains proprietary and confidential information,
 including trade secrets, belonging to Gaussian, Inc.
  
 This software is provided under written license and may be
 used, copied, transmitted, or stored only in accord with that
 written license.
  
 The following legend is applicable only to US Government
 contracts under FAR:
  
                    RESTRICTED RIGHTS LEGEND
  
 Use, reproduction and disclosure by the US Government is
 subject to restrictions as set forth in subparagraphs (a)
 and (c) of the Commercial Computer Software - Restricted
 Rights clause in FAR 52.227-19.
  
 Gaussian, Inc.
 340 Quinnipiac St., Bldg. 40, Wallingford CT 06492
  
  
 ---------------------------------------------------------------
 Warning -- This program may not be used in any manner that
 competes with the business of Gaussian, Inc. or will provide
 assistance to any competitor of Gaussian, Inc.  The licensee
 of this program is prohibited from giving any competitor of
 Gaussian, Inc. access to this program.  By using this program,
 the user acknowledges that Gaussian, Inc. is engaged in the
 business of creating and licensing software in the field of
 computational chemistry and represents and warrants to the
 licensee that it is not a competitor of Gaussian, Inc. and that
 it will not use this program in any manner prohibited above.
 ---------------------------------------------------------------
  

 Cite this work as:
 Gaussian 16, Revision A.03,
 M. J. Frisch, G. W. Trucks, H. B. Schlegel, G. E. Scuseria, 
 M. A. Robb, J. R. Cheeseman, G. Scalmani, V. Barone, 
 G. A. Petersson, H. Nakatsuji, X. Li, M. Caricato, A. V. Marenich, 
 J. Bloino, B. G. Janesko, R. Gomperts, B. Mennucci, H. P. Hratchian, 
 J. V. Ortiz, A. F. Izmaylov, J. L. Sonnenberg, D. Williams-Young, 
 F. Ding, F. Lipparini, F. Egidi, J. Goings, B. Peng, A. Petrone, 
 T. Henderson, D. Ranasinghe, V. G. Zakrzewski, J. Gao, N. Rega, 
 G. Zheng, W. Liang, M. Hada, M. Ehara, K. Toyota, R. Fukuda, 
 J. Hasegawa, M. Ishida, T. Nakajima, Y. Honda, O. Kitao, H. Nakai, 
 T. Vreven, K. Throssell, J. A. Montgomery, Jr., J. E. Peralta, 
 F. Ogliaro, M. J. Bearpark, J. J. Heyd, E. N. Brothers, K. N. Kudin, 
 V. N. Staroverov, T. A. Keith, R. Kobayashi, J. Normand, 
 K. Raghavachari, A. P. Rendell, J. C. Burant, S. S. Iyengar, 
 J. Tomasi, M. Cossi, J. M. Millam, M. Klene, C. Adamo, R. Cammi, 
 J. W. Ochterski, R. L. Martin, K. Morokuma, O. Farkas, 
 J. B. Foresman, and D. J. Fox, Gaussian, Inc., Wallingford CT, 2016.
 
 ******************************************
 Gaussian 16:  ES64L-G16RevA.03 25-Dec-2016
                26-Aug-2022 
 ******************************************
 %NProcShared=4
 Will use up to    4 processors via shared memory.
 %Mem=4GB
 %Chk=H2O_H2O_2748.chk
 ------------------
 #p CCSD(T)/cc-pVTZ
 ------------------
 1/38=1,172=1/1;
 2/12=2,17=6,18=5,40=1/2;
 3/5=16,6=1,11=9,25=1,30=1/1,2,3;
 4//1;
 5/5=2,38=5/2;
 8/6=4,9=120000,10=1/1,4;
 9/5=7,14=2/13;
 6/7=2,8=2,9=2,10=2/1;
 99/5=1,9=1/99;
 Leave Link    1 at Fri Aug 26 15:42:59 2022, MaxMem=   536870912 cpu:               0.4 elap:               0.1
 (Enter /usr/site/hpc/x86_64/glibc-2.17/broadwell/gaussian/g16_a.03/pgi-16.5/g16/l101.exe)
 ------------
 H2O_H2O_2748
 ------------
 Symbolic Z-matrix:
 Charge =  0 Multiplicity = 1
 O                     0.       -0.00983   0. 
 H                    -0.79957  -0.58097   0. 
 H                     0.79957  -0.58097   0. 
 O                    -0.00981   4.48668   0. 
 H                    -0.52743   5.3219    0. 
 H                    -0.63202   3.72618   0. 
 
 ITRead=  0  0  0  0  0  0
 MicOpt= -1 -1 -1 -1 -1 -1
 NAtoms=      6 NQM=        6 NQMF=       0 NMMI=      0 NMMIF=      0
                NMic=       0 NMicF=      0.
                    Isotopes and Nuclear Properties:
 (Nuclear quadrupole moments (NQMom) in fm**2, nuclear magnetic moments (NMagM)
  in nuclear magnetons)

  Atom         1           2           3           4           5           6
 IAtWgt=          16           1           1          16           1           1
 AtmWgt=  15.9949146   1.0078250   1.0078250  15.9949146   1.0078250   1.0078250
 NucSpn=           0           1           1           0           1           1
 AtZEff=  -0.0000000  -0.0000000  -0.0000000  -0.0000000  -0.0000000  -0.0000000
 NQMom=    0.0000000   0.0000000   0.0000000   0.0000000   0.0000000   0.0000000
 NMagM=    0.0000000   2.7928460   2.7928460   0.0000000   2.7928460   2.7928460
 AtZNuc=   8.0000000   1.0000000   1.0000000   8.0000000   1.0000000   1.0000000
 Leave Link  101 at Fri Aug 26 15:42:59 2022, MaxMem=   536870912 cpu:               0.3 elap:               0.1
 (Enter /usr/site/hpc/x86_64/glibc-2.17/broadwell/gaussian/g16_a.03/pgi-16.5/g16/l202.exe)
                          Input orientation:                          
 ---------------------------------------------------------------------
 Center     Atomic      Atomic             Coordinates (Angstroms)
 Number     Number       Type             X           Y           Z
 ---------------------------------------------------------------------
      1          8           0        0.000000   -0.009833    0.000000
      2          1           0       -0.799571   -0.580965    0.000000
      3          1           0        0.799571   -0.580965    0.000000
      4          8           0       -0.009812    4.486683    0.000000
      5          1           0       -0.527427    5.321896    0.000000
      6          1           0       -0.632016    3.726177    0.000000
 ---------------------------------------------------------------------
                    Distance matrix (angstroms):
                    1          2          3          4          5
     1  O    0.000000
     2  H    0.982601   0.000000
     3  H    0.982601   1.599142   0.000000
     4  O    4.496527   5.128818   5.131877   0.000000
     5  H    5.357753   5.909131   6.050181   0.982602   0.000000
     6  H    3.789092   4.310400   4.538823   0.982602   1.599143
                    6
     6  H    0.000000
 Stoichiometry    H4O2
 Framework group  CS[SG(H4O2)]
 Deg. of freedom     9
 Full point group                 CS      NOp   2
 Largest Abelian subgroup         CS      NOp   2
 Largest concise Abelian subgroup C1      NOp   1
                         Standard orientation:                         
 ---------------------------------------------------------------------
 Center     Atomic      Atomic             Coordinates (Angstroms)
 Number     Number       Type             X           Y           Z
 ---------------------------------------------------------------------
      1          8           0        0.057107   -2.195010    0.000000
      2          1           0       -0.743708   -2.764396    0.000000
      3          1           0        0.855430   -2.767885    0.000000
      4          8           0        0.057107    2.301517    0.000000
      5          1           0       -0.458684    3.137857    0.000000
      6          1           0       -0.566755    1.542370    0.000000
 ---------------------------------------------------------------------
 Rotational constants (GHZ):         269.2448741           2.6662289           2.6400851
 Leave Link  202 at Fri Aug 26 15:42:59 2022, MaxMem=   536870912 cpu:               0.3 elap:               0.1
 (Enter /usr/site/hpc/x86_64/glibc-2.17/broadwell/gaussian/g16_a.03/pgi-16.5/g16/l301.exe)
 Standard basis: CC-pVTZ (5D, 7F)
 Ernie: Thresh=  0.10000D-02 Tol=  0.10000D-05 Strict=F.
 Ernie:  6 primitive shells out of 84 were deleted.
 There are    92 symmetry adapted cartesian basis functions of A'  symmetry.
 There are    38 symmetry adapted cartesian basis functions of A"  symmetry.
 There are    80 symmetry adapted basis functions of A'  symmetry.
 There are    36 symmetry adapted basis functions of A"  symmetry.
   116 basis functions,   172 primitive gaussians,   130 cartesian basis functions
    10 alpha electrons       10 beta electrons
       nuclear repulsion energy        29.4013501520 Hartrees.
 IExCor=    0 DFT=F Ex=HF Corr=None ExCW=0 ScaHFX=  1.000000
 ScaDFX=  1.000000  1.000000  1.000000  1.000000 ScalE2=  1.000000  1.000000
 IRadAn=      5 IRanWt=     -1 IRanGd=            0 ICorTp=0 IEmpDi=  4
 NAtoms=    6 NActive=    6 NUniq=    6 SFac= 1.00D+00 NAtFMM=   60 NAOKFM=F Big=F
 Integral buffers will be    131072 words long.
 Raffenetti 1 integral format.
 Two-electron integral symmetry is turned on.
 Leave Link  301 at Fri Aug 26 15:42:59 2022, MaxMem=   536870912 cpu:               0.3 elap:               0.1
 (Enter /usr/site/hpc/x86_64/glibc-2.17/broadwell/gaussian/g16_a.03/pgi-16.5/g16/l302.exe)
 NPDir=0 NMtPBC=     1 NCelOv=     1 NCel=       1 NClECP=     1 NCelD=      1
         NCelK=      1 NCelE2=     1 NClLst=     1 CellRange=     0.0.
 One-electron integrals computed using PRISM.
 One-electron integral symmetry used in STVInt
 NBasis=   116 RedAO= T EigKep=  2.55D-03  NBF=    80    36
 NBsUse=   116 1.00D-06 EigRej= -1.00D+00 NBFU=    80    36
 Leave Link  302 at Fri Aug 26 15:42:59 2022, MaxMem=   536870912 cpu:               0.5 elap:               0.1
 (Enter /usr/site/hpc/x86_64/glibc-2.17/broadwell/gaussian/g16_a.03/pgi-16.5/g16/l303.exe)
 DipDrv:  MaxL=1.
 Leave Link  303 at Fri Aug 26 15:43:00 2022, MaxMem=   536870912 cpu:               0.1 elap:               0.1
 (Enter /usr/site/hpc/x86_64/glibc-2.17/broadwell/gaussian/g16_a.03/pgi-16.5/g16/l401.exe)
 ExpMin= 1.03D-01 ExpMax= 1.53D+04 ExpMxC= 5.22D+02 IAcc=3 IRadAn=         5 AccDes= 0.00D+00
 Harris functional with IExCor=  205 and IRadAn=       5 diagonalized for initial guess.
 HarFok:  IExCor=  205 AccDes= 0.00D+00 IRadAn=         5 IDoV= 1 UseB2=F ITyADJ=14
 ICtDFT=  3500011 ScaDFX=  1.000000  1.000000  1.000000  1.000000
 FoFCou: FMM=F IPFlag=           0 FMFlag=      100000 FMFlg1=           0
         NFxFlg=           0 DoJE=T BraDBF=F KetDBF=T FulRan=T
         wScrn=  0.000000 ICntrl=       500 IOpCl=  0 I1Cent=   200000004 NGrid=           0
         NMat0=    1 NMatS0=      1 NMatT0=    0 NMatD0=    1 NMtDS0=    0 NMtDT0=    0
 Petite list used in FoFCou.
 Harris En= -152.298789173744    
 JPrj=0 DoOrth=F DoCkMO=F.
 Initial guess orbital symmetries:
       Occupied  (A') (A') (A') (A') (A') (A') (A') (A') (A") (A")
       Virtual   (A') (A') (A') (A') (A') (A') (A') (A') (A') (A')
                 (A") (A") (A') (A') (A') (A") (A") (A') (A") (A")
                 (A') (A') (A') (A') (A') (A') (A') (A') (A") (A")
                 (A") (A") (A') (A') (A') (A') (A') (A') (A') (A')
                 (A') (A') (A") (A") (A') (A') (A") (A") (A") (A")
                 (A') (A') (A') (A') (A') (A') (A") (A") (A') (A')
                 (A') (A') (A") (A") (A") (A") (A') (A') (A') (A')
                 (A") (A") (A') (A') (A') (A') (A') (A') (A') (A')
                 (A") (A") (A') (A') (A") (A") (A") (A") (A') (A')
                 (A") (A") (A') (A') (A') (A') (A") (A") (A') (A')
                 (A') (A') (A') (A') (A') (A')
 The electronic state of the initial guess is 1-A'.
 Leave Link  401 at Fri Aug 26 15:43:00 2022, MaxMem=   536870912 cpu:               1.1 elap:               0.3
 (Enter /usr/site/hpc/x86_64/glibc-2.17/broadwell/gaussian/g16_a.03/pgi-16.5/g16/l502.exe)
 Keep R1 ints in memory in symmetry-blocked form, NReq=34823457.
 FoFCou: FMM=F IPFlag=           0 FMFlag=           0 FMFlg1=           0
         NFxFlg=           0 DoJE=F BraDBF=F KetDBF=F FulRan=T
         wScrn=  0.000000 ICntrl=       600 IOpCl=  0 I1Cent=           0 NGrid=           0
         NMat0=    1 NMatS0=   6786 NMatT0=    0 NMatD0=    1 NMtDS0=    0 NMtDT0=    0
 Petite list used in FoFCou.
 Closed shell SCF:
 Using DIIS extrapolation, IDIIS=  1040.
 NGot=   536870912 LenX=   525040673 LenY=   525023332
 Requested convergence on RMS density matrix=1.00D-08 within 128 cycles.
 Requested convergence on MAX density matrix=1.00D-06.
 Requested convergence on             energy=1.00D-06.
 No special actions if energy rises.

 Cycle   1  Pass 1  IDiag  1:
 E= -151.928423928591    
 DIIS: error= 6.59D-02 at cycle   1 NSaved=   1.
 NSaved= 1 IEnMin= 1 EnMin= -151.928423928591     IErMin= 1 ErrMin= 6.59D-02
 ErrMax= 6.59D-02  0.00D+00 EMaxC= 1.00D-01 BMatC= 4.00D-01 BMatP= 4.00D-01
 IDIUse=3 WtCom= 3.41D-01 WtEn= 6.59D-01
 Coeff-Com:  0.100D+01
 Coeff-En:   0.100D+01
 Coeff:      0.100D+01
 Gap=     0.509 Goal=   None    Shift=    0.000
 GapD=    0.509 DampG=2.000 DampE=0.500 DampFc=1.0000 IDamp=-1.
 RMSDP=2.52D-03 MaxDP=6.68D-02              OVMax= 1.27D-01

 Cycle   2  Pass 1  IDiag  1:
 E= -152.039802442855     Delta-E=       -0.111378514264 Rises=F Damp=F
 DIIS: error= 4.15D-02 at cycle   2 NSaved=   2.
 NSaved= 2 IEnMin= 2 EnMin= -152.039802442855     IErMin= 2 ErrMin= 4.15D-02
 ErrMax= 4.15D-02  0.00D+00 EMaxC= 1.00D-01 BMatC= 1.13D-01 BMatP= 4.00D-01
 IDIUse=3 WtCom= 5.85D-01 WtEn= 4.15D-01
 Coeff-Com:  0.319D+00 0.681D+00
 Coeff-En:   0.167D+00 0.833D+00
 Coeff:      0.256D+00 0.744D+00
 Gap=     0.646 Goal=   None    Shift=    0.000
 RMSDP=1.34D-03 MaxDP=3.96D-02 DE=-1.11D-01 OVMax= 5.72D-02

 Cycle   3  Pass 1  IDiag  1:
 E= -152.104496314222     Delta-E=       -0.064693871367 Rises=F Damp=F
 DIIS: error= 8.98D-03 at cycle   3 NSaved=   3.
 NSaved= 3 IEnMin= 3 EnMin= -152.104496314222     IErMin= 3 ErrMin= 8.98D-03
 ErrMax= 8.98D-03  0.00D+00 EMaxC= 1.00D-01 BMatC= 5.97D-03 BMatP= 1.13D-01
 IDIUse=3 WtCom= 9.10D-01 WtEn= 8.98D-02
 Coeff-Com: -0.304D-01 0.156D+00 0.875D+00
 Coeff-En:   0.000D+00 0.000D+00 0.100D+01
 Coeff:     -0.277D-01 0.142D+00 0.886D+00
 Gap=     0.618 Goal=   None    Shift=    0.000
 RMSDP=2.45D-04 MaxDP=5.71D-03 DE=-6.47D-02 OVMax= 1.34D-02

 Cycle   4  Pass 1  IDiag  1:
 E= -152.108215012167     Delta-E=       -0.003718697945 Rises=F Damp=F
 DIIS: error= 8.53D-04 at cycle   4 NSaved=   4.
 NSaved= 4 IEnMin= 4 EnMin= -152.108215012167     IErMin= 4 ErrMin= 8.53D-04
 ErrMax= 8.53D-04  0.00D+00 EMaxC= 1.00D-01 BMatC= 3.72D-05 BMatP= 5.97D-03
 IDIUse=3 WtCom= 9.91D-01 WtEn= 8.53D-03
 Coeff-Com:  0.678D-02-0.610D-01-0.238D+00 0.129D+01
 Coeff-En:   0.000D+00 0.000D+00 0.000D+00 0.100D+01
 Coeff:      0.672D-02-0.605D-01-0.236D+00 0.129D+01
 Gap=     0.621 Goal=   None    Shift=    0.000
 RMSDP=5.19D-05 MaxDP=1.03D-03 DE=-3.72D-03 OVMax= 2.23D-03

 Cycle   5  Pass 1  IDiag  1:
 E= -152.108264926675     Delta-E=       -0.000049914508 Rises=F Damp=F
 DIIS: error= 1.94D-04 at cycle   5 NSaved=   5.
 NSaved= 5 IEnMin= 5 EnMin= -152.108264926675     IErMin= 5 ErrMin= 1.94D-04
 ErrMax= 1.94D-04  0.00D+00 EMaxC= 1.00D-01 BMatC= 1.36D-06 BMatP= 3.72D-05
 IDIUse=3 WtCom= 9.98D-01 WtEn= 1.94D-03
 Coeff-Com:  0.568D-03 0.226D-03-0.385D-02-0.217D+00 0.122D+01
 Coeff-En:   0.000D+00 0.000D+00 0.000D+00 0.000D+00 0.100D+01
 Coeff:      0.567D-03 0.226D-03-0.384D-02-0.216D+00 0.122D+01
 Gap=     0.621 Goal=   None    Shift=    0.000
 RMSDP=1.42D-05 MaxDP=3.03D-04 DE=-4.99D-05 OVMax= 6.89D-04

 Cycle   6  Pass 1  IDiag  1:
 E= -152.108267749845     Delta-E=       -0.000002823170 Rises=F Damp=F
 DIIS: error= 2.86D-05 at cycle   6 NSaved=   6.
 NSaved= 6 IEnMin= 6 EnMin= -152.108267749845     IErMin= 6 ErrMin= 2.86D-05
 ErrMax= 2.86D-05  0.00D+00 EMaxC= 1.00D-01 BMatC= 3.91D-08 BMatP= 1.36D-06
 IDIUse=1 WtCom= 1.00D+00 WtEn= 0.00D+00
 Coeff-Com: -0.229D-03 0.167D-02 0.675D-02-0.199D-01-0.144D+00 0.116D+01
 Coeff:     -0.229D-03 0.167D-02 0.675D-02-0.199D-01-0.144D+00 0.116D+01
 Gap=     0.621 Goal=   None    Shift=    0.000
 RMSDP=2.86D-06 MaxDP=7.12D-05 DE=-2.82D-06 OVMax= 1.55D-04

 Cycle   7  Pass 1  IDiag  1:
 E= -152.108267845283     Delta-E=       -0.000000095438 Rises=F Damp=F
 DIIS: error= 7.59D-06 at cycle   7 NSaved=   7.
 NSaved= 7 IEnMin= 7 EnMin= -152.108267845283     IErMin= 7 ErrMin= 7.59D-06
 ErrMax= 7.59D-06  0.00D+00 EMaxC= 1.00D-01 BMatC= 5.85D-09 BMatP= 3.91D-08
 IDIUse=1 WtCom= 1.00D+00 WtEn= 0.00D+00
 Coeff-Com: -0.875D-04 0.295D-03 0.143D-02 0.138D-01-0.127D+00 0.265D+00
 Coeff-Com:  0.846D+00
 Coeff:     -0.875D-04 0.295D-03 0.143D-02 0.138D-01-0.127D+00 0.265D+00
 Coeff:      0.846D+00
 Gap=     0.621 Goal=   None    Shift=    0.000
 RMSDP=5.40D-07 MaxDP=1.70D-05 DE=-9.54D-08 OVMax= 3.84D-05

 Cycle   8  Pass 1  IDiag  1:
 E= -152.108267852197     Delta-E=       -0.000000006914 Rises=F Damp=F
 DIIS: error= 2.47D-06 at cycle   8 NSaved=   8.
 NSaved= 8 IEnMin= 8 EnMin= -152.108267852197     IErMin= 8 ErrMin= 2.47D-06
 ErrMax= 2.47D-06  0.00D+00 EMaxC= 1.00D-01 BMatC= 5.06D-10 BMatP= 5.85D-09
 IDIUse=1 WtCom= 1.00D+00 WtEn= 0.00D+00
 Coeff-Com:  0.258D-04-0.221D-03-0.893D-03 0.432D-02 0.110D-01-0.132D+00
 Coeff-Com:  0.422D-01 0.108D+01
 Coeff:      0.258D-04-0.221D-03-0.893D-03 0.432D-02 0.110D-01-0.132D+00
 Coeff:      0.422D-01 0.108D+01
 Gap=     0.621 Goal=   None    Shift=    0.000
 RMSDP=1.90D-07 MaxDP=4.89D-06 DE=-6.91D-09 OVMax= 1.39D-05

 Cycle   9  Pass 1  IDiag  1:
 E= -152.108267853066     Delta-E=       -0.000000000869 Rises=F Damp=F
 DIIS: error= 9.09D-07 at cycle   9 NSaved=   9.
 NSaved= 9 IEnMin= 9 EnMin= -152.108267853066     IErMin= 9 ErrMin= 9.09D-07
 ErrMax= 9.09D-07  0.00D+00 EMaxC= 1.00D-01 BMatC= 2.63D-11 BMatP= 5.06D-10
 IDIUse=1 WtCom= 1.00D+00 WtEn= 0.00D+00
 Coeff-Com:  0.103D-05 0.295D-04 0.122D-03-0.246D-02 0.869D-02 0.810D-02
 Coeff-Com: -0.741D-01-0.224D+00 0.128D+01
 Coeff:      0.103D-05 0.295D-04 0.122D-03-0.246D-02 0.869D-02 0.810D-02
 Coeff:     -0.741D-01-0.224D+00 0.128D+01
 Gap=     0.621 Goal=   None    Shift=    0.000
 RMSDP=5.82D-08 MaxDP=1.12D-06 DE=-8.69D-10 OVMax= 3.07D-06

 Cycle  10  Pass 1  IDiag  1:
 E= -152.108267853121     Delta-E=       -0.000000000055 Rises=F Damp=F
 DIIS: error= 1.03D-07 at cycle  10 NSaved=  10.
 NSaved=10 IEnMin=10 EnMin= -152.108267853121     IErMin=10 ErrMin= 1.03D-07
 ErrMax= 1.03D-07  0.00D+00 EMaxC= 1.00D-01 BMatC= 4.53D-13 BMatP= 2.63D-11
 IDIUse=1 WtCom= 1.00D+00 WtEn= 0.00D+00
 Coeff-Com: -0.636D-06-0.299D-05-0.149D-04 0.479D-03-0.184D-02-0.123D-02
 Coeff-Com:  0.179D-01 0.471D-01-0.365D+00 0.130D+01
 Coeff:     -0.636D-06-0.299D-05-0.149D-04 0.479D-03-0.184D-02-0.123D-02
 Coeff:      0.179D-01 0.471D-01-0.365D+00 0.130D+01
 Gap=     0.621 Goal=   None    Shift=    0.000
 RMSDP=7.27D-09 MaxDP=1.87D-07 DE=-5.52D-11 OVMax= 4.24D-07

 SCF Done:  E(RHF) =  -152.108267853     A.U. after   10 cycles
            NFock= 10  Conv=0.73D-08     -V/T= 2.0020
 KE= 1.518022780955D+02 PE=-4.202810167860D+02 EE= 8.696912068537D+01
 Leave Link  502 at Fri Aug 26 15:43:01 2022, MaxMem=   536870912 cpu:               4.9 elap:               1.3
 (Enter /usr/site/hpc/x86_64/glibc-2.17/broadwell/gaussian/g16_a.03/pgi-16.5/g16/l801.exe)
 Windowed orbitals will be sorted by symmetry type.
 ExpMin= 1.03D-01 ExpMax= 1.53D+04 ExpMxC= 5.22D+02 IAcc=3 IRadAn=         5 AccDes= 0.00D+00
 HarFok:  IExCor=  205 AccDes= 0.00D+00 IRadAn=         5 IDoV=-2 UseB2=F ITyADJ=14
 ICtDFT= 12500011 ScaDFX=  1.000000  1.000000  1.000000  1.000000
 Largest valence mixing into a core orbital is  1.12D-04
 Largest core mixing into a valence orbital is  1.77D-05
 Range of M.O.s used for correlation:     3   116
 NBasis=   116 NAE=    10 NBE=    10 NFC=     2 NFV=     0
 NROrb=    114 NOA=     8 NOB=     8 NVA=   106 NVB=   106
 Leave Link  801 at Fri Aug 26 15:43:01 2022, MaxMem=   536870912 cpu:               0.4 elap:               0.1
 (Enter /usr/site/hpc/x86_64/glibc-2.17/broadwell/gaussian/g16_a.03/pgi-16.5/g16/l804.exe)
 Closed-shell transformation, MDV=   536870912 ITran=4 ISComp=2.
 Unit  1 TFree=        834515 TCopy=        406125.
 Semi-Direct transformation.
 ModeAB=           4 MOrb=             8 LenV=     536374136
 LASXX=      2873146 LTotXX=     2873146 LenRXX=     5831278
 LTotAB=     2958132 MaxLAS=     5965392 LenRXY=           0
 NonZer=     8704424 LenScr=    13107200 LnRSAI=     5965392
 LnScr1=     9437184 LExtra=           0 Total=     34341054
 MaxDsk=          -1 SrtSym=           T ITran=            4
 DoSDTr:  NPSUse=  4
 JobTyp=0 Pass  1:  I=   1 to   8.
 (rs|ai) integrals will be sorted in core.
 Complete sort for first half transformation.
 First half transformation complete.
 Complete sort for second half transformation.
 Second half transformation complete.
 Spin components of T(2) and E(2):
     alpha-alpha T2 =       0.1557173117D-01 E2=     -0.6382906874D-01
     alpha-beta  T2 =       0.9192580412D-01 E2=     -0.3983328549D+00
     beta-beta   T2 =       0.1557173117D-01 E2=     -0.6382906874D-01
 ANorm=    0.1059749624D+01
 E2 =    -0.5259909924D+00 EUMP2 =    -0.15263425884550D+03
 Leave Link  804 at Fri Aug 26 15:43:02 2022, MaxMem=   536870912 cpu:               4.2 elap:               1.1
 (Enter /usr/site/hpc/x86_64/glibc-2.17/broadwell/gaussian/g16_a.03/pgi-16.5/g16/l913.exe)
 CIDS:  MDV=   536870912.
 Frozen-core window:  NFC=   2 NFV=   0.
 IFCWin=0 IBDFC=1 NFBD=     0     0 NFCmp=     0     0 NFFFC=     0     0
 Using DD3R+UMP44R for 1st iteration.
 Using DD4RQ for 2nd and later iterations.
 Keep R2 and R3 ints in memory in symmetry-blocked form, NReq=35357534.
 FoFCou: FMM=F IPFlag=           0 FMFlag=           0 FMFlg1=           0
         NFxFlg=           0 DoJE=F BraDBF=F KetDBF=F FulRan=T
         wScrn=  0.000000 ICntrl=       600 IOpCl=  0 I1Cent=           0 NGrid=           0
         NMat0=    1 NMatS0=   6786 NMatT0=    0 NMatD0=    1 NMtDS0=    0 NMtDT0=    0
 Petite list used in FoFCou.
 CIDS: In Core Option IDoMem=           1.
 CCSD(T)
 =======
 Iterations=  50 Convergence= 0.100D-06
 Produce multiple copies of IABC intergrals
 Iteration Nr.   1
 **********************
 DD1Dir will call FoFMem   1 times, MxPair=        72
 NAB=    36 NAA=     0 NBB=     0.
 MP4(R+Q)=  0.75540356D-02
 Maximum subspace dimension=  5
 A-vector RMS=  1.7458686D-03 Max=  6.1878097D-03 conv= 1.00D-05.
 RLE energy=       -0.5258905218
 E3=       -0.75246036D-02        EUMP3=      -0.15264178345D+03
 E4(DQ)=   -0.15514820D-02        UMP4(DQ)=   -0.15264333493D+03
 E4(SDQ)=  -0.46106904D-02        UMP4(SDQ)=  -0.15264639414D+03
 VARIATIONAL ENERGIES WITH THE FIRST-ORDER WAVEFUNCTION:
 DE(Corr)= -0.52589051     E(Corr)=     -152.63415837    
 NORM(A)=   0.10601032D+01
 Iteration Nr.   2
 **********************
 DD1Dir will call FoFMem   1 times, MxPair=        72
 NAB=    36 NAA=     0 NBB=     0.
 A-vector RMS=  2.1252776D-04 Max=  2.3035951D-03 conv= 1.00D-05.
 RLE energy=       -0.5369506513
 DE(Corr)= -0.53579440     E(CORR)=     -152.64406226     Delta=-9.90D-03
 NORM(A)=   0.10638505D+01
 Iteration Nr.   3
 **********************
 DD1Dir will call FoFMem   1 times, MxPair=        72
 NAB=    36 NAA=     0 NBB=     0.
 A-vector RMS=  1.4146511D-04 Max=  8.1062866D-04 conv= 1.00D-05.
 RLE energy=       -0.5374466619
 DE(Corr)= -0.53686075     E(CORR)=     -152.64512861     Delta=-1.07D-03
 NORM(A)=   0.10644873D+01
 Iteration Nr.   4
 **********************
 DD1Dir will call FoFMem   1 times, MxPair=        72
 NAB=    36 NAA=     0 NBB=     0.
 A-vector RMS=  2.6744473D-05 Max=  1.4062172D-04 conv= 1.00D-05.
 RLE energy=       -0.5375293074
 DE(Corr)= -0.53749421     E(CORR)=     -152.64576206     Delta=-6.33D-04
 NORM(A)=   0.10645978D+01
 Iteration Nr.   5
 **********************
 DD1Dir will call FoFMem   1 times, MxPair=        72
 NAB=    36 NAA=     0 NBB=     0.
 A-vector RMS=  1.8594016D-05 Max=  1.4883581D-04 conv= 1.00D-05.
 RLE energy=       -0.5375380700
 DE(Corr)= -0.53753126     E(CORR)=     -152.64579912     Delta=-3.71D-05
 NORM(A)=   0.10646074D+01
 Iteration Nr.   6
 **********************
 DD1Dir will call FoFMem   1 times, MxPair=        72
 NAB=    36 NAA=     0 NBB=     0.
 A-vector RMS=  5.6331492D-06 Max=  4.4320945D-05 conv= 1.00D-05.
 RLE energy=       -0.5375290896
 DE(Corr)= -0.53753447     E(CORR)=     -152.64580232     Delta=-3.20D-06
 NORM(A)=   0.10646074D+01
 Iteration Nr.   7
 **********************
 DD1Dir will call FoFMem   1 times, MxPair=        72
 NAB=    36 NAA=     0 NBB=     0.
 A-vector RMS=  2.6431418D-06 Max=  2.1398047D-05 conv= 1.00D-05.
 RLE energy=       -0.5375352738
 DE(Corr)= -0.53753462     E(CORR)=     -152.64580247     Delta=-1.56D-07
 NORM(A)=   0.10646096D+01
 Iteration Nr.   8
 **********************
 DD1Dir will call FoFMem   1 times, MxPair=        72
 NAB=    36 NAA=     0 NBB=     0.
 A-vector RMS=  6.9029876D-07 Max=  6.2861651D-06 conv= 1.00D-05.
 RLE energy=       -0.5375340065
 DE(Corr)= -0.53753418     E(CORR)=     -152.64580203     Delta= 4.43D-07
 NORM(A)=   0.10646097D+01
 Iteration Nr.   9
 **********************
 DD1Dir will call FoFMem   1 times, MxPair=        72
 NAB=    36 NAA=     0 NBB=     0.
 A-vector RMS=  1.4696605D-07 Max=  1.5342771D-06 conv= 1.00D-05.
 RLE energy=       -0.5375343069
 DE(Corr)= -0.53753438     E(CORR)=     -152.64580223     Delta=-2.03D-07
 NORM(A)=   0.10646100D+01
 Iteration Nr.  10
 **********************
 DD1Dir will call FoFMem   1 times, MxPair=        72
 NAB=    36 NAA=     0 NBB=     0.
 A-vector RMS=  6.2972454D-08 Max=  5.6231257D-07 conv= 1.00D-05.
 RLE energy=       -0.5375344532
 DE(Corr)= -0.53753443     E(CORR)=     -152.64580228     Delta=-4.70D-08
 NORM(A)=   0.10646101D+01
 CI/CC converged in   10 iterations to DelEn=-4.70D-08 Conv= 1.00D-07 ErrA1= 6.30D-08 Conv= 1.00D-05
 Wavefunction amplitudes converged. E(Corr)=     -152.64580228    
 Largest amplitude= 4.76D-02
 IPart=  4 IA=    7   11.05% done.
 IPart=  1 IA=   13   21.46% done.
 IPart=  1 IA=   19   31.21% done.
 IPart=  4 IA=   25   40.32% done.
 IPart=  3 IA=   32   50.13% done.
 IPart=  2 IA=   40   60.27% done.
 IPart=  1 IA=   49   70.30% done.
 IPart=  3 IA=   60   80.58% done.
 IPart=  3 IA=   74   90.51% done.
 Time for triples=       99.31 seconds.
 T4(CCSD)= -0.16042369D-01
 T5(CCSD)=  0.40402417D-03
 CCSD(T)= -0.15266144063D+03
 Discarding MO integrals.
 Leave Link  913 at Fri Aug 26 15:43:40 2022, MaxMem=   536870912 cpu:             140.3 elap:              38.0
 (Enter /usr/site/hpc/x86_64/glibc-2.17/broadwell/gaussian/g16_a.03/pgi-16.5/g16/l601.exe)
 Copying SCF densities to generalized density rwf, IOpCl= 0 IROHF=0.

 **********************************************************************

            Population analysis using the SCF density.

 **********************************************************************

 Orbital symmetries:
       Occupied  (A') (A') (A') (A') (A') (A') (A') (A') (A") (A")
       Virtual   (A') (A') (A') (A') (A') (A') (A') (A') (A') (A')
                 (A") (A') (A") (A') (A') (A") (A") (A') (A") (A")
                 (A') (A') (A') (A') (A') (A') (A') (A') (A") (A")
                 (A") (A") (A') (A') (A') (A') (A') (A') (A') (A')
                 (A') (A') (A") (A") (A') (A') (A") (A") (A') (A')
                 (A") (A") (A') (A') (A') (A') (A") (A") (A") (A")
                 (A') (A') (A') (A') (A") (A") (A') (A') (A') (A')
                 (A") (A") (A') (A') (A') (A') (A') (A') (A') (A')
                 (A") (A") (A') (A') (A") (A") (A") (A") (A') (A')
                 (A") (A") (A') (A') (A') (A') (A") (A") (A') (A')
                 (A') (A') (A') (A') (A') (A')
 The electronic state is 1-A'.
 Alpha  occ. eigenvalues --  -20.55946 -20.54597  -1.33232  -1.31898  -0.70638
 Alpha  occ. eigenvalues --   -0.69277  -0.56706  -0.55360  -0.50350  -0.49021
 Alpha virt. eigenvalues --    0.13121   0.15579   0.19885   0.21875   0.53925
 Alpha virt. eigenvalues --    0.54819   0.56937   0.58191   0.66584   0.71272
 Alpha virt. eigenvalues --    0.78542   0.79454   0.79833   0.80473   0.82692
 Alpha virt. eigenvalues --    0.84478   0.85779   0.87181   0.96886   0.98174
 Alpha virt. eigenvalues --    1.14339   1.16215   1.16978   1.18743   1.51311
 Alpha virt. eigenvalues --    1.51639   1.52730   1.53463   2.00266   2.01595
 Alpha virt. eigenvalues --    2.06339   2.07681   2.08887   2.10519   2.14518
 Alpha virt. eigenvalues --    2.15721   2.24660   2.28004   2.61107   2.62846
 Alpha virt. eigenvalues --    2.92440   2.94590   3.38983   3.40321   3.49545
 Alpha virt. eigenvalues --    3.50893   3.52743   3.54065   3.59124   3.60513
 Alpha virt. eigenvalues --    3.78259   3.79592   3.84987   3.86207   3.87516
 Alpha virt. eigenvalues --    3.89235   3.93195   3.94535   4.02647   4.03976
 Alpha virt. eigenvalues --    4.07793   4.09363   4.14842   4.16419   4.29722
 Alpha virt. eigenvalues --    4.31053   4.39722   4.41002   4.45194   4.46582
 Alpha virt. eigenvalues --    4.66119   4.67443   4.80523   4.81903   5.03762
 Alpha virt. eigenvalues --    5.05561   5.23713   5.25055   5.53683   5.54985
 Alpha virt. eigenvalues --    5.97496   5.98839   6.39971   6.41309   6.85754
 Alpha virt. eigenvalues --    6.87101   6.89242   6.90584   6.94189   6.95545
 Alpha virt. eigenvalues --    6.98688   7.00035   7.07471   7.08858   7.12513
 Alpha virt. eigenvalues --    7.13614   7.17858   7.19211   7.46713   7.48482
 Alpha virt. eigenvalues --    7.69882   7.71287   8.14656   8.16162  12.49316
 Alpha virt. eigenvalues --   12.50504
          Condensed to atoms (all electrons):
               1          2          3          4          5          6
     1  O    7.821537   0.341334   0.345615  -0.000054  -0.000015   0.001336
     2  H    0.341334   0.441440  -0.035242   0.000004   0.000001  -0.000072
     3  H    0.345615  -0.035242   0.431053   0.000005   0.000001  -0.000053
     4  O   -0.000054   0.000004   0.000005   7.822738   0.343624   0.345595
     5  H   -0.000015   0.000001   0.000001   0.343624   0.444010  -0.036532
     6  H    0.001336  -0.000072  -0.000053   0.345595  -0.036532   0.428133
 Mulliken charges:
               1
     1  O   -0.509753
     2  H    0.252536
     3  H    0.258621
     4  O   -0.511911
     5  H    0.248913
     6  H    0.261594
 Sum of Mulliken charges =  -0.00000
 Mulliken charges with hydrogens summed into heavy atoms:
               1
     1  O    0.001404
     4  O   -0.001404
 Electronic spatial extent (au):  <R**2>=            412.6064
 Charge=             -0.0000 electrons
 Dipole moment (field-independent basis, Debye):
    X=             -1.9445    Y=             -1.9175    Z=              0.0000  Tot=              2.7310
 Quadrupole moment (field-independent basis, Debye-Ang):
   XX=             -9.8524   YY=             -0.5259   ZZ=            -14.7155
   XY=             -4.5567   XZ=              0.0000   YZ=              0.0000
 Traceless Quadrupole moment (field-independent basis, Debye-Ang):
   XX=             -1.4878   YY=              7.8387   ZZ=             -6.3509
   XY=             -4.5567   XZ=              0.0000   YZ=              0.0000
 Octapole moment (field-independent basis, Debye-Ang**2):
  XXX=             -0.7153  YYY=            -15.5431  ZZZ=              0.0000  XYY=            -10.6391
  XXY=             -6.4552  XXZ=              0.0000  XZZ=             -0.2511  YZZ=             -0.2741
  YYZ=              0.0000  XYZ=              0.0000
 Hexadecapole moment (field-independent basis, Debye-Ang**3):
 XXXX=            -12.0787 YYYY=           -220.8036 ZZZZ=            -11.3440 XXXY=              1.1590
 XXXZ=              0.0000 YYYX=            -30.1826 YYYZ=              0.0000 ZZZX=              0.0000
 ZZZY=              0.0000 XXYY=            -49.6758 XXZZ=             -4.3858 YYZZ=            -81.5919
 XXYZ=              0.0000 YYXZ=              0.0000 ZZXY=              1.2883
 N-N= 2.940135015203D+01 E-N=-4.202810156235D+02  KE= 1.518022780955D+02
 Symmetry A'   KE= 1.427654892775D+02
 Symmetry A"   KE= 9.036788817963D+00
 Leave Link  601 at Fri Aug 26 15:43:41 2022, MaxMem=   536870912 cpu:               0.3 elap:               0.1
 (Enter /usr/site/hpc/x86_64/glibc-2.17/broadwell/gaussian/g16_a.03/pgi-16.5/g16/l9999.exe)
 1\1\GINC-N050\SP\RCCSD(T)-FC\CC-pVTZ\H4O2\C7441284\26-Aug-2022\0\\#p C
 CSD(T)/cc-pVTZ\\H2O_H2O_2748\\0,1\O,0,0.,-0.009833,0.\H,0,-0.799571,-0
 .580965,0.\H,0,0.799571,-0.580965,0.\O,0,-0.009812,4.486683,0.\H,0,-0.
 527427,5.321896,0.\H,0,-0.632016,3.726177,0.\\Version=ES64L-G16RevA.03
 \State=1-A'\HF=-152.1082679\MP2=-152.6342588\MP3=-152.6417834\MP4D=-15
 2.650889\MP4DQ=-152.6433349\MP4SDQ=-152.6463941\CCSD=-152.6458023\CCSD
 (T)=-152.6614406\RMSD=7.273e-09\PG=CS [SG(H4O2)]\\@


 EXPERIMENTALISTS THINK SILICON IS REALLY FUN TO USE
     ITS PLACE IN NOVEL COMPOUNDS IS CERTAIN TO AMUSE
 THEY SIT ALL DAY IN LABORATORIES MAKING ALL THIS SLUDGE
     "LOADED WITH THE SILICON THEY SAY", TO ME IT LOOKS LIKE FUDGE.
 FOR HAPPY THOUGH THEY BE WITH CRUD, I'D LIKE TO KNOW A LITTLE
      ABOUT THE PI BONDS ON THE EDGE AND SIGMAS IN THE MIDDLE.

 SO LETS DERIVE A WAVEFUNCTION.....6-31G*
     USE AN OPTIMAL GEOMETRY AND SEE WHERE ELECTRONS ARE.
 BUT WHAT OF CORRELATION?  ASKS THE WIRY LITTLE SKEPTIC.
     WE'LL THROW IN PERTURBATION AS AN ELECTRON ANTISEPTIC.
 AND WHEN THE PROGRAM GIVES US ANSWERS IN THEM WE CAN TRUST
     SINCE NOBODY CAN MAKE THE STUFF, WE HAVE NO CHOICE, WE MUST.

 SO THEORY GUYS HAVE GOT IT MADE, IN ROOMS FREE OF POLLUTION.
     INSTEAD OF PROBLEMS WITH THE REFLUX, THEY HAVE ONLY SOLUTIONS.
 AND WHEN THE FEDS ANNOUNCE THE LIST OF CARCINOGENIC TERRORS,
     THE THEORISTS SIT SAFELY AT THEIR TERMINALS FIXING ERRORS.
 IN OTHER WORDS, EXPERIMENTALISTS WILL LIKELY DIE OF CANCER
     FROM WORKING HARD YET FRUITLESSLY...TILL THEORY GIVES THE ANSWER.
          -- THOMAS A. HOLME, 1983
 Job cpu time:       0 days  0 hours  2 minutes 33.8 seconds.
 Elapsed time:       0 days  0 hours  0 minutes 42.0 seconds.
 File lengths (MBytes):  RWF=    332 Int=      0 D2E=      0 Chk=      8 Scr=      8
 Normal termination of Gaussian 16 at Fri Aug 26 15:43:41 2022.
