 Entering Gaussian System, Link 0=g16
 Input=H2O_H2O_3103.com
 Output=H2O_H2O_3103.log
 Initial command:
 /usr/site/hpc/x86_64/glibc-2.17/broadwell/gaussian/g16_a.03/pgi-16.5/g16/l1.exe "/gpfs/gpfs1/scratch/c7441284/ForceFieldModel/FittingData/Gau-3745322.inp" -scrdir="/gpfs/gpfs1/scratch/c7441284/ForceFieldModel/FittingData/"
 Entering Link 1 = /usr/site/hpc/x86_64/glibc-2.17/broadwell/gaussian/g16_a.03/pgi-16.5/g16/l1.exe PID=   3745323.
  
 Copyright (c) 1988,1990,1992,1993,1995,1998,2003,2009,2016,
            Gaussian, Inc.  All Rights Reserved.
  
 This is part of the Gaussian(R) 16 program.  It is based on
 the Gaussian(R) 09 system (copyright 2009, Gaussian, Inc.),
 the Gaussian(R) 03 system (copyright 2003, Gaussian, Inc.),
 the Gaussian(R) 98 system (copyright 1998, Gaussian, Inc.),
 the Gaussian(R) 94 system (copyright 1995, Gaussian, Inc.),
 the Gaussian 92(TM) system (copyright 1992, Gaussian, Inc.),
 the Gaussian 90(TM) system (copyright 1990, Gaussian, Inc.),
 the Gaussian 88(TM) system (copyright 1988, Gaussian, Inc.),
 the Gaussian 86(TM) system (copyright 1986, Carnegie Mellon
 University), and the Gaussian 82(TM) system (copyright 1983,
 Carnegie Mellon University). Gaussian is a federally registered
 trademark of Gaussian, Inc.
  
 This software contains proprietary and confidential information,
 including trade secrets, belonging to Gaussian, Inc.
  
 This software is provided under written license and may be
 used, copied, transmitted, or stored only in accord with that
 written license.
  
 The following legend is applicable only to US Government
 contracts under FAR:
  
                    RESTRICTED RIGHTS LEGEND
  
 Use, reproduction and disclosure by the US Government is
 subject to restrictions as set forth in subparagraphs (a)
 and (c) of the Commercial Computer Software - Restricted
 Rights clause in FAR 52.227-19.
  
 Gaussian, Inc.
 340 Quinnipiac St., Bldg. 40, Wallingford CT 06492
  
  
 ---------------------------------------------------------------
 Warning -- This program may not be used in any manner that
 competes with the business of Gaussian, Inc. or will provide
 assistance to any competitor of Gaussian, Inc.  The licensee
 of this program is prohibited from giving any competitor of
 Gaussian, Inc. access to this program.  By using this program,
 the user acknowledges that Gaussian, Inc. is engaged in the
 business of creating and licensing software in the field of
 computational chemistry and represents and warrants to the
 licensee that it is not a competitor of Gaussian, Inc. and that
 it will not use this program in any manner prohibited above.
 ---------------------------------------------------------------
  

 Cite this work as:
 Gaussian 16, Revision A.03,
 M. J. Frisch, G. W. Trucks, H. B. Schlegel, G. E. Scuseria, 
 M. A. Robb, J. R. Cheeseman, G. Scalmani, V. Barone, 
 G. A. Petersson, H. Nakatsuji, X. Li, M. Caricato, A. V. Marenich, 
 J. Bloino, B. G. Janesko, R. Gomperts, B. Mennucci, H. P. Hratchian, 
 J. V. Ortiz, A. F. Izmaylov, J. L. Sonnenberg, D. Williams-Young, 
 F. Ding, F. Lipparini, F. Egidi, J. Goings, B. Peng, A. Petrone, 
 T. Henderson, D. Ranasinghe, V. G. Zakrzewski, J. Gao, N. Rega, 
 G. Zheng, W. Liang, M. Hada, M. Ehara, K. Toyota, R. Fukuda, 
 J. Hasegawa, M. Ishida, T. Nakajima, Y. Honda, O. Kitao, H. Nakai, 
 T. Vreven, K. Throssell, J. A. Montgomery, Jr., J. E. Peralta, 
 F. Ogliaro, M. J. Bearpark, J. J. Heyd, E. N. Brothers, K. N. Kudin, 
 V. N. Staroverov, T. A. Keith, R. Kobayashi, J. Normand, 
 K. Raghavachari, A. P. Rendell, J. C. Burant, S. S. Iyengar, 
 J. Tomasi, M. Cossi, J. M. Millam, M. Klene, C. Adamo, R. Cammi, 
 J. W. Ochterski, R. L. Martin, K. Morokuma, O. Farkas, 
 J. B. Foresman, and D. J. Fox, Gaussian, Inc., Wallingford CT, 2016.
 
 ******************************************
 Gaussian 16:  ES64L-G16RevA.03 25-Dec-2016
                26-Aug-2022 
 ******************************************
 %NProcShared=4
 Will use up to    4 processors via shared memory.
 %Mem=4GB
 %Chk=H2O_H2O_3103.chk
 ------------------
 #p CCSD(T)/cc-pVTZ
 ------------------
 1/38=1,172=1/1;
 2/12=2,17=6,18=5,40=1/2;
 3/5=16,6=1,11=9,25=1,30=1/1,2,3;
 4//1;
 5/5=2,38=5/2;
 8/6=4,9=120000,10=1/1,4;
 9/5=7,14=2/13;
 6/7=2,8=2,9=2,10=2/1;
 99/5=1,9=1/99;
 Leave Link    1 at Fri Aug 26 19:27:02 2022, MaxMem=   536870912 cpu:               3.2 elap:               1.1
 (Enter /usr/site/hpc/x86_64/glibc-2.17/broadwell/gaussian/g16_a.03/pgi-16.5/g16/l101.exe)
 ------------
 H2O_H2O_3103
 ------------
 Symbolic Z-matrix:
 Charge =  0 Multiplicity = 1
 O                     0.       -0.00983   0. 
 H                    -0.79957  -0.58097   0. 
 H                     0.79957  -0.58097   0. 
 O                    -0.00192   4.89456   0. 
 H                     0.67087   5.61071   0. 
 H                    -0.89755   5.29873   0. 
 
 ITRead=  0  0  0  0  0  0
 MicOpt= -1 -1 -1 -1 -1 -1
 NAtoms=      6 NQM=        6 NQMF=       0 NMMI=      0 NMMIF=      0
                NMic=       0 NMicF=      0.
                    Isotopes and Nuclear Properties:
 (Nuclear quadrupole moments (NQMom) in fm**2, nuclear magnetic moments (NMagM)
  in nuclear magnetons)

  Atom         1           2           3           4           5           6
 IAtWgt=          16           1           1          16           1           1
 AtmWgt=  15.9949146   1.0078250   1.0078250  15.9949146   1.0078250   1.0078250
 NucSpn=           0           1           1           0           1           1
 AtZEff=  -0.0000000  -0.0000000  -0.0000000  -0.0000000  -0.0000000  -0.0000000
 NQMom=    0.0000000   0.0000000   0.0000000   0.0000000   0.0000000   0.0000000
 NMagM=    0.0000000   2.7928460   2.7928460   0.0000000   2.7928460   2.7928460
 AtZNuc=   8.0000000   1.0000000   1.0000000   8.0000000   1.0000000   1.0000000
 Leave Link  101 at Fri Aug 26 19:27:03 2022, MaxMem=   536870912 cpu:               0.4 elap:               0.1
 (Enter /usr/site/hpc/x86_64/glibc-2.17/broadwell/gaussian/g16_a.03/pgi-16.5/g16/l202.exe)
                          Input orientation:                          
 ---------------------------------------------------------------------
 Center     Atomic      Atomic             Coordinates (Angstroms)
 Number     Number       Type             X           Y           Z
 ---------------------------------------------------------------------
      1          8           0        0.000000   -0.009833    0.000000
      2          1           0       -0.799571   -0.580965    0.000000
      3          1           0        0.799571   -0.580965    0.000000
      4          8           0       -0.001918    4.894561    0.000000
      5          1           0        0.670867    5.610708    0.000000
      6          1           0       -0.897548    5.298731    0.000000
 ---------------------------------------------------------------------
                    Distance matrix (angstroms):
                    1          2          3          4          5
     1  O    0.000000
     2  H    0.982601   0.000000
     3  H    0.982601   1.599142   0.000000
     4  O    4.904394   5.533320   5.533875   0.000000
     5  H    5.660437   6.363883   6.193011   0.982602   0.000000
     6  H    5.383906   5.880512   6.119725   0.982602   1.599142
                    6
     6  H    0.000000
 Stoichiometry    H4O2
 Framework group  CS[SG(H4O2)]
 Deg. of freedom     9
 Full point group                 CS      NOp   2
 Largest Abelian subgroup         CS      NOp   2
 Largest concise Abelian subgroup C1      NOp   1
                         Standard orientation:                         
 ---------------------------------------------------------------------
 Center     Atomic      Atomic             Coordinates (Angstroms)
 Number     Number       Type             X           Y           Z
 ---------------------------------------------------------------------
      1          8           0        0.011143   -2.451104    0.000000
      2          1           0       -0.788652   -3.021923    0.000000
      3          1           0        0.810490   -3.022549    0.000000
      4          8           0        0.011143    2.453290    0.000000
      5          1           0        0.684208    3.169174    0.000000
      6          1           0       -0.884329    2.857810    0.000000
 ---------------------------------------------------------------------
 Rotational constants (GHZ):         198.1001925           2.2056588           2.1813713
 Leave Link  202 at Fri Aug 26 19:27:03 2022, MaxMem=   536870912 cpu:               0.1 elap:               0.0
 (Enter /usr/site/hpc/x86_64/glibc-2.17/broadwell/gaussian/g16_a.03/pgi-16.5/g16/l301.exe)
 Standard basis: CC-pVTZ (5D, 7F)
 Ernie: Thresh=  0.10000D-02 Tol=  0.10000D-05 Strict=F.
 Ernie:  6 primitive shells out of 84 were deleted.
 There are    92 symmetry adapted cartesian basis functions of A'  symmetry.
 There are    38 symmetry adapted cartesian basis functions of A"  symmetry.
 There are    80 symmetry adapted basis functions of A'  symmetry.
 There are    36 symmetry adapted basis functions of A"  symmetry.
   116 basis functions,   172 primitive gaussians,   130 cartesian basis functions
    10 alpha electrons       10 beta electrons
       nuclear repulsion energy        28.2101849877 Hartrees.
 IExCor=    0 DFT=F Ex=HF Corr=None ExCW=0 ScaHFX=  1.000000
 ScaDFX=  1.000000  1.000000  1.000000  1.000000 ScalE2=  1.000000  1.000000
 IRadAn=      5 IRanWt=     -1 IRanGd=            0 ICorTp=0 IEmpDi=  4
 NAtoms=    6 NActive=    6 NUniq=    6 SFac= 1.00D+00 NAtFMM=   60 NAOKFM=F Big=F
 Integral buffers will be    131072 words long.
 Raffenetti 1 integral format.
 Two-electron integral symmetry is turned on.
 Leave Link  301 at Fri Aug 26 19:27:03 2022, MaxMem=   536870912 cpu:               0.3 elap:               0.1
 (Enter /usr/site/hpc/x86_64/glibc-2.17/broadwell/gaussian/g16_a.03/pgi-16.5/g16/l302.exe)
 NPDir=0 NMtPBC=     1 NCelOv=     1 NCel=       1 NClECP=     1 NCelD=      1
         NCelK=      1 NCelE2=     1 NClLst=     1 CellRange=     0.0.
 One-electron integrals computed using PRISM.
 One-electron integral symmetry used in STVInt
 NBasis=   116 RedAO= T EigKep=  2.65D-03  NBF=    80    36
 NBsUse=   116 1.00D-06 EigRej= -1.00D+00 NBFU=    80    36
 Leave Link  302 at Fri Aug 26 19:27:03 2022, MaxMem=   536870912 cpu:               0.6 elap:               0.2
 (Enter /usr/site/hpc/x86_64/glibc-2.17/broadwell/gaussian/g16_a.03/pgi-16.5/g16/l303.exe)
 DipDrv:  MaxL=1.
 Leave Link  303 at Fri Aug 26 19:27:03 2022, MaxMem=   536870912 cpu:               0.1 elap:               0.0
 (Enter /usr/site/hpc/x86_64/glibc-2.17/broadwell/gaussian/g16_a.03/pgi-16.5/g16/l401.exe)
 ExpMin= 1.03D-01 ExpMax= 1.53D+04 ExpMxC= 5.22D+02 IAcc=3 IRadAn=         5 AccDes= 0.00D+00
 Harris functional with IExCor=  205 and IRadAn=       5 diagonalized for initial guess.
 HarFok:  IExCor=  205 AccDes= 0.00D+00 IRadAn=         5 IDoV= 1 UseB2=F ITyADJ=14
 ICtDFT=  3500011 ScaDFX=  1.000000  1.000000  1.000000  1.000000
 FoFCou: FMM=F IPFlag=           0 FMFlag=      100000 FMFlg1=           0
         NFxFlg=           0 DoJE=T BraDBF=F KetDBF=T FulRan=T
         wScrn=  0.000000 ICntrl=       500 IOpCl=  0 I1Cent=   200000004 NGrid=           0
         NMat0=    1 NMatS0=      1 NMatT0=    0 NMatD0=    1 NMtDS0=    0 NMtDT0=    0
 Petite list used in FoFCou.
 Harris En= -152.298684159774    
 JPrj=0 DoOrth=F DoCkMO=F.
 Initial guess orbital symmetries:
       Occupied  (A') (A') (A') (A') (A') (A') (A') (A') (A") (A")
       Virtual   (A') (A') (A') (A') (A') (A') (A') (A') (A') (A')
                 (A") (A") (A') (A') (A') (A') (A") (A") (A") (A")
                 (A') (A') (A') (A') (A') (A') (A') (A') (A") (A")
                 (A") (A") (A') (A') (A') (A') (A') (A') (A') (A')
                 (A') (A') (A") (A") (A') (A') (A") (A") (A") (A")
                 (A') (A') (A') (A') (A') (A') (A") (A") (A') (A')
                 (A') (A') (A") (A") (A") (A") (A') (A') (A') (A')
                 (A") (A") (A') (A') (A') (A') (A') (A') (A') (A')
                 (A") (A") (A') (A') (A") (A") (A") (A") (A') (A')
                 (A") (A") (A') (A') (A') (A') (A") (A") (A') (A')
                 (A') (A') (A') (A') (A') (A')
 The electronic state of the initial guess is 1-A'.
 Leave Link  401 at Fri Aug 26 19:27:03 2022, MaxMem=   536870912 cpu:               0.9 elap:               0.3
 (Enter /usr/site/hpc/x86_64/glibc-2.17/broadwell/gaussian/g16_a.03/pgi-16.5/g16/l502.exe)
 Keep R1 ints in memory in symmetry-blocked form, NReq=34823457.
 FoFCou: FMM=F IPFlag=           0 FMFlag=           0 FMFlg1=           0
         NFxFlg=           0 DoJE=F BraDBF=F KetDBF=F FulRan=T
         wScrn=  0.000000 ICntrl=       600 IOpCl=  0 I1Cent=           0 NGrid=           0
         NMat0=    1 NMatS0=   6786 NMatT0=    0 NMatD0=    1 NMtDS0=    0 NMtDT0=    0
 Petite list used in FoFCou.
 Closed shell SCF:
 Using DIIS extrapolation, IDIIS=  1040.
 NGot=   536870912 LenX=   525040673 LenY=   525023332
 Requested convergence on RMS density matrix=1.00D-08 within 128 cycles.
 Requested convergence on MAX density matrix=1.00D-06.
 Requested convergence on             energy=1.00D-06.
 No special actions if energy rises.

 Cycle   1  Pass 1  IDiag  1:
 E= -151.924308775119    
 DIIS: error= 6.60D-02 at cycle   1 NSaved=   1.
 NSaved= 1 IEnMin= 1 EnMin= -151.924308775119     IErMin= 1 ErrMin= 6.60D-02
 ErrMax= 6.60D-02  0.00D+00 EMaxC= 1.00D-01 BMatC= 4.01D-01 BMatP= 4.01D-01
 IDIUse=3 WtCom= 3.40D-01 WtEn= 6.60D-01
 Coeff-Com:  0.100D+01
 Coeff-En:   0.100D+01
 Coeff:      0.100D+01
 Gap=     0.517 Goal=   None    Shift=    0.000
 GapD=    0.517 DampG=2.000 DampE=0.500 DampFc=1.0000 IDamp=-1.
 RMSDP=2.53D-03 MaxDP=6.60D-02              OVMax= 1.28D-01

 Cycle   2  Pass 1  IDiag  1:
 E= -152.036596865849     Delta-E=       -0.112288090729 Rises=F Damp=F
 DIIS: error= 4.17D-02 at cycle   2 NSaved=   2.
 NSaved= 2 IEnMin= 2 EnMin= -152.036596865849     IErMin= 2 ErrMin= 4.17D-02
 ErrMax= 4.17D-02  0.00D+00 EMaxC= 1.00D-01 BMatC= 1.14D-01 BMatP= 4.01D-01
 IDIUse=3 WtCom= 5.83D-01 WtEn= 4.17D-01
 Coeff-Com:  0.321D+00 0.679D+00
 Coeff-En:   0.169D+00 0.831D+00
 Coeff:      0.257D+00 0.743D+00
 Gap=     0.661 Goal=   None    Shift=    0.000
 RMSDP=1.34D-03 MaxDP=3.95D-02 DE=-1.12D-01 OVMax= 5.75D-02

 Cycle   3  Pass 1  IDiag  1:
 E= -152.102297520078     Delta-E=       -0.065700654229 Rises=F Damp=F
 DIIS: error= 8.99D-03 at cycle   3 NSaved=   3.
 NSaved= 3 IEnMin= 3 EnMin= -152.102297520078     IErMin= 3 ErrMin= 8.99D-03
 ErrMax= 8.99D-03  0.00D+00 EMaxC= 1.00D-01 BMatC= 6.02D-03 BMatP= 1.14D-01
 IDIUse=3 WtCom= 9.10D-01 WtEn= 8.99D-02
 Coeff-Com: -0.306D-01 0.155D+00 0.876D+00
 Coeff-En:   0.000D+00 0.000D+00 0.100D+01
 Coeff:     -0.279D-01 0.141D+00 0.887D+00
 Gap=     0.634 Goal=   None    Shift=    0.000
 RMSDP=2.46D-04 MaxDP=5.66D-03 DE=-6.57D-02 OVMax= 1.35D-02

 Cycle   4  Pass 1  IDiag  1:
 E= -152.106059561890     Delta-E=       -0.003762041813 Rises=F Damp=F
 DIIS: error= 8.66D-04 at cycle   4 NSaved=   4.
 NSaved= 4 IEnMin= 4 EnMin= -152.106059561890     IErMin= 4 ErrMin= 8.66D-04
 ErrMax= 8.66D-04  0.00D+00 EMaxC= 1.00D-01 BMatC= 3.85D-05 BMatP= 6.02D-03
 IDIUse=3 WtCom= 9.91D-01 WtEn= 8.66D-03
 Coeff-Com:  0.679D-02-0.612D-01-0.239D+00 0.129D+01
 Coeff-En:   0.000D+00 0.000D+00 0.000D+00 0.100D+01
 Coeff:      0.673D-02-0.606D-01-0.237D+00 0.129D+01
 Gap=     0.636 Goal=   None    Shift=    0.000
 RMSDP=5.22D-05 MaxDP=1.04D-03 DE=-3.76D-03 OVMax= 2.28D-03

 Cycle   5  Pass 1  IDiag  1:
 E= -152.106111377648     Delta-E=       -0.000051815758 Rises=F Damp=F
 DIIS: error= 1.96D-04 at cycle   5 NSaved=   5.
 NSaved= 5 IEnMin= 5 EnMin= -152.106111377648     IErMin= 5 ErrMin= 1.96D-04
 ErrMax= 1.96D-04  0.00D+00 EMaxC= 1.00D-01 BMatC= 1.39D-06 BMatP= 3.85D-05
 IDIUse=3 WtCom= 9.98D-01 WtEn= 1.96D-03
 Coeff-Com:  0.597D-03 0.471D-04-0.455D-02-0.211D+00 0.121D+01
 Coeff-En:   0.000D+00 0.000D+00 0.000D+00 0.000D+00 0.100D+01
 Coeff:      0.596D-03 0.470D-04-0.454D-02-0.211D+00 0.121D+01
 Gap=     0.637 Goal=   None    Shift=    0.000
 RMSDP=1.40D-05 MaxDP=2.88D-04 DE=-5.18D-05 OVMax= 6.91D-04

 Cycle   6  Pass 1  IDiag  1:
 E= -152.106114271450     Delta-E=       -0.000002893802 Rises=F Damp=F
 DIIS: error= 2.97D-05 at cycle   6 NSaved=   6.
 NSaved= 6 IEnMin= 6 EnMin= -152.106114271450     IErMin= 6 ErrMin= 2.97D-05
 ErrMax= 2.97D-05  0.00D+00 EMaxC= 1.00D-01 BMatC= 3.63D-08 BMatP= 1.39D-06
 IDIUse=1 WtCom= 1.00D+00 WtEn= 0.00D+00
 Coeff-Com: -0.285D-03 0.167D-02 0.718D-02-0.669D-03-0.262D+00 0.125D+01
 Coeff:     -0.285D-03 0.167D-02 0.718D-02-0.669D-03-0.262D+00 0.125D+01
 Gap=     0.637 Goal=   None    Shift=    0.000
 RMSDP=3.05D-06 MaxDP=6.66D-05 DE=-2.89D-06 OVMax= 1.56D-04

 Cycle   7  Pass 1  IDiag  1:
 E= -152.106114373624     Delta-E=       -0.000000102174 Rises=F Damp=F
 DIIS: error= 5.47D-06 at cycle   7 NSaved=   7.
 NSaved= 7 IEnMin= 7 EnMin= -152.106114373624     IErMin= 7 ErrMin= 5.47D-06
 ErrMax= 5.47D-06  0.00D+00 EMaxC= 1.00D-01 BMatC= 1.89D-09 BMatP= 3.63D-08
 IDIUse=1 WtCom= 1.00D+00 WtEn= 0.00D+00
 Coeff-Com:  0.320D-04-0.407D-03-0.164D-02 0.142D-01-0.132D-01-0.230D+00
 Coeff-Com:  0.123D+01
 Coeff:      0.320D-04-0.407D-03-0.164D-02 0.142D-01-0.132D-01-0.230D+00
 Coeff:      0.123D+01
 Gap=     0.637 Goal=   None    Shift=    0.000
 RMSDP=4.53D-07 MaxDP=9.95D-06 DE=-1.02D-07 OVMax= 3.01D-05

 Cycle   8  Pass 1  IDiag  1:
 E= -152.106114377640     Delta-E=       -0.000000004016 Rises=F Damp=F
 DIIS: error= 1.65D-06 at cycle   8 NSaved=   8.
 NSaved= 8 IEnMin= 8 EnMin= -152.106114377640     IErMin= 8 ErrMin= 1.65D-06
 ErrMax= 1.65D-06  0.00D+00 EMaxC= 1.00D-01 BMatC= 9.82D-11 BMatP= 1.89D-09
 IDIUse=1 WtCom= 1.00D+00 WtEn= 0.00D+00
 Coeff-Com:  0.403D-05 0.549D-04 0.237D-03-0.543D-02 0.199D-01 0.150D-01
 Coeff-Com: -0.424D+00 0.139D+01
 Coeff:      0.403D-05 0.549D-04 0.237D-03-0.543D-02 0.199D-01 0.150D-01
 Coeff:     -0.424D+00 0.139D+01
 Gap=     0.637 Goal=   None    Shift=    0.000
 RMSDP=1.16D-07 MaxDP=2.40D-06 DE=-4.02D-09 OVMax= 6.49D-06

 Cycle   9  Pass 1  IDiag  1:
 E= -152.106114377869     Delta-E=       -0.000000000229 Rises=F Damp=F
 DIIS: error= 2.03D-07 at cycle   9 NSaved=   9.
 NSaved= 9 IEnMin= 9 EnMin= -152.106114377869     IErMin= 9 ErrMin= 2.03D-07
 ErrMax= 2.03D-07  0.00D+00 EMaxC= 1.00D-01 BMatC= 1.89D-12 BMatP= 9.82D-11
 IDIUse=1 WtCom= 1.00D+00 WtEn= 0.00D+00
 Coeff-Com: -0.105D-05 0.963D-07-0.599D-05 0.458D-03-0.176D-02-0.134D-02
 Coeff-Com:  0.508D-01-0.242D+00 0.119D+01
 Coeff:     -0.105D-05 0.963D-07-0.599D-05 0.458D-03-0.176D-02-0.134D-02
 Coeff:      0.508D-01-0.242D+00 0.119D+01
 Gap=     0.637 Goal=   None    Shift=    0.000
 RMSDP=1.35D-08 MaxDP=3.61D-07 DE=-2.29D-10 OVMax= 7.86D-07

 Cycle  10  Pass 1  IDiag  1:
 E= -152.106114377873     Delta-E=       -0.000000000004 Rises=F Damp=F
 DIIS: error= 5.96D-08 at cycle  10 NSaved=  10.
 NSaved=10 IEnMin=10 EnMin= -152.106114377873     IErMin=10 ErrMin= 5.96D-08
 ErrMax= 5.96D-08  0.00D+00 EMaxC= 1.00D-01 BMatC= 3.19D-13 BMatP= 1.89D-12
 IDIUse=1 WtCom= 1.00D+00 WtEn= 0.00D+00
 Coeff-Com: -0.526D-06-0.409D-05-0.197D-04 0.502D-03-0.180D-02-0.187D-02
 Coeff-Com:  0.455D-01-0.170D+00 0.332D+00 0.795D+00
 Coeff:     -0.526D-06-0.409D-05-0.197D-04 0.502D-03-0.180D-02-0.187D-02
 Coeff:      0.455D-01-0.170D+00 0.332D+00 0.795D+00
 Gap=     0.637 Goal=   None    Shift=    0.000
 RMSDP=3.91D-09 MaxDP=1.14D-07 DE=-3.87D-12 OVMax= 2.17D-07

 SCF Done:  E(RHF) =  -152.106114378     A.U. after   10 cycles
            NFock= 10  Conv=0.39D-08     -V/T= 2.0020
 KE= 1.518061736673D+02 PE=-4.179756544258D+02 EE= 8.585318139293D+01
 Leave Link  502 at Fri Aug 26 19:27:05 2022, MaxMem=   536870912 cpu:               5.1 elap:               1.5
 (Enter /usr/site/hpc/x86_64/glibc-2.17/broadwell/gaussian/g16_a.03/pgi-16.5/g16/l801.exe)
 Windowed orbitals will be sorted by symmetry type.
 ExpMin= 1.03D-01 ExpMax= 1.53D+04 ExpMxC= 5.22D+02 IAcc=3 IRadAn=         5 AccDes= 0.00D+00
 HarFok:  IExCor=  205 AccDes= 0.00D+00 IRadAn=         5 IDoV=-2 UseB2=F ITyADJ=14
 ICtDFT= 12500011 ScaDFX=  1.000000  1.000000  1.000000  1.000000
 Largest valence mixing into a core orbital is  1.12D-04
 Largest core mixing into a valence orbital is  1.77D-05
 Range of M.O.s used for correlation:     3   116
 NBasis=   116 NAE=    10 NBE=    10 NFC=     2 NFV=     0
 NROrb=    114 NOA=     8 NOB=     8 NVA=   106 NVB=   106
 Leave Link  801 at Fri Aug 26 19:27:05 2022, MaxMem=   536870912 cpu:               0.4 elap:               0.1
 (Enter /usr/site/hpc/x86_64/glibc-2.17/broadwell/gaussian/g16_a.03/pgi-16.5/g16/l804.exe)
 Closed-shell transformation, MDV=   536870912 ITran=4 ISComp=2.
 Unit  1 TFree=        834515 TCopy=        406125.
 Semi-Direct transformation.
 ModeAB=           4 MOrb=             8 LenV=     536377915
 LASXX=      2873146 LTotXX=     2873146 LenRXX=     5831278
 LTotAB=     2958132 MaxLAS=     5319696 LenRXY=           0
 NonZer=     8704424 LenScr=    13107200 LnRSAI=     5319696
 LnScr1=     8388608 LExtra=           0 Total=     32646782
 MaxDsk=          -1 SrtSym=           T ITran=            4
 DoSDTr:  NPSUse=  4
 JobTyp=0 Pass  1:  I=   1 to   8.
 (rs|ai) integrals will be sorted in core.
 Complete sort for first half transformation.
 First half transformation complete.
 Complete sort for second half transformation.
 Second half transformation complete.
 Spin components of T(2) and E(2):
     alpha-alpha T2 =       0.1557339751D-01 E2=     -0.6381234326D-01
     alpha-beta  T2 =       0.9199783492D-01 E2=     -0.3984080590D+00
     beta-beta   T2 =       0.1557339751D-01 E2=     -0.6381234326D-01
 ANorm=    0.1059785181D+01
 E2 =    -0.5260327455D+00 EUMP2 =    -0.15263214712342D+03
 Leave Link  804 at Fri Aug 26 19:27:06 2022, MaxMem=   536870912 cpu:               3.6 elap:               0.9
 (Enter /usr/site/hpc/x86_64/glibc-2.17/broadwell/gaussian/g16_a.03/pgi-16.5/g16/l913.exe)
 CIDS:  MDV=   536870912.
 Frozen-core window:  NFC=   2 NFV=   0.
 IFCWin=0 IBDFC=1 NFBD=     0     0 NFCmp=     0     0 NFFFC=     0     0
 Using DD3R+UMP44R for 1st iteration.
 Using DD4RQ for 2nd and later iterations.
 Keep R2 and R3 ints in memory in symmetry-blocked form, NReq=35357534.
 FoFCou: FMM=F IPFlag=           0 FMFlag=           0 FMFlg1=           0
         NFxFlg=           0 DoJE=F BraDBF=F KetDBF=F FulRan=T
         wScrn=  0.000000 ICntrl=       600 IOpCl=  0 I1Cent=           0 NGrid=           0
         NMat0=    1 NMatS0=   6786 NMatT0=    0 NMatD0=    1 NMtDS0=    0 NMtDT0=    0
 Petite list used in FoFCou.
 CIDS: In Core Option IDoMem=           1.
 CCSD(T)
 =======
 Iterations=  50 Convergence= 0.100D-06
 Produce multiple copies of IABC intergrals
 Iteration Nr.   1
 **********************
 DD1Dir will call FoFMem   1 times, MxPair=        72
 NAB=    36 NAA=     0 NBB=     0.
 MP4(R+Q)=  0.75677225D-02
 Maximum subspace dimension=  5
 A-vector RMS=  1.7485933D-03 Max=  5.4170453D-03 conv= 1.00D-05.
 RLE energy=       -0.5259585398
 E3=       -0.75651295D-02        EUMP3=      -0.15263971225D+03
 E4(DQ)=   -0.15533669D-02        UMP4(DQ)=   -0.15264126562D+03
 E4(SDQ)=  -0.46205319D-02        UMP4(SDQ)=  -0.15264433278D+03
 VARIATIONAL ENERGIES WITH THE FIRST-ORDER WAVEFUNCTION:
 DE(Corr)= -0.52595854     E(Corr)=     -152.63207292    
 NORM(A)=   0.10601530D+01
 Iteration Nr.   2
 **********************
 DD1Dir will call FoFMem   1 times, MxPair=        72
 NAB=    36 NAA=     0 NBB=     0.
 A-vector RMS=  2.1209358D-04 Max=  1.5694854D-03 conv= 1.00D-05.
 RLE energy=       -0.5370419517
 DE(Corr)= -0.53588148     E(CORR)=     -152.64199586     Delta=-9.92D-03
 NORM(A)=   0.10639136D+01
 Iteration Nr.   3
 **********************
 DD1Dir will call FoFMem   1 times, MxPair=        72
 NAB=    36 NAA=     0 NBB=     0.
 A-vector RMS=  1.4276947D-04 Max=  9.4394188D-04 conv= 1.00D-05.
 RLE energy=       -0.5375391330
 DE(Corr)= -0.53695113     E(CORR)=     -152.64306551     Delta=-1.07D-03
 NORM(A)=   0.10645547D+01
 Iteration Nr.   4
 **********************
 DD1Dir will call FoFMem   1 times, MxPair=        72
 NAB=    36 NAA=     0 NBB=     0.
 A-vector RMS=  2.6199199D-05 Max=  1.4351996D-04 conv= 1.00D-05.
 RLE energy=       -0.5376223835
 DE(Corr)= -0.53758696     E(CORR)=     -152.64370134     Delta=-6.36D-04
 NORM(A)=   0.10646666D+01
 Iteration Nr.   5
 **********************
 DD1Dir will call FoFMem   1 times, MxPair=        72
 NAB=    36 NAA=     0 NBB=     0.
 A-vector RMS=  1.9132793D-05 Max=  1.7733260D-04 conv= 1.00D-05.
 RLE energy=       -0.5376310467
 DE(Corr)= -0.53762415     E(CORR)=     -152.64373853     Delta=-3.72D-05
 NORM(A)=   0.10646765D+01
 Iteration Nr.   6
 **********************
 DD1Dir will call FoFMem   1 times, MxPair=        72
 NAB=    36 NAA=     0 NBB=     0.
 A-vector RMS=  5.6434631D-06 Max=  4.7069956D-05 conv= 1.00D-05.
 RLE energy=       -0.5376216839
 DE(Corr)= -0.53762737     E(CORR)=     -152.64374175     Delta=-3.23D-06
 NORM(A)=   0.10646767D+01
 Iteration Nr.   7
 **********************
 DD1Dir will call FoFMem   1 times, MxPair=        72
 NAB=    36 NAA=     0 NBB=     0.
 A-vector RMS=  2.7009426D-06 Max=  2.6088443D-05 conv= 1.00D-05.
 RLE energy=       -0.5376285351
 DE(Corr)= -0.53762751     E(CORR)=     -152.64374189     Delta=-1.42D-07
 NORM(A)=   0.10646791D+01
 Iteration Nr.   8
 **********************
 DD1Dir will call FoFMem   1 times, MxPair=        72
 NAB=    36 NAA=     0 NBB=     0.
 A-vector RMS=  5.3799982D-07 Max=  5.5384135D-06 conv= 1.00D-05.
 RLE energy=       -0.5376268960
 DE(Corr)= -0.53762707     E(CORR)=     -152.64374144     Delta= 4.47D-07
 NORM(A)=   0.10646793D+01
 Iteration Nr.   9
 **********************
 DD1Dir will call FoFMem   1 times, MxPair=        72
 NAB=    36 NAA=     0 NBB=     0.
 A-vector RMS=  1.3243476D-07 Max=  1.5260158D-06 conv= 1.00D-05.
 RLE energy=       -0.5376273789
 DE(Corr)= -0.53762736     E(CORR)=     -152.64374174     Delta=-2.91D-07
 NORM(A)=   0.10646795D+01
 Iteration Nr.  10
 **********************
 DD1Dir will call FoFMem   1 times, MxPair=        72
 NAB=    36 NAA=     0 NBB=     0.
 A-vector RMS=  5.0927206D-08 Max=  6.0965700D-07 conv= 1.00D-05.
 RLE energy=       -0.5376273620
 DE(Corr)= -0.53762734     E(CORR)=     -152.64374172     Delta= 1.92D-08
 NORM(A)=   0.10646796D+01
 CI/CC converged in   10 iterations to DelEn= 1.92D-08 Conv= 1.00D-07 ErrA1= 5.09D-08 Conv= 1.00D-05
 Wavefunction amplitudes converged. E(Corr)=     -152.64374172    
 Largest amplitude= 3.24D-02
 IPart=  3 IA=    7   11.05% done.
 IPart=  3 IA=   13   21.46% done.
 IPart=  4 IA=   19   31.21% done.
 IPart=  4 IA=   25   40.32% done.
 IPart=  4 IA=   32   50.13% done.
 IPart=  3 IA=   40   60.27% done.
 IPart=  3 IA=   49   70.30% done.
 IPart=  3 IA=   60   80.58% done.
 IPart=  1 IA=   74   90.51% done.
 Time for triples=       69.06 seconds.
 T4(CCSD)= -0.16056326D-01
 T5(CCSD)=  0.40589931D-03
 CCSD(T)= -0.15265939214D+03
 Discarding MO integrals.
 Leave Link  913 at Fri Aug 26 19:27:31 2022, MaxMem=   536870912 cpu:             100.6 elap:              25.3
 (Enter /usr/site/hpc/x86_64/glibc-2.17/broadwell/gaussian/g16_a.03/pgi-16.5/g16/l601.exe)
 Copying SCF densities to generalized density rwf, IOpCl= 0 IROHF=0.

 **********************************************************************

            Population analysis using the SCF density.

 **********************************************************************

 Orbital symmetries:
       Occupied  (A') (A') (A') (A') (A') (A') (A') (A') (A") (A")
       Virtual   (A') (A') (A') (A') (A') (A') (A') (A') (A') (A')
                 (A") (A") (A') (A') (A') (A') (A") (A") (A") (A")
                 (A') (A') (A') (A') (A') (A') (A') (A') (A") (A")
                 (A") (A") (A') (A') (A') (A') (A') (A') (A') (A')
                 (A') (A') (A") (A") (A') (A') (A") (A") (A') (A')
                 (A") (A") (A') (A') (A') (A') (A") (A") (A") (A")
                 (A') (A') (A') (A') (A") (A") (A') (A') (A') (A')
                 (A") (A") (A') (A') (A') (A') (A') (A') (A') (A')
                 (A") (A") (A') (A') (A") (A") (A") (A") (A') (A')
                 (A") (A") (A') (A') (A') (A') (A") (A") (A') (A')
                 (A') (A') (A') (A') (A') (A')
 The electronic state is 1-A'.
 Alpha  occ. eigenvalues --  -20.54913 -20.54892  -1.32205  -1.32184  -0.69616
 Alpha  occ. eigenvalues --   -0.69594  -0.55600  -0.55558  -0.49308  -0.49286
 Alpha virt. eigenvalues --    0.14423   0.14903   0.20595   0.20755   0.54835
 Alpha virt. eigenvalues --    0.55100   0.57737   0.57815   0.67259   0.70142
 Alpha virt. eigenvalues --    0.79549   0.79607   0.80983   0.81092   0.82658
 Alpha virt. eigenvalues --    0.83393   0.85349   0.85370   0.97839   0.97908
 Alpha virt. eigenvalues --    1.15175   1.15748   1.17678   1.17788   1.52214
 Alpha virt. eigenvalues --    1.52257   1.52504   1.52548   2.01317   2.01350
 Alpha virt. eigenvalues --    2.07368   2.07390   2.09967   2.10228   2.15419
 Alpha virt. eigenvalues --    2.15582   2.24368   2.27151   2.62078   2.62121
 Alpha virt. eigenvalues --    2.93434   2.93530   3.39942   3.39963   3.50494
 Alpha virt. eigenvalues --    3.50515   3.53674   3.53695   3.60049   3.60086
 Alpha virt. eigenvalues --    3.79264   3.79285   3.86013   3.86048   3.88067
 Alpha virt. eigenvalues --    3.88320   3.94134   3.94156   4.03580   4.03640
 Alpha virt. eigenvalues --    4.08763   4.08784   4.15806   4.15900   4.30693
 Alpha virt. eigenvalues --    4.30714   4.40541   4.40581   4.46114   4.46143
 Alpha virt. eigenvalues --    4.67111   4.67132   4.81455   4.81490   5.04627
 Alpha virt. eigenvalues --    5.04988   5.24591   5.24848   5.54614   5.54720
 Alpha virt. eigenvalues --    5.98550   5.98571   6.40990   6.41012   6.86791
 Alpha virt. eigenvalues --    6.86812   6.90259   6.90280   6.95187   6.95209
 Alpha virt. eigenvalues --    6.99756   6.99781   7.08482   7.08546   7.12778
 Alpha virt. eigenvalues --    7.13571   7.18925   7.18946   7.47766   7.47898
 Alpha virt. eigenvalues --    7.70937   7.71002   8.15620   8.15720  12.49567
 Alpha virt. eigenvalues --   12.50193
          Condensed to atoms (all electrons):
               1          2          3          4          5          6
     1  O    7.812002   0.344291   0.344951   0.000007   0.000001   0.000003
     2  H    0.344291   0.442169  -0.036574   0.000001  -0.000000  -0.000000
     3  H    0.344951  -0.036574   0.440482   0.000001  -0.000000  -0.000000
     4  O    0.000007   0.000001   0.000001   7.811987   0.343968   0.345242
     5  H    0.000001  -0.000000  -0.000000   0.343968   0.442681  -0.036591
     6  H    0.000003  -0.000000  -0.000000   0.345242  -0.036591   0.440083
 Mulliken charges:
               1
     1  O   -0.501253
     2  H    0.250114
     3  H    0.251141
     4  O   -0.501207
     5  H    0.249941
     6  H    0.251264
 Sum of Mulliken charges =  -0.00000
 Mulliken charges with hydrogens summed into heavy atoms:
               1
     1  O    0.000001
     4  O   -0.000001
 Electronic spatial extent (au):  <R**2>=            494.1631
 Charge=             -0.0000 electrons
 Dipole moment (field-independent basis, Debye):
    X=             -0.3805    Y=             -0.0386    Z=              0.0000  Tot=              0.3824
 Quadrupole moment (field-independent basis, Debye-Ang):
   XX=             -7.8934   YY=              7.4356   ZZ=            -14.7098
   XY=             -0.6008   XZ=              0.0000   YZ=              0.0000
 Traceless Quadrupole moment (field-independent basis, Debye-Ang):
   XX=             -2.8375   YY=             12.4915   ZZ=             -9.6540
   XY=             -0.6008   XZ=              0.0000   YZ=              0.0000
 Octapole moment (field-independent basis, Debye-Ang**2):
  XXX=             -0.8271  YYY=              0.0048  ZZZ=              0.0000  XYY=              0.0806
  XXY=             -0.3616  XXZ=              0.0000  XZZ=             -0.0493  YZZ=             -0.0053
  YYZ=              0.0000  XYZ=              0.0000
 Hexadecapole moment (field-independent basis, Debye-Ang**3):
 XXXX=            -11.2571 YYYY=           -216.0432 ZZZZ=            -11.3317 XXXY=             -1.6591
 XXXZ=              0.0000 YYYX=              5.0334 YYYZ=              0.0000 ZZZX=              0.0000
 ZZZY=              0.0000 XXYY=            -41.3107 XXZZ=             -4.5668 YYZZ=            -98.4325
 XXYZ=              0.0000 YYXZ=              0.0000 ZZXY=              0.2415
 N-N= 2.821018498773D+01 E-N=-4.179756541885D+02  KE= 1.518061736673D+02
 Symmetry A'   KE= 1.427678004483D+02
 Symmetry A"   KE= 9.038373218949D+00
 Leave Link  601 at Fri Aug 26 19:27:31 2022, MaxMem=   536870912 cpu:               0.1 elap:               0.1
 (Enter /usr/site/hpc/x86_64/glibc-2.17/broadwell/gaussian/g16_a.03/pgi-16.5/g16/l9999.exe)
 1\1\GINC-N050\SP\RCCSD(T)-FC\CC-pVTZ\H4O2\C7441284\26-Aug-2022\0\\#p C
 CSD(T)/cc-pVTZ\\H2O_H2O_3103\\0,1\O,0,0.,-0.009833,0.\H,0,-0.799571,-0
 .580965,0.\H,0,0.799571,-0.580965,0.\O,0,-0.001918,4.894561,0.\H,0,0.6
 70867,5.610708,0.\H,0,-0.897548,5.298731,0.\\Version=ES64L-G16RevA.03\
 State=1-A'\HF=-152.1061144\MP2=-152.6321471\MP3=-152.6397123\MP4D=-152
 .6488333\MP4DQ=-152.6412656\MP4SDQ=-152.6443328\CCSD=-152.6437417\CCSD
 (T)=-152.6593921\RMSD=3.911e-09\PG=CS [SG(H4O2)]\\@


 A MAN THINKING OR WORKING IS ALWAYS ALONE, 
 LET HIM BE WHERE HE WILL.

                                    -- THOREAU
 Job cpu time:       0 days  0 hours  1 minutes 55.6 seconds.
 Elapsed time:       0 days  0 hours  0 minutes 29.7 seconds.
 File lengths (MBytes):  RWF=    320 Int=      0 D2E=      0 Chk=      8 Scr=      8
 Normal termination of Gaussian 16 at Fri Aug 26 19:27:31 2022.
