 Entering Gaussian System, Link 0=g16
 Input=H2O_H2O_1063.com
 Output=H2O_H2O_1063.log
 Initial command:
 /usr/site/hpc/x86_64/glibc-2.17/broadwell/gaussian/g16_a.03/pgi-16.5/g16/l1.exe "/gpfs/gpfs1/scratch/c7441284/ForceFieldModel/FittingData/Gau-3515659.inp" -scrdir="/gpfs/gpfs1/scratch/c7441284/ForceFieldModel/FittingData/"
 Entering Link 1 = /usr/site/hpc/x86_64/glibc-2.17/broadwell/gaussian/g16_a.03/pgi-16.5/g16/l1.exe PID=   3515660.
  
 Copyright (c) 1988,1990,1992,1993,1995,1998,2003,2009,2016,
            Gaussian, Inc.  All Rights Reserved.
  
 This is part of the Gaussian(R) 16 program.  It is based on
 the Gaussian(R) 09 system (copyright 2009, Gaussian, Inc.),
 the Gaussian(R) 03 system (copyright 2003, Gaussian, Inc.),
 the Gaussian(R) 98 system (copyright 1998, Gaussian, Inc.),
 the Gaussian(R) 94 system (copyright 1995, Gaussian, Inc.),
 the Gaussian 92(TM) system (copyright 1992, Gaussian, Inc.),
 the Gaussian 90(TM) system (copyright 1990, Gaussian, Inc.),
 the Gaussian 88(TM) system (copyright 1988, Gaussian, Inc.),
 the Gaussian 86(TM) system (copyright 1986, Carnegie Mellon
 University), and the Gaussian 82(TM) system (copyright 1983,
 Carnegie Mellon University). Gaussian is a federally registered
 trademark of Gaussian, Inc.
  
 This software contains proprietary and confidential information,
 including trade secrets, belonging to Gaussian, Inc.
  
 This software is provided under written license and may be
 used, copied, transmitted, or stored only in accord with that
 written license.
  
 The following legend is applicable only to US Government
 contracts under FAR:
  
                    RESTRICTED RIGHTS LEGEND
  
 Use, reproduction and disclosure by the US Government is
 subject to restrictions as set forth in subparagraphs (a)
 and (c) of the Commercial Computer Software - Restricted
 Rights clause in FAR 52.227-19.
  
 Gaussian, Inc.
 340 Quinnipiac St., Bldg. 40, Wallingford CT 06492
  
  
 ---------------------------------------------------------------
 Warning -- This program may not be used in any manner that
 competes with the business of Gaussian, Inc. or will provide
 assistance to any competitor of Gaussian, Inc.  The licensee
 of this program is prohibited from giving any competitor of
 Gaussian, Inc. access to this program.  By using this program,
 the user acknowledges that Gaussian, Inc. is engaged in the
 business of creating and licensing software in the field of
 computational chemistry and represents and warrants to the
 licensee that it is not a competitor of Gaussian, Inc. and that
 it will not use this program in any manner prohibited above.
 ---------------------------------------------------------------
  

 Cite this work as:
 Gaussian 16, Revision A.03,
 M. J. Frisch, G. W. Trucks, H. B. Schlegel, G. E. Scuseria, 
 M. A. Robb, J. R. Cheeseman, G. Scalmani, V. Barone, 
 G. A. Petersson, H. Nakatsuji, X. Li, M. Caricato, A. V. Marenich, 
 J. Bloino, B. G. Janesko, R. Gomperts, B. Mennucci, H. P. Hratchian, 
 J. V. Ortiz, A. F. Izmaylov, J. L. Sonnenberg, D. Williams-Young, 
 F. Ding, F. Lipparini, F. Egidi, J. Goings, B. Peng, A. Petrone, 
 T. Henderson, D. Ranasinghe, V. G. Zakrzewski, J. Gao, N. Rega, 
 G. Zheng, W. Liang, M. Hada, M. Ehara, K. Toyota, R. Fukuda, 
 J. Hasegawa, M. Ishida, T. Nakajima, Y. Honda, O. Kitao, H. Nakai, 
 T. Vreven, K. Throssell, J. A. Montgomery, Jr., J. E. Peralta, 
 F. Ogliaro, M. J. Bearpark, J. J. Heyd, E. N. Brothers, K. N. Kudin, 
 V. N. Staroverov, T. A. Keith, R. Kobayashi, J. Normand, 
 K. Raghavachari, A. P. Rendell, J. C. Burant, S. S. Iyengar, 
 J. Tomasi, M. Cossi, J. M. Millam, M. Klene, C. Adamo, R. Cammi, 
 J. W. Ochterski, R. L. Martin, K. Morokuma, O. Farkas, 
 J. B. Foresman, and D. J. Fox, Gaussian, Inc., Wallingford CT, 2016.
 
 ******************************************
 Gaussian 16:  ES64L-G16RevA.03 25-Dec-2016
                27-Aug-2022 
 ******************************************
 %NProcShared=4
 Will use up to    4 processors via shared memory.
 %Mem=4GB
 %Chk=H2O_H2O_1063.chk
 ------------------
 #p CCSD(T)/cc-pVTZ
 ------------------
 1/38=1,172=1/1;
 2/12=2,17=6,18=5,40=1/2;
 3/5=16,6=1,11=9,25=1,30=1/1,2,3;
 4//1;
 5/5=2,38=5/2;
 8/6=4,9=120000,10=1/1,4;
 9/5=7,14=2/13;
 6/7=2,8=2,9=2,10=2/1;
 99/5=1,9=1/99;
 Leave Link    1 at Sat Aug 27 01:46:31 2022, MaxMem=   536870912 cpu:               0.3 elap:               0.1
 (Enter /usr/site/hpc/x86_64/glibc-2.17/broadwell/gaussian/g16_a.03/pgi-16.5/g16/l101.exe)
 ------------
 H2O_H2O_1063
 ------------
 Symbolic Z-matrix:
 Charge =  0 Multiplicity = 1
 O                     0.       -0.00983   0. 
 H                    -0.79957  -0.58097   0. 
 H                     0.79957  -0.58097   0. 
 O                    -0.00739   2.71087   0. 
 H                     0.0904    3.6886    0. 
 H                    -0.96399   2.4863    0. 
 
 ITRead=  0  0  0  0  0  0
 MicOpt= -1 -1 -1 -1 -1 -1
 NAtoms=      6 NQM=        6 NQMF=       0 NMMI=      0 NMMIF=      0
                NMic=       0 NMicF=      0.
                    Isotopes and Nuclear Properties:
 (Nuclear quadrupole moments (NQMom) in fm**2, nuclear magnetic moments (NMagM)
  in nuclear magnetons)

  Atom         1           2           3           4           5           6
 IAtWgt=          16           1           1          16           1           1
 AtmWgt=  15.9949146   1.0078250   1.0078250  15.9949146   1.0078250   1.0078250
 NucSpn=           0           1           1           0           1           1
 AtZEff=  -0.0000000  -0.0000000  -0.0000000  -0.0000000  -0.0000000  -0.0000000
 NQMom=    0.0000000   0.0000000   0.0000000   0.0000000   0.0000000   0.0000000
 NMagM=    0.0000000   2.7928460   2.7928460   0.0000000   2.7928460   2.7928460
 AtZNuc=   8.0000000   1.0000000   1.0000000   8.0000000   1.0000000   1.0000000
 Leave Link  101 at Sat Aug 27 01:46:31 2022, MaxMem=   536870912 cpu:               0.7 elap:               0.2
 (Enter /usr/site/hpc/x86_64/glibc-2.17/broadwell/gaussian/g16_a.03/pgi-16.5/g16/l202.exe)
                          Input orientation:                          
 ---------------------------------------------------------------------
 Center     Atomic      Atomic             Coordinates (Angstroms)
 Number     Number       Type             X           Y           Z
 ---------------------------------------------------------------------
      1          8           0        0.000000   -0.009833    0.000000
      2          1           0       -0.799571   -0.580965    0.000000
      3          1           0        0.799571   -0.580965    0.000000
      4          8           0       -0.007393    2.710872    0.000000
      5          1           0        0.090401    3.688595    0.000000
      6          1           0       -0.963987    2.486295    0.000000
 ---------------------------------------------------------------------
                    Distance matrix (angstroms):
                    1          2          3          4          5
     1  O    0.000000
     2  H    0.982601   0.000000
     3  H    0.982601   1.599142   0.000000
     4  O    2.720715   3.385814   3.389304   0.000000
     5  H    3.699533   4.361329   4.328056   0.982602   0.000000
     6  H    2.675804   3.071663   3.538110   0.982602   1.599143
                    6
     6  H    0.000000
 Stoichiometry    H4O2
 Framework group  CS[SG(H4O2)]
 Deg. of freedom     9
 Full point group                 CS      NOp   2
 Largest Abelian subgroup         CS      NOp   2
 Largest concise Abelian subgroup C1      NOp   1
                         Standard orientation:                         
 ---------------------------------------------------------------------
 Center     Atomic      Atomic             Coordinates (Angstroms)
 Number     Number       Type             X           Y           Z
 ---------------------------------------------------------------------
      1          8           0        0.042993   -1.341018    0.000000
      2          1           0       -0.758127   -1.909976    0.000000
      3          1           0        0.841009   -1.914321    0.000000
      4          8           0        0.042993    1.379697    0.000000
      5          1           0        0.143443    2.357150    0.000000
      6          1           0       -0.914208    1.157720    0.000000
 ---------------------------------------------------------------------
 Rotational constants (GHZ):         230.6842479           6.8721917           6.6733884
 Leave Link  202 at Sat Aug 27 01:46:31 2022, MaxMem=   536870912 cpu:               0.0 elap:               0.0
 (Enter /usr/site/hpc/x86_64/glibc-2.17/broadwell/gaussian/g16_a.03/pgi-16.5/g16/l301.exe)
 Standard basis: CC-pVTZ (5D, 7F)
 Ernie: Thresh=  0.10000D-02 Tol=  0.10000D-05 Strict=F.
 Ernie:  6 primitive shells out of 84 were deleted.
 There are    92 symmetry adapted cartesian basis functions of A'  symmetry.
 There are    38 symmetry adapted cartesian basis functions of A"  symmetry.
 There are    80 symmetry adapted basis functions of A'  symmetry.
 There are    36 symmetry adapted basis functions of A"  symmetry.
   116 basis functions,   172 primitive gaussians,   130 cartesian basis functions
    10 alpha electrons       10 beta electrons
       nuclear repulsion energy        36.1345444708 Hartrees.
 IExCor=    0 DFT=F Ex=HF Corr=None ExCW=0 ScaHFX=  1.000000
 ScaDFX=  1.000000  1.000000  1.000000  1.000000 ScalE2=  1.000000  1.000000
 IRadAn=      5 IRanWt=     -1 IRanGd=            0 ICorTp=0 IEmpDi=  4
 NAtoms=    6 NActive=    6 NUniq=    6 SFac= 1.00D+00 NAtFMM=   60 NAOKFM=F Big=F
 Integral buffers will be    131072 words long.
 Raffenetti 1 integral format.
 Two-electron integral symmetry is turned on.
 Leave Link  301 at Sat Aug 27 01:46:31 2022, MaxMem=   536870912 cpu:               0.2 elap:               0.0
 (Enter /usr/site/hpc/x86_64/glibc-2.17/broadwell/gaussian/g16_a.03/pgi-16.5/g16/l302.exe)
 NPDir=0 NMtPBC=     1 NCelOv=     1 NCel=       1 NClECP=     1 NCelD=      1
         NCelK=      1 NCelE2=     1 NClLst=     1 CellRange=     0.0.
 One-electron integrals computed using PRISM.
 One-electron integral symmetry used in STVInt
 NBasis=   116 RedAO= T EigKep=  2.07D-03  NBF=    80    36
 NBsUse=   116 1.00D-06 EigRej= -1.00D+00 NBFU=    80    36
 Leave Link  302 at Sat Aug 27 01:46:32 2022, MaxMem=   536870912 cpu:               0.4 elap:               0.1
 (Enter /usr/site/hpc/x86_64/glibc-2.17/broadwell/gaussian/g16_a.03/pgi-16.5/g16/l303.exe)
 DipDrv:  MaxL=1.
 Leave Link  303 at Sat Aug 27 01:46:32 2022, MaxMem=   536870912 cpu:               0.1 elap:               0.0
 (Enter /usr/site/hpc/x86_64/glibc-2.17/broadwell/gaussian/g16_a.03/pgi-16.5/g16/l401.exe)
 ExpMin= 1.03D-01 ExpMax= 1.53D+04 ExpMxC= 5.22D+02 IAcc=3 IRadAn=         5 AccDes= 0.00D+00
 Harris functional with IExCor=  205 and IRadAn=       5 diagonalized for initial guess.
 HarFok:  IExCor=  205 AccDes= 0.00D+00 IRadAn=         5 IDoV= 1 UseB2=F ITyADJ=14
 ICtDFT=  3500011 ScaDFX=  1.000000  1.000000  1.000000  1.000000
 FoFCou: FMM=F IPFlag=           0 FMFlag=      100000 FMFlg1=           0
         NFxFlg=           0 DoJE=T BraDBF=F KetDBF=T FulRan=T
         wScrn=  0.000000 ICntrl=       500 IOpCl=  0 I1Cent=   200000004 NGrid=           0
         NMat0=    1 NMatS0=      1 NMatT0=    0 NMatD0=    1 NMtDS0=    0 NMtDT0=    0
 Petite list used in FoFCou.
 Harris En= -152.300421084000    
 JPrj=0 DoOrth=F DoCkMO=F.
 Initial guess orbital symmetries:
       Occupied  (A') (A') (A') (A') (A') (A') (A') (A') (A") (A")
       Virtual   (A') (A') (A') (A') (A') (A') (A') (A') (A') (A")
                 (A') (A') (A") (A') (A") (A") (A') (A") (A") (A')
                 (A') (A') (A') (A') (A') (A') (A') (A') (A") (A")
                 (A") (A") (A') (A') (A') (A') (A') (A') (A') (A')
                 (A') (A') (A") (A") (A') (A') (A") (A") (A") (A")
                 (A') (A') (A') (A') (A') (A") (A") (A') (A') (A')
                 (A") (A') (A") (A') (A") (A") (A') (A') (A') (A")
                 (A') (A") (A') (A') (A') (A') (A') (A') (A') (A')
                 (A") (A") (A') (A') (A") (A") (A") (A") (A') (A')
                 (A") (A") (A') (A') (A') (A') (A") (A") (A') (A')
                 (A') (A') (A') (A') (A') (A')
 The electronic state of the initial guess is 1-A'.
 Leave Link  401 at Sat Aug 27 01:46:32 2022, MaxMem=   536870912 cpu:               0.8 elap:               0.2
 (Enter /usr/site/hpc/x86_64/glibc-2.17/broadwell/gaussian/g16_a.03/pgi-16.5/g16/l502.exe)
 Keep R1 ints in memory in symmetry-blocked form, NReq=34823457.
 FoFCou: FMM=F IPFlag=           0 FMFlag=           0 FMFlg1=           0
         NFxFlg=           0 DoJE=F BraDBF=F KetDBF=F FulRan=T
         wScrn=  0.000000 ICntrl=       600 IOpCl=  0 I1Cent=           0 NGrid=           0
         NMat0=    1 NMatS0=   6786 NMatT0=    0 NMatD0=    1 NMtDS0=    0 NMtDT0=    0
 Petite list used in FoFCou.
 Closed shell SCF:
 Using DIIS extrapolation, IDIIS=  1040.
 NGot=   536870912 LenX=   525040673 LenY=   525023332
 Requested convergence on RMS density matrix=1.00D-08 within 128 cycles.
 Requested convergence on MAX density matrix=1.00D-06.
 Requested convergence on             energy=1.00D-06.
 No special actions if energy rises.

 Cycle   1  Pass 1  IDiag  1:
 E= -151.916955741526    
 DIIS: error= 6.67D-02 at cycle   1 NSaved=   1.
 NSaved= 1 IEnMin= 1 EnMin= -151.916955741526     IErMin= 1 ErrMin= 6.67D-02
 ErrMax= 6.67D-02  0.00D+00 EMaxC= 1.00D-01 BMatC= 4.03D-01 BMatP= 4.03D-01
 IDIUse=3 WtCom= 3.33D-01 WtEn= 6.67D-01
 Coeff-Com:  0.100D+01
 Coeff-En:   0.100D+01
 Coeff:      0.100D+01
 Gap=     0.494 Goal=   None    Shift=    0.000
 GapD=    0.494 DampG=2.000 DampE=0.500 DampFc=1.0000 IDamp=-1.
 RMSDP=2.86D-03 MaxDP=7.10D-02              OVMax= 1.31D-01

 Cycle   2  Pass 1  IDiag  1:
 E= -152.029501408702     Delta-E=       -0.112545667176 Rises=F Damp=F
 DIIS: error= 4.20D-02 at cycle   2 NSaved=   2.
 NSaved= 2 IEnMin= 2 EnMin= -152.029501408702     IErMin= 2 ErrMin= 4.20D-02
 ErrMax= 4.20D-02  0.00D+00 EMaxC= 1.00D-01 BMatC= 1.17D-01 BMatP= 4.03D-01
 IDIUse=3 WtCom= 5.80D-01 WtEn= 4.20D-01
 Coeff-Com:  0.323D+00 0.677D+00
 Coeff-En:   0.175D+00 0.825D+00
 Coeff:      0.261D+00 0.739D+00
 Gap=     0.641 Goal=   None    Shift=    0.000
 RMSDP=1.55D-03 MaxDP=4.38D-02 DE=-1.13D-01 OVMax= 6.07D-02

 Cycle   3  Pass 1  IDiag  1:
 E= -152.097297110634     Delta-E=       -0.067795701932 Rises=F Damp=F
 DIIS: error= 9.21D-03 at cycle   3 NSaved=   3.
 NSaved= 3 IEnMin= 3 EnMin= -152.097297110634     IErMin= 3 ErrMin= 9.21D-03
 ErrMax= 9.21D-03  0.00D+00 EMaxC= 1.00D-01 BMatC= 6.22D-03 BMatP= 1.17D-01
 IDIUse=3 WtCom= 9.08D-01 WtEn= 9.21D-02
 Coeff-Com: -0.315D-01 0.155D+00 0.876D+00
 Coeff-En:   0.000D+00 0.000D+00 0.100D+01
 Coeff:     -0.286D-01 0.141D+00 0.888D+00
 Gap=     0.612 Goal=   None    Shift=    0.000
 RMSDP=2.75D-04 MaxDP=6.44D-03 DE=-6.78D-02 OVMax= 1.39D-02

 Cycle   4  Pass 1  IDiag  1:
 E= -152.101217276702     Delta-E=       -0.003920166068 Rises=F Damp=F
 DIIS: error= 8.90D-04 at cycle   4 NSaved=   4.
 NSaved= 4 IEnMin= 4 EnMin= -152.101217276702     IErMin= 4 ErrMin= 8.90D-04
 ErrMax= 8.90D-04  0.00D+00 EMaxC= 1.00D-01 BMatC= 4.18D-05 BMatP= 6.22D-03
 IDIUse=3 WtCom= 9.91D-01 WtEn= 8.90D-03
 Coeff-Com:  0.683D-02-0.613D-01-0.237D+00 0.129D+01
 Coeff-En:   0.000D+00 0.000D+00 0.000D+00 0.100D+01
 Coeff:      0.677D-02-0.607D-01-0.235D+00 0.129D+01
 Gap=     0.615 Goal=   None    Shift=    0.000
 RMSDP=5.46D-05 MaxDP=1.07D-03 DE=-3.92D-03 OVMax= 2.84D-03

 Cycle   5  Pass 1  IDiag  1:
 E= -152.101273720573     Delta-E=       -0.000056443871 Rises=F Damp=F
 DIIS: error= 2.01D-04 at cycle   5 NSaved=   5.
 NSaved= 5 IEnMin= 5 EnMin= -152.101273720573     IErMin= 5 ErrMin= 2.01D-04
 ErrMax= 2.01D-04  0.00D+00 EMaxC= 1.00D-01 BMatC= 1.49D-06 BMatP= 4.18D-05
 IDIUse=3 WtCom= 9.98D-01 WtEn= 2.01D-03
 Coeff-Com:  0.755D-03-0.119D-02-0.913D-02-0.177D+00 0.119D+01
 Coeff-En:   0.000D+00 0.000D+00 0.000D+00 0.000D+00 0.100D+01
 Coeff:      0.754D-03-0.119D-02-0.911D-02-0.177D+00 0.119D+01
 Gap=     0.616 Goal=   None    Shift=    0.000
 RMSDP=1.43D-05 MaxDP=2.84D-04 DE=-5.64D-05 OVMax= 7.38D-04

 Cycle   6  Pass 1  IDiag  1:
 E= -152.101276719619     Delta-E=       -0.000002999045 Rises=F Damp=F
 DIIS: error= 3.56D-05 at cycle   6 NSaved=   6.
 NSaved= 6 IEnMin= 6 EnMin= -152.101276719619     IErMin= 6 ErrMin= 3.56D-05
 ErrMax= 3.56D-05  0.00D+00 EMaxC= 1.00D-01 BMatC= 4.71D-08 BMatP= 1.49D-06
 IDIUse=1 WtCom= 1.00D+00 WtEn= 0.00D+00
 Coeff-Com: -0.311D-03 0.201D-02 0.846D-02-0.168D-01-0.220D+00 0.123D+01
 Coeff:     -0.311D-03 0.201D-02 0.846D-02-0.168D-01-0.220D+00 0.123D+01
 Gap=     0.616 Goal=   None    Shift=    0.000
 RMSDP=3.75D-06 MaxDP=9.80D-05 DE=-3.00D-06 OVMax= 1.70D-04

 Cycle   7  Pass 1  IDiag  1:
 E= -152.101276844310     Delta-E=       -0.000000124691 Rises=F Damp=F
 DIIS: error= 5.24D-06 at cycle   7 NSaved=   7.
 NSaved= 7 IEnMin= 7 EnMin= -152.101276844310     IErMin= 7 ErrMin= 5.24D-06
 ErrMax= 5.24D-06  0.00D+00 EMaxC= 1.00D-01 BMatC= 3.62D-09 BMatP= 4.71D-08
 IDIUse=1 WtCom= 1.00D+00 WtEn= 0.00D+00
 Coeff-Com: -0.370D-04-0.160D-04 0.762D-04 0.138D-01-0.747D-01 0.246D-01
 Coeff-Com:  0.104D+01
 Coeff:     -0.370D-04-0.160D-04 0.762D-04 0.138D-01-0.747D-01 0.246D-01
 Coeff:      0.104D+01
 Gap=     0.616 Goal=   None    Shift=    0.000
 RMSDP=6.15D-07 MaxDP=1.59D-05 DE=-1.25D-07 OVMax= 3.73D-05

 Cycle   8  Pass 1  IDiag  1:
 E= -152.101276850061     Delta-E=       -0.000000005751 Rises=F Damp=F
 DIIS: error= 2.28D-06 at cycle   8 NSaved=   8.
 NSaved= 8 IEnMin= 8 EnMin= -152.101276850061     IErMin= 8 ErrMin= 2.28D-06
 ErrMax= 2.28D-06  0.00D+00 EMaxC= 1.00D-01 BMatC= 5.67D-10 BMatP= 3.62D-09
 IDIUse=1 WtCom= 1.00D+00 WtEn= 0.00D+00
 Coeff-Com:  0.257D-04-0.237D-03-0.945D-03 0.556D-02 0.509D-02-0.123D+00
 Coeff-Com:  0.242D+00 0.871D+00
 Coeff:      0.257D-04-0.237D-03-0.945D-03 0.556D-02 0.509D-02-0.123D+00
 Coeff:      0.242D+00 0.871D+00
 Gap=     0.616 Goal=   None    Shift=    0.000
 RMSDP=1.62D-07 MaxDP=4.32D-06 DE=-5.75D-09 OVMax= 9.83D-06

 Cycle   9  Pass 1  IDiag  1:
 E= -152.101276850769     Delta-E=       -0.000000000707 Rises=F Damp=F
 DIIS: error= 1.06D-06 at cycle   9 NSaved=   9.
 NSaved= 9 IEnMin= 9 EnMin= -152.101276850769     IErMin= 9 ErrMin= 1.06D-06
 ErrMax= 1.06D-06  0.00D+00 EMaxC= 1.00D-01 BMatC= 3.90D-11 BMatP= 5.67D-10
 IDIUse=1 WtCom= 1.00D+00 WtEn= 0.00D+00
 Coeff-Com:  0.248D-05 0.238D-04 0.987D-04-0.251D-02 0.967D-02 0.777D-02
 Coeff-Com: -0.146D+00-0.732D-01 0.120D+01
 Coeff:      0.248D-05 0.238D-04 0.987D-04-0.251D-02 0.967D-02 0.777D-02
 Coeff:     -0.146D+00-0.732D-01 0.120D+01
 Gap=     0.616 Goal=   None    Shift=    0.000
 RMSDP=6.41D-08 MaxDP=1.20D-06 DE=-7.07D-10 OVMax= 3.57D-06

 Cycle  10  Pass 1  IDiag  1:
 E= -152.101276850844     Delta-E=       -0.000000000075 Rises=F Damp=F
 DIIS: error= 1.12D-07 at cycle  10 NSaved=  10.
 NSaved=10 IEnMin=10 EnMin= -152.101276850844     IErMin=10 ErrMin= 1.12D-07
 ErrMax= 1.12D-07  0.00D+00 EMaxC= 1.00D-01 BMatC= 8.68D-13 BMatP= 3.90D-11
 IDIUse=1 WtCom= 1.00D+00 WtEn= 0.00D+00
 Coeff-Com: -0.994D-06 0.160D-05 0.277D-05 0.295D-03-0.140D-02-0.602D-03
 Coeff-Com:  0.266D-01-0.316D-02-0.283D+00 0.126D+01
 Coeff:     -0.994D-06 0.160D-05 0.277D-05 0.295D-03-0.140D-02-0.602D-03
 Coeff:      0.266D-01-0.316D-02-0.283D+00 0.126D+01
 Gap=     0.616 Goal=   None    Shift=    0.000
 RMSDP=1.05D-08 MaxDP=1.84D-07 DE=-7.51D-11 OVMax= 6.16D-07

 Cycle  11  Pass 1  IDiag  1:
 E= -152.101276850846     Delta-E=       -0.000000000002 Rises=F Damp=F
 DIIS: error= 2.46D-08 at cycle  11 NSaved=  11.
 NSaved=11 IEnMin=11 EnMin= -152.101276850846     IErMin=11 ErrMin= 2.46D-08
 ErrMax= 2.46D-08  0.00D+00 EMaxC= 1.00D-01 BMatC= 3.42D-14 BMatP= 8.68D-13
 IDIUse=1 WtCom= 1.00D+00 WtEn= 0.00D+00
 Coeff-Com:  0.451D-07-0.150D-05-0.595D-05 0.750D-04-0.217D-03-0.518D-03
 Coeff-Com:  0.386D-02 0.429D-02-0.255D-01-0.154D+00 0.117D+01
 Coeff:      0.451D-07-0.150D-05-0.595D-05 0.750D-04-0.217D-03-0.518D-03
 Coeff:      0.386D-02 0.429D-02-0.255D-01-0.154D+00 0.117D+01
 Gap=     0.616 Goal=   None    Shift=    0.000
 RMSDP=3.78D-09 MaxDP=1.17D-07 DE=-2.05D-12 OVMax= 1.68D-07

 SCF Done:  E(RHF) =  -152.101276851     A.U. after   11 cycles
            NFock= 11  Conv=0.38D-08     -V/T= 2.0018
 KE= 1.518279570903D+02 PE=-4.340272428620D+02 EE= 9.396346445007D+01
 Leave Link  502 at Sat Aug 27 01:46:33 2022, MaxMem=   536870912 cpu:               4.3 elap:               1.2
 (Enter /usr/site/hpc/x86_64/glibc-2.17/broadwell/gaussian/g16_a.03/pgi-16.5/g16/l801.exe)
 Windowed orbitals will be sorted by symmetry type.
 ExpMin= 1.03D-01 ExpMax= 1.53D+04 ExpMxC= 5.22D+02 IAcc=3 IRadAn=         5 AccDes= 0.00D+00
 HarFok:  IExCor=  205 AccDes= 0.00D+00 IRadAn=         5 IDoV=-2 UseB2=F ITyADJ=14
 ICtDFT= 12500011 ScaDFX=  1.000000  1.000000  1.000000  1.000000
 Largest valence mixing into a core orbital is  1.12D-04
 Largest core mixing into a valence orbital is  1.79D-05
 Range of M.O.s used for correlation:     3   116
 NBasis=   116 NAE=    10 NBE=    10 NFC=     2 NFV=     0
 NROrb=    114 NOA=     8 NOB=     8 NVA=   106 NVB=   106
 Leave Link  801 at Sat Aug 27 01:46:33 2022, MaxMem=   536870912 cpu:               0.3 elap:               0.1
 (Enter /usr/site/hpc/x86_64/glibc-2.17/broadwell/gaussian/g16_a.03/pgi-16.5/g16/l804.exe)
 Closed-shell transformation, MDV=   536870912 ITran=4 ISComp=2.
 Unit  1 TFree=        834515 TCopy=        406125.
 Semi-Direct transformation.
 ModeAB=           4 MOrb=             8 LenV=     536363489
 LASXX=      2873146 LTotXX=     2873146 LenRXX=     5831278
 LTotAB=     2958132 MaxLAS=     7713696 LenRXY=           0
 NonZer=     8704424 LenScr=    13107200 LnRSAI=     7713696
 LnScr1=    12058624 LExtra=           0 Total=     38710798
 MaxDsk=          -1 SrtSym=           T ITran=            4
 DoSDTr:  NPSUse=  4
 JobTyp=0 Pass  1:  I=   1 to   8.
 (rs|ai) integrals will be sorted in core.
 Complete sort for first half transformation.
 First half transformation complete.
 Complete sort for second half transformation.
 Second half transformation complete.
 Spin components of T(2) and E(2):
     alpha-alpha T2 =       0.1576494745D-01 E2=     -0.6425591213D-01
     alpha-beta  T2 =       0.9261334796D-01 E2=     -0.3996793136D+00
     beta-beta   T2 =       0.1576494745D-01 E2=     -0.6425591213D-01
 ANorm=    0.1060256216D+01
 E2 =    -0.5281911379D+00 EUMP2 =    -0.15262946798875D+03
 Leave Link  804 at Sat Aug 27 01:46:34 2022, MaxMem=   536870912 cpu:               4.5 elap:               1.2
 (Enter /usr/site/hpc/x86_64/glibc-2.17/broadwell/gaussian/g16_a.03/pgi-16.5/g16/l913.exe)
 CIDS:  MDV=   536870912.
 Frozen-core window:  NFC=   2 NFV=   0.
 IFCWin=0 IBDFC=1 NFBD=     0     0 NFCmp=     0     0 NFFFC=     0     0
 Using DD3R+UMP44R for 1st iteration.
 Using DD4RQ for 2nd and later iterations.
 Keep R2 and R3 ints in memory in symmetry-blocked form, NReq=35357534.
 FoFCou: FMM=F IPFlag=           0 FMFlag=           0 FMFlg1=           0
         NFxFlg=           0 DoJE=F BraDBF=F KetDBF=F FulRan=T
         wScrn=  0.000000 ICntrl=       600 IOpCl=  0 I1Cent=           0 NGrid=           0
         NMat0=    1 NMatS0=   6786 NMatT0=    0 NMatD0=    1 NMtDS0=    0 NMtDT0=    0
 Petite list used in FoFCou.
 CIDS: In Core Option IDoMem=           1.
 CCSD(T)
 =======
 Iterations=  50 Convergence= 0.100D-06
 Produce multiple copies of IABC intergrals
 Iteration Nr.   1
 **********************
 DD1Dir will call FoFMem   1 times, MxPair=        72
 NAB=    36 NAA=     0 NBB=     0.
 MP4(R+Q)=  0.77349911D-02
 Maximum subspace dimension=  5
 A-vector RMS=  1.8384497D-03 Max=  7.8478806D-03 conv= 1.00D-05.
 RLE energy=       -0.5276300083
 E3=       -0.72447976D-02        EUMP3=      -0.15263671279D+03
 E4(DQ)=   -0.14745058D-02        UMP4(DQ)=   -0.15263818729D+03
 E4(SDQ)=  -0.46614650D-02        UMP4(SDQ)=  -0.15264137425D+03
 VARIATIONAL ENERGIES WITH THE FIRST-ORDER WAVEFUNCTION:
 DE(Corr)= -0.52762942     E(Corr)=     -152.62890627    
 NORM(A)=   0.10605123D+01
 Iteration Nr.   2
 **********************
 DD1Dir will call FoFMem   1 times, MxPair=        72
 NAB=    36 NAA=     0 NBB=     0.
 A-vector RMS=  2.1068012D-04 Max=  1.2697976D-03 conv= 1.00D-05.
 RLE energy=       -0.5388605200
 DE(Corr)= -0.53773138     E(CORR)=     -152.63900823     Delta=-1.01D-02
 NORM(A)=   0.10643519D+01
 Iteration Nr.   3
 **********************
 DD1Dir will call FoFMem   1 times, MxPair=        72
 NAB=    36 NAA=     0 NBB=     0.
 A-vector RMS=  1.6838022D-04 Max=  1.5485573D-03 conv= 1.00D-05.
 RLE energy=       -0.5393692208
 DE(Corr)= -0.53876244     E(CORR)=     -152.64003929     Delta=-1.03D-03
 NORM(A)=   0.10650108D+01
 Iteration Nr.   4
 **********************
 DD1Dir will call FoFMem   1 times, MxPair=        72
 NAB=    36 NAA=     0 NBB=     0.
 A-vector RMS=  3.3999950D-05 Max=  1.9374959D-04 conv= 1.00D-05.
 RLE energy=       -0.5394493195
 DE(Corr)= -0.53941392     E(CORR)=     -152.64069077     Delta=-6.51D-04
 NORM(A)=   0.10651320D+01
 Iteration Nr.   5
 **********************
 DD1Dir will call FoFMem   1 times, MxPair=        72
 NAB=    36 NAA=     0 NBB=     0.
 A-vector RMS=  2.3332684D-05 Max=  2.7377134D-04 conv= 1.00D-05.
 RLE energy=       -0.5394632346
 DE(Corr)= -0.53945485     E(CORR)=     -152.64073170     Delta=-4.09D-05
 NORM(A)=   0.10651477D+01
 Iteration Nr.   6
 **********************
 DD1Dir will call FoFMem   1 times, MxPair=        72
 NAB=    36 NAA=     0 NBB=     0.
 A-vector RMS=  7.0897232D-06 Max=  7.3972596D-05 conv= 1.00D-05.
 RLE energy=       -0.5394537716
 DE(Corr)= -0.53945884     E(CORR)=     -152.64073569     Delta=-3.98D-06
 NORM(A)=   0.10651480D+01
 Iteration Nr.   7
 **********************
 DD1Dir will call FoFMem   1 times, MxPair=        72
 NAB=    36 NAA=     0 NBB=     0.
 A-vector RMS=  3.0723567D-06 Max=  3.4692119D-05 conv= 1.00D-05.
 RLE energy=       -0.5394580924
 DE(Corr)= -0.53945903     E(CORR)=     -152.64073588     Delta=-1.95D-07
 NORM(A)=   0.10651502D+01
 Iteration Nr.   8
 **********************
 DD1Dir will call FoFMem   1 times, MxPair=        72
 NAB=    36 NAA=     0 NBB=     0.
 A-vector RMS=  1.1727240D-06 Max=  1.3003271D-05 conv= 1.00D-05.
 RLE energy=       -0.5394582020
 DE(Corr)= -0.53945846     E(CORR)=     -152.64073532     Delta= 5.65D-07
 NORM(A)=   0.10651506D+01
 Iteration Nr.   9
 **********************
 DD1Dir will call FoFMem   1 times, MxPair=        72
 NAB=    36 NAA=     0 NBB=     0.
 A-vector RMS=  2.1816073D-07 Max=  2.2430488D-06 conv= 1.00D-05.
 RLE energy=       -0.5394584926
 DE(Corr)= -0.53945857     E(CORR)=     -152.64073542     Delta=-1.01D-07
 NORM(A)=   0.10651511D+01
 Iteration Nr.  10
 **********************
 DD1Dir will call FoFMem   1 times, MxPair=        72
 NAB=    36 NAA=     0 NBB=     0.
 A-vector RMS=  9.0140563D-08 Max=  1.0500913D-06 conv= 1.00D-05.
 RLE energy=       -0.5394587399
 DE(Corr)= -0.53945872     E(CORR)=     -152.64073557     Delta=-1.55D-07
 NORM(A)=   0.10651513D+01
 Iteration Nr.  11
 **********************
 DD1Dir will call FoFMem   1 times, MxPair=        72
 NAB=    36 NAA=     0 NBB=     0.
 A-vector RMS=  3.3342939D-08 Max=  3.8190350D-07 conv= 1.00D-05.
 RLE energy=       -0.5394588119
 DE(Corr)= -0.53945879     E(CORR)=     -152.64073564     Delta=-6.89D-08
 NORM(A)=   0.10651514D+01
 CI/CC converged in   11 iterations to DelEn=-6.89D-08 Conv= 1.00D-07 ErrA1= 3.33D-08 Conv= 1.00D-05
 Wavefunction amplitudes converged. E(Corr)=     -152.64073564    
 Largest amplitude= 2.62D-02
 IPart=  4 IA=    7   11.05% done.
 IPart=  3 IA=   13   21.46% done.
 IPart=  3 IA=   19   31.21% done.
 IPart=  3 IA=   25   40.32% done.
 IPart=  2 IA=   32   50.13% done.
 IPart=  2 IA=   40   60.27% done.
 IPart=  1 IA=   49   70.30% done.
 IPart=  3 IA=   60   80.58% done.
 IPart=  2 IA=   74   90.51% done.
 Time for triples=       60.38 seconds.
 T4(CCSD)= -0.16392663D-01
 T5(CCSD)=  0.43323442D-03
 CCSD(T)= -0.15265669507D+03
 Discarding MO integrals.
 Leave Link  913 at Sat Aug 27 01:46:57 2022, MaxMem=   536870912 cpu:              91.1 elap:              23.1
 (Enter /usr/site/hpc/x86_64/glibc-2.17/broadwell/gaussian/g16_a.03/pgi-16.5/g16/l601.exe)
 Copying SCF densities to generalized density rwf, IOpCl= 0 IROHF=0.

 **********************************************************************

            Population analysis using the SCF density.

 **********************************************************************

 Orbital symmetries:
       Occupied  (A') (A') (A') (A') (A') (A') (A') (A') (A") (A")
       Virtual   (A') (A') (A') (A') (A') (A') (A') (A') (A') (A")
                 (A') (A') (A') (A") (A") (A") (A') (A") (A") (A')
                 (A') (A') (A') (A') (A') (A') (A') (A') (A") (A")
                 (A") (A") (A') (A') (A') (A') (A') (A') (A') (A')
                 (A') (A') (A") (A") (A') (A') (A") (A") (A') (A')
                 (A") (A") (A') (A') (A") (A') (A") (A') (A") (A")
                 (A') (A') (A') (A') (A") (A") (A') (A') (A') (A')
                 (A") (A") (A') (A') (A') (A') (A') (A') (A') (A')
                 (A") (A") (A') (A') (A") (A") (A") (A") (A') (A")
                 (A') (A") (A') (A') (A') (A") (A') (A") (A') (A')
                 (A') (A') (A') (A') (A') (A')
 The electronic state is 1-A'.
 Alpha  occ. eigenvalues --  -20.54540 -20.53360  -1.31981  -1.30597  -0.69393
 Alpha  occ. eigenvalues --   -0.68107  -0.56132  -0.52763  -0.49143  -0.47602
 Alpha virt. eigenvalues --    0.13971   0.17123   0.20214   0.22986   0.53460
 Alpha virt. eigenvalues --    0.57885   0.58201   0.59129   0.69457   0.76267
 Alpha virt. eigenvalues --    0.76674   0.76927   0.82200   0.83069   0.85510
 Alpha virt. eigenvalues --    0.86944   0.91814   0.96529   1.04069   1.05710
 Alpha virt. eigenvalues --    1.14589   1.18058   1.25538   1.36615   1.52398
 Alpha virt. eigenvalues --    1.52756   1.54826   1.56964   2.00931   2.03538
 Alpha virt. eigenvalues --    2.07635   2.09088   2.11093   2.15036   2.19864
 Alpha virt. eigenvalues --    2.24473   2.33697   2.39707   2.62616   2.66646
 Alpha virt. eigenvalues --    2.94149   2.96783   3.40176   3.41471   3.51132
 Alpha virt. eigenvalues --    3.52276   3.53905   3.55154   3.60017   3.62517
 Alpha virt. eigenvalues --    3.79568   3.80798   3.85854   3.88440   3.94324
 Alpha virt. eigenvalues --    3.94894   3.95338   3.97906   4.02866   4.07603
 Alpha virt. eigenvalues --    4.08233   4.14681   4.16614   4.18505   4.30889
 Alpha virt. eigenvalues --    4.32297   4.43658   4.45495   4.46847   4.51206
 Alpha virt. eigenvalues --    4.66612   4.70031   4.86138   4.87840   5.05586
 Alpha virt. eigenvalues --    5.07770   5.24614   5.31640   5.57183   5.58896
 Alpha virt. eigenvalues --    5.98905   6.00113   6.41357   6.42755   6.87140
 Alpha virt. eigenvalues --    6.88377   6.90564   6.91848   6.95203   7.00013
 Alpha virt. eigenvalues --    7.00481   7.01504   7.10132   7.11234   7.16479
 Alpha virt. eigenvalues --    7.19243   7.20083   7.20602   7.47535   7.51981
 Alpha virt. eigenvalues --    7.72426   7.75513   8.16688   8.21044  12.49973
 Alpha virt. eigenvalues --   12.79586
          Condensed to atoms (all electrons):
               1          2          3          4          5          6
     1  O    7.828899   0.315240   0.332404  -0.009665   0.000226   0.008085
     2  H    0.315240   0.480976  -0.027476   0.001020  -0.000057  -0.001042
     3  H    0.332404  -0.027476   0.447398   0.001672  -0.000075  -0.000698
     4  O   -0.009665   0.001020   0.001672   7.832334   0.309468   0.334641
     5  H    0.000226  -0.000057  -0.000075   0.309468   0.497110  -0.028119
     6  H    0.008085  -0.001042  -0.000698   0.334641  -0.028119   0.442037
 Mulliken charges:
               1
     1  O   -0.475190
     2  H    0.231340
     3  H    0.246775
     4  O   -0.469469
     5  H    0.221448
     6  H    0.245096
 Sum of Mulliken charges =  -0.00000
 Mulliken charges with hydrogens summed into heavy atoms:
               1
     1  O    0.002925
     4  O   -0.002925
 Electronic spatial extent (au):  <R**2>=            183.6704
 Charge=             -0.0000 electrons
 Dipole moment (field-independent basis, Debye):
    X=             -1.3727    Y=             -0.7490    Z=              0.0000  Tot=              1.5638
 Quadrupole moment (field-independent basis, Debye-Ang):
   XX=             -9.0458   YY=             -2.3673   ZZ=            -14.7199
   XY=             -1.2526   XZ=              0.0000   YZ=              0.0000
 Traceless Quadrupole moment (field-independent basis, Debye-Ang):
   XX=             -0.3348   YY=              6.3437   ZZ=             -6.0089
   XY=             -1.2526   XZ=              0.0000   YZ=              0.0000
 Octapole moment (field-independent basis, Debye-Ang**2):
  XXX=             -1.5851  YYY=              1.5402  ZZZ=              0.0000  XYY=              0.4646
  XXY=             -3.5463  XXZ=              0.0000  XZZ=             -0.1534  YZZ=             -0.1214
  YYZ=              0.0000  XYZ=              0.0000
 Hexadecapole moment (field-independent basis, Debye-Ang**3):
 XXXX=            -11.3407 YYYY=           -100.7146 ZZZZ=            -11.3661 XXXY=             -1.0222
 XXXZ=              0.0000 YYYX=              3.3592 YYYZ=              0.0000 ZZZX=              0.0000
 ZZZY=              0.0000 XXYY=            -20.1665 XXZZ=             -4.5101 YYZZ=            -34.4570
 XXYZ=              0.0000 YYXZ=              0.0000 ZZXY=              0.4915
 N-N= 3.613454447078D+01 E-N=-4.340272425001D+02  KE= 1.518279570903D+02
 Symmetry A'   KE= 1.427935641031D+02
 Symmetry A"   KE= 9.034392987114D+00
 Leave Link  601 at Sat Aug 27 01:46:57 2022, MaxMem=   536870912 cpu:               0.1 elap:               0.1
 (Enter /usr/site/hpc/x86_64/glibc-2.17/broadwell/gaussian/g16_a.03/pgi-16.5/g16/l9999.exe)
 1\1\GINC-N003\SP\RCCSD(T)-FC\CC-pVTZ\H4O2\C7441284\27-Aug-2022\0\\#p C
 CSD(T)/cc-pVTZ\\H2O_H2O_1063\\0,1\O,0,0.,-0.009833,0.\H,0,-0.799571,-0
 .580965,0.\H,0,0.799571,-0.580965,0.\O,0,-0.007393,2.710872,0.\H,0,0.0
 90401,3.688595,0.\H,0,-0.963987,2.486295,0.\\Version=ES64L-G16RevA.03\
 State=1-A'\HF=-152.1012769\MP2=-152.629468\MP3=-152.6367128\MP4D=-152.
 6459223\MP4DQ=-152.6381873\MP4SDQ=-152.6413743\CCSD=-152.6407356\CCSD(
 T)=-152.6566951\RMSD=3.783e-09\PG=CS [SG(H4O2)]\\@


 HERE WE GO......
 SLIDING DOWN THE RAZOR BLADE OF LIFE......
                                 TOM LEHRER
 Job cpu time:       0 days  0 hours  1 minutes 43.2 seconds.
 Elapsed time:       0 days  0 hours  0 minutes 26.4 seconds.
 File lengths (MBytes):  RWF=    364 Int=      0 D2E=      0 Chk=      8 Scr=      8
 Normal termination of Gaussian 16 at Sat Aug 27 01:46:57 2022.
