 Entering Gaussian System, Link 0=g16
 Input=H2O_H2O_4841.com
 Output=H2O_H2O_4841.log
 Initial command:
 /usr/site/hpc/x86_64/glibc-2.17/broadwell/gaussian/g16_a.03/pgi-16.5/g16/l1.exe "/gpfs/gpfs1/scratch/c7441284/ForceFieldModel/FittingData/Gau-3783613.inp" -scrdir="/gpfs/gpfs1/scratch/c7441284/ForceFieldModel/FittingData/"
 Entering Link 1 = /usr/site/hpc/x86_64/glibc-2.17/broadwell/gaussian/g16_a.03/pgi-16.5/g16/l1.exe PID=   3783614.
  
 Copyright (c) 1988,1990,1992,1993,1995,1998,2003,2009,2016,
            Gaussian, Inc.  All Rights Reserved.
  
 This is part of the Gaussian(R) 16 program.  It is based on
 the Gaussian(R) 09 system (copyright 2009, Gaussian, Inc.),
 the Gaussian(R) 03 system (copyright 2003, Gaussian, Inc.),
 the Gaussian(R) 98 system (copyright 1998, Gaussian, Inc.),
 the Gaussian(R) 94 system (copyright 1995, Gaussian, Inc.),
 the Gaussian 92(TM) system (copyright 1992, Gaussian, Inc.),
 the Gaussian 90(TM) system (copyright 1990, Gaussian, Inc.),
 the Gaussian 88(TM) system (copyright 1988, Gaussian, Inc.),
 the Gaussian 86(TM) system (copyright 1986, Carnegie Mellon
 University), and the Gaussian 82(TM) system (copyright 1983,
 Carnegie Mellon University). Gaussian is a federally registered
 trademark of Gaussian, Inc.
  
 This software contains proprietary and confidential information,
 including trade secrets, belonging to Gaussian, Inc.
  
 This software is provided under written license and may be
 used, copied, transmitted, or stored only in accord with that
 written license.
  
 The following legend is applicable only to US Government
 contracts under FAR:
  
                    RESTRICTED RIGHTS LEGEND
  
 Use, reproduction and disclosure by the US Government is
 subject to restrictions as set forth in subparagraphs (a)
 and (c) of the Commercial Computer Software - Restricted
 Rights clause in FAR 52.227-19.
  
 Gaussian, Inc.
 340 Quinnipiac St., Bldg. 40, Wallingford CT 06492
  
  
 ---------------------------------------------------------------
 Warning -- This program may not be used in any manner that
 competes with the business of Gaussian, Inc. or will provide
 assistance to any competitor of Gaussian, Inc.  The licensee
 of this program is prohibited from giving any competitor of
 Gaussian, Inc. access to this program.  By using this program,
 the user acknowledges that Gaussian, Inc. is engaged in the
 business of creating and licensing software in the field of
 computational chemistry and represents and warrants to the
 licensee that it is not a competitor of Gaussian, Inc. and that
 it will not use this program in any manner prohibited above.
 ---------------------------------------------------------------
  

 Cite this work as:
 Gaussian 16, Revision A.03,
 M. J. Frisch, G. W. Trucks, H. B. Schlegel, G. E. Scuseria, 
 M. A. Robb, J. R. Cheeseman, G. Scalmani, V. Barone, 
 G. A. Petersson, H. Nakatsuji, X. Li, M. Caricato, A. V. Marenich, 
 J. Bloino, B. G. Janesko, R. Gomperts, B. Mennucci, H. P. Hratchian, 
 J. V. Ortiz, A. F. Izmaylov, J. L. Sonnenberg, D. Williams-Young, 
 F. Ding, F. Lipparini, F. Egidi, J. Goings, B. Peng, A. Petrone, 
 T. Henderson, D. Ranasinghe, V. G. Zakrzewski, J. Gao, N. Rega, 
 G. Zheng, W. Liang, M. Hada, M. Ehara, K. Toyota, R. Fukuda, 
 J. Hasegawa, M. Ishida, T. Nakajima, Y. Honda, O. Kitao, H. Nakai, 
 T. Vreven, K. Throssell, J. A. Montgomery, Jr., J. E. Peralta, 
 F. Ogliaro, M. J. Bearpark, J. J. Heyd, E. N. Brothers, K. N. Kudin, 
 V. N. Staroverov, T. A. Keith, R. Kobayashi, J. Normand, 
 K. Raghavachari, A. P. Rendell, J. C. Burant, S. S. Iyengar, 
 J. Tomasi, M. Cossi, J. M. Millam, M. Klene, C. Adamo, R. Cammi, 
 J. W. Ochterski, R. L. Martin, K. Morokuma, O. Farkas, 
 J. B. Foresman, and D. J. Fox, Gaussian, Inc., Wallingford CT, 2016.
 
 ******************************************
 Gaussian 16:  ES64L-G16RevA.03 25-Dec-2016
                27-Aug-2022 
 ******************************************
 %NProcShared=4
 Will use up to    4 processors via shared memory.
 %Mem=4GB
 %Chk=H2O_H2O_4841.chk
 ------------------
 #p CCSD(T)/cc-pVTZ
 ------------------
 1/38=1,172=1/1;
 2/12=2,17=6,18=5,40=1/2;
 3/5=16,6=1,11=9,25=1,30=1/1,2,3;
 4//1;
 5/5=2,38=5/2;
 8/6=4,9=120000,10=1/1,4;
 9/5=7,14=2/13;
 6/7=2,8=2,9=2,10=2/1;
 99/5=1,9=1/99;
 Leave Link    1 at Sat Aug 27 09:37:57 2022, MaxMem=   536870912 cpu:               2.1 elap:               0.7
 (Enter /usr/site/hpc/x86_64/glibc-2.17/broadwell/gaussian/g16_a.03/pgi-16.5/g16/l101.exe)
 ------------
 H2O_H2O_4841
 ------------
 Symbolic Z-matrix:
 Charge =  0 Multiplicity = 1
 O                     0.       -0.00983   0. 
 H                    -0.79957  -0.58097   0. 
 H                     0.79957  -0.58097   0. 
 O                    -0.00852   6.72467   0. 
 H                    -0.10335   7.70268   0. 
 H                    -0.90292   6.31779   0. 
 
 ITRead=  0  0  0  0  0  0
 MicOpt= -1 -1 -1 -1 -1 -1
 NAtoms=      6 NQM=        6 NQMF=       0 NMMI=      0 NMMIF=      0
                NMic=       0 NMicF=      0.
                    Isotopes and Nuclear Properties:
 (Nuclear quadrupole moments (NQMom) in fm**2, nuclear magnetic moments (NMagM)
  in nuclear magnetons)

  Atom         1           2           3           4           5           6
 IAtWgt=          16           1           1          16           1           1
 AtmWgt=  15.9949146   1.0078250   1.0078250  15.9949146   1.0078250   1.0078250
 NucSpn=           0           1           1           0           1           1
 AtZEff=  -0.0000000  -0.0000000  -0.0000000  -0.0000000  -0.0000000  -0.0000000
 NQMom=    0.0000000   0.0000000   0.0000000   0.0000000   0.0000000   0.0000000
 NMagM=    0.0000000   2.7928460   2.7928460   0.0000000   2.7928460   2.7928460
 AtZNuc=   8.0000000   1.0000000   1.0000000   8.0000000   1.0000000   1.0000000
 Leave Link  101 at Sat Aug 27 09:37:57 2022, MaxMem=   536870912 cpu:               0.3 elap:               0.1
 (Enter /usr/site/hpc/x86_64/glibc-2.17/broadwell/gaussian/g16_a.03/pgi-16.5/g16/l202.exe)
                          Input orientation:                          
 ---------------------------------------------------------------------
 Center     Atomic      Atomic             Coordinates (Angstroms)
 Number     Number       Type             X           Y           Z
 ---------------------------------------------------------------------
      1          8           0        0.000000   -0.009833    0.000000
      2          1           0       -0.799571   -0.580965    0.000000
      3          1           0        0.799571   -0.580965    0.000000
      4          8           0       -0.008516    6.724669    0.000000
      5          1           0       -0.103345    7.702684    0.000000
      6          1           0       -0.902916    6.317786    0.000000
 ---------------------------------------------------------------------
                    Distance matrix (angstroms):
                    1          2          3          4          5
     1  O    0.000000
     2  H    0.982601   0.000000
     3  H    0.982601   1.599142   0.000000
     4  O    6.734507   7.348337   7.350190   0.000000
     5  H    7.713209   8.312856   8.332713   0.982602   0.000000
     6  H    6.391715   6.899525   7.105718   0.982601   1.599142
                    6
     6  H    0.000000
 Stoichiometry    H4O2
 Framework group  CS[SG(H4O2)]
 Deg. of freedom     9
 Full point group                 CS      NOp   2
 Largest Abelian subgroup         CS      NOp   2
 Largest concise Abelian subgroup C1      NOp   1
                         Standard orientation:                         
 ---------------------------------------------------------------------
 Center     Atomic      Atomic             Coordinates (Angstroms)
 Number     Number       Type             X           Y           Z
 ---------------------------------------------------------------------
      1          8           0        0.049498   -3.338760    0.000000
      2          1           0       -0.750795   -3.908880    0.000000
      3          1           0        0.848346   -3.910902    0.000000
      4          8           0        0.049498    3.395748    0.000000
      5          1           0       -0.044095    4.373882    0.000000
      6          1           0       -0.845416    2.989996    0.000000
 ---------------------------------------------------------------------
 Rotational constants (GHZ):         246.0248701           1.1979757           1.1921707
 Leave Link  202 at Sat Aug 27 09:37:57 2022, MaxMem=   536870912 cpu:               0.0 elap:               0.0
 (Enter /usr/site/hpc/x86_64/glibc-2.17/broadwell/gaussian/g16_a.03/pgi-16.5/g16/l301.exe)
 Standard basis: CC-pVTZ (5D, 7F)
 Ernie: Thresh=  0.10000D-02 Tol=  0.10000D-05 Strict=F.
 Ernie:  6 primitive shells out of 84 were deleted.
 There are    92 symmetry adapted cartesian basis functions of A'  symmetry.
 There are    38 symmetry adapted cartesian basis functions of A"  symmetry.
 There are    80 symmetry adapted basis functions of A'  symmetry.
 There are    36 symmetry adapted basis functions of A"  symmetry.
   116 basis functions,   172 primitive gaussians,   130 cartesian basis functions
    10 alpha electrons       10 beta electrons
       nuclear repulsion energy        25.5658433035 Hartrees.
 IExCor=    0 DFT=F Ex=HF Corr=None ExCW=0 ScaHFX=  1.000000
 ScaDFX=  1.000000  1.000000  1.000000  1.000000 ScalE2=  1.000000  1.000000
 IRadAn=      5 IRanWt=     -1 IRanGd=            0 ICorTp=0 IEmpDi=  4
 NAtoms=    6 NActive=    6 NUniq=    6 SFac= 1.00D+00 NAtFMM=   60 NAOKFM=F Big=F
 Integral buffers will be    131072 words long.
 Raffenetti 1 integral format.
 Two-electron integral symmetry is turned on.
 Leave Link  301 at Sat Aug 27 09:37:57 2022, MaxMem=   536870912 cpu:               0.2 elap:               0.1
 (Enter /usr/site/hpc/x86_64/glibc-2.17/broadwell/gaussian/g16_a.03/pgi-16.5/g16/l302.exe)
 NPDir=0 NMtPBC=     1 NCelOv=     1 NCel=       1 NClECP=     1 NCelD=      1
         NCelK=      1 NCelE2=     1 NClLst=     1 CellRange=     0.0.
 One-electron integrals computed using PRISM.
 One-electron integral symmetry used in STVInt
 NBasis=   116 RedAO= T EigKep=  2.69D-03  NBF=    80    36
 NBsUse=   116 1.00D-06 EigRej= -1.00D+00 NBFU=    80    36
 Leave Link  302 at Sat Aug 27 09:37:57 2022, MaxMem=   536870912 cpu:               0.4 elap:               0.1
 (Enter /usr/site/hpc/x86_64/glibc-2.17/broadwell/gaussian/g16_a.03/pgi-16.5/g16/l303.exe)
 DipDrv:  MaxL=1.
 Leave Link  303 at Sat Aug 27 09:37:57 2022, MaxMem=   536870912 cpu:               0.1 elap:               0.0
 (Enter /usr/site/hpc/x86_64/glibc-2.17/broadwell/gaussian/g16_a.03/pgi-16.5/g16/l401.exe)
 ExpMin= 1.03D-01 ExpMax= 1.53D+04 ExpMxC= 5.22D+02 IAcc=3 IRadAn=         5 AccDes= 0.00D+00
 Harris functional with IExCor=  205 and IRadAn=       5 diagonalized for initial guess.
 HarFok:  IExCor=  205 AccDes= 0.00D+00 IRadAn=         5 IDoV= 1 UseB2=F ITyADJ=14
 ICtDFT=  3500011 ScaDFX=  1.000000  1.000000  1.000000  1.000000
 FoFCou: FMM=F IPFlag=           0 FMFlag=      100000 FMFlg1=           0
         NFxFlg=           0 DoJE=T BraDBF=F KetDBF=T FulRan=T
         wScrn=  0.000000 ICntrl=       500 IOpCl=  0 I1Cent=   200000004 NGrid=           0
         NMat0=    1 NMatS0=      1 NMatT0=    0 NMatD0=    1 NMtDS0=    0 NMtDT0=    0
 Petite list used in FoFCou.
 Harris En= -152.298685379129    
 JPrj=0 DoOrth=F DoCkMO=F.
 Initial guess orbital symmetries:
       Occupied  (A') (A') (A') (A') (A') (A') (A') (A') (A") (A")
       Virtual   (A') (A') (A') (A') (A') (A') (A') (A') (A') (A')
                 (A") (A") (A') (A') (A') (A') (A") (A") (A") (A")
                 (A') (A') (A') (A') (A') (A') (A') (A') (A") (A")
                 (A") (A") (A') (A') (A') (A') (A') (A') (A') (A')
                 (A') (A') (A") (A") (A') (A') (A") (A") (A") (A")
                 (A') (A') (A') (A') (A') (A') (A") (A") (A') (A')
                 (A') (A') (A") (A") (A") (A") (A') (A') (A') (A')
                 (A") (A") (A') (A') (A') (A') (A') (A') (A') (A')
                 (A") (A") (A') (A') (A") (A") (A") (A") (A') (A')
                 (A") (A") (A') (A') (A') (A') (A") (A") (A') (A')
                 (A') (A') (A') (A') (A') (A')
 The electronic state of the initial guess is 1-A'.
 Leave Link  401 at Sat Aug 27 09:37:58 2022, MaxMem=   536870912 cpu:               0.7 elap:               0.2
 (Enter /usr/site/hpc/x86_64/glibc-2.17/broadwell/gaussian/g16_a.03/pgi-16.5/g16/l502.exe)
 Keep R1 ints in memory in symmetry-blocked form, NReq=34823457.
 FoFCou: FMM=F IPFlag=           0 FMFlag=           0 FMFlg1=           0
         NFxFlg=           0 DoJE=F BraDBF=F KetDBF=F FulRan=T
         wScrn=  0.000000 ICntrl=       600 IOpCl=  0 I1Cent=           0 NGrid=           0
         NMat0=    1 NMatS0=   6786 NMatT0=    0 NMatD0=    1 NMtDS0=    0 NMtDT0=    0
 Petite list used in FoFCou.
 Closed shell SCF:
 Using DIIS extrapolation, IDIIS=  1040.
 NGot=   536870912 LenX=   525040673 LenY=   525023332
 Requested convergence on RMS density matrix=1.00D-08 within 128 cycles.
 Requested convergence on MAX density matrix=1.00D-06.
 Requested convergence on             energy=1.00D-06.
 No special actions if energy rises.

 Cycle   1  Pass 1  IDiag  1:
 E= -151.926668434712    
 DIIS: error= 5.74D-02 at cycle   1 NSaved=   1.
 NSaved= 1 IEnMin= 1 EnMin= -151.926668434712     IErMin= 1 ErrMin= 5.74D-02
 ErrMax= 5.74D-02  0.00D+00 EMaxC= 1.00D-01 BMatC= 4.00D-01 BMatP= 4.00D-01
 IDIUse=3 WtCom= 4.26D-01 WtEn= 5.74D-01
 Coeff-Com:  0.100D+01
 Coeff-En:   0.100D+01
 Coeff:      0.100D+01
 Gap=     0.521 Goal=   None    Shift=    0.000
 GapD=    0.521 DampG=2.000 DampE=0.500 DampFc=1.0000 IDamp=-1.
 RMSDP=2.51D-03 MaxDP=6.64D-02              OVMax= 1.27D-01

 Cycle   2  Pass 1  IDiag  1:
 E= -152.038553867886     Delta-E=       -0.111885433174 Rises=F Damp=F
 DIIS: error= 3.61D-02 at cycle   2 NSaved=   2.
 NSaved= 2 IEnMin= 2 EnMin= -152.038553867886     IErMin= 2 ErrMin= 3.61D-02
 ErrMax= 3.61D-02  0.00D+00 EMaxC= 1.00D-01 BMatC= 1.13D-01 BMatP= 4.00D-01
 IDIUse=3 WtCom= 6.39D-01 WtEn= 3.61D-01
 Coeff-Com:  0.320D+00 0.680D+00
 Coeff-En:   0.167D+00 0.833D+00
 Coeff:      0.265D+00 0.735D+00
 Gap=     0.660 Goal=   None    Shift=    0.000
 RMSDP=1.31D-03 MaxDP=3.92D-02 DE=-1.12D-01 OVMax= 5.67D-02

 Cycle   3  Pass 1  IDiag  1:
 E= -152.103911715564     Delta-E=       -0.065357847678 Rises=F Damp=F
 DIIS: error= 8.03D-03 at cycle   3 NSaved=   3.
 NSaved= 3 IEnMin= 3 EnMin= -152.103911715564     IErMin= 3 ErrMin= 8.03D-03
 ErrMax= 8.03D-03  0.00D+00 EMaxC= 1.00D-01 BMatC= 5.31D-03 BMatP= 1.13D-01
 IDIUse=3 WtCom= 9.20D-01 WtEn= 8.03D-02
 Coeff-Com: -0.303D-01 0.146D+00 0.885D+00
 Coeff-En:   0.000D+00 0.000D+00 0.100D+01
 Coeff:     -0.278D-01 0.134D+00 0.894D+00
 Gap=     0.635 Goal=   None    Shift=    0.000
 RMSDP=2.29D-04 MaxDP=5.24D-03 DE=-6.54D-02 OVMax= 1.27D-02

 Cycle   4  Pass 1  IDiag  1:
 E= -152.107248951244     Delta-E=       -0.003337235680 Rises=F Damp=F
 DIIS: error= 7.57D-04 at cycle   4 NSaved=   4.
 NSaved= 4 IEnMin= 4 EnMin= -152.107248951244     IErMin= 4 ErrMin= 7.57D-04
 ErrMax= 7.57D-04  0.00D+00 EMaxC= 1.00D-01 BMatC= 3.27D-05 BMatP= 5.31D-03
 IDIUse=3 WtCom= 9.92D-01 WtEn= 7.57D-03
 Coeff-Com:  0.704D-02-0.585D-01-0.254D+00 0.131D+01
 Coeff-En:   0.000D+00 0.000D+00 0.000D+00 0.100D+01
 Coeff:      0.699D-02-0.581D-01-0.252D+00 0.130D+01
 Gap=     0.637 Goal=   None    Shift=    0.000
 RMSDP=5.16D-05 MaxDP=9.87D-04 DE=-3.34D-03 OVMax= 2.27D-03

 Cycle   5  Pass 1  IDiag  1:
 E= -152.107297110419     Delta-E=       -0.000048159175 Rises=F Damp=F
 DIIS: error= 1.80D-04 at cycle   5 NSaved=   5.
 NSaved= 5 IEnMin= 5 EnMin= -152.107297110419     IErMin= 5 ErrMin= 1.80D-04
 ErrMax= 1.80D-04  0.00D+00 EMaxC= 1.00D-01 BMatC= 1.30D-06 BMatP= 3.27D-05
 IDIUse=3 WtCom= 9.98D-01 WtEn= 1.80D-03
 Coeff-Com:  0.524D-03 0.207D-03-0.213D-02-0.212D+00 0.121D+01
 Coeff-En:   0.000D+00 0.000D+00 0.000D+00 0.000D+00 0.100D+01
 Coeff:      0.523D-03 0.207D-03-0.213D-02-0.211D+00 0.121D+01
 Gap=     0.638 Goal=   None    Shift=    0.000
 RMSDP=1.38D-05 MaxDP=2.82D-04 DE=-4.82D-05 OVMax= 6.73D-04

 Cycle   6  Pass 1  IDiag  1:
 E= -152.107299827924     Delta-E=       -0.000002717505 Rises=F Damp=F
 DIIS: error= 2.88D-05 at cycle   6 NSaved=   6.
 NSaved= 6 IEnMin= 6 EnMin= -152.107299827924     IErMin= 6 ErrMin= 2.88D-05
 ErrMax= 2.88D-05  0.00D+00 EMaxC= 1.00D-01 BMatC= 3.39D-08 BMatP= 1.30D-06
 IDIUse=1 WtCom= 1.00D+00 WtEn= 0.00D+00
 Coeff-Com: -0.281D-03 0.159D-02 0.724D-02-0.159D-02-0.260D+00 0.125D+01
 Coeff:     -0.281D-03 0.159D-02 0.724D-02-0.159D-02-0.260D+00 0.125D+01
 Gap=     0.638 Goal=   None    Shift=    0.000
 RMSDP=3.02D-06 MaxDP=6.57D-05 DE=-2.72D-06 OVMax= 1.53D-04

 Cycle   7  Pass 1  IDiag  1:
 E= -152.107299924138     Delta-E=       -0.000000096214 Rises=F Damp=F
 DIIS: error= 5.37D-06 at cycle   7 NSaved=   7.
 NSaved= 7 IEnMin= 7 EnMin= -152.107299924138     IErMin= 7 ErrMin= 5.37D-06
 ErrMax= 5.37D-06  0.00D+00 EMaxC= 1.00D-01 BMatC= 1.75D-09 BMatP= 3.39D-08
 IDIUse=1 WtCom= 1.00D+00 WtEn= 0.00D+00
 Coeff-Com:  0.353D-04-0.387D-03-0.177D-02 0.138D-01-0.111D-01-0.231D+00
 Coeff-Com:  0.123D+01
 Coeff:      0.353D-04-0.387D-03-0.177D-02 0.138D-01-0.111D-01-0.231D+00
 Coeff:      0.123D+01
 Gap=     0.638 Goal=   None    Shift=    0.000
 RMSDP=4.35D-07 MaxDP=9.24D-06 DE=-9.62D-08 OVMax= 2.97D-05

 Cycle   8  Pass 1  IDiag  1:
 E= -152.107299927857     Delta-E=       -0.000000003720 Rises=F Damp=F
 DIIS: error= 1.61D-06 at cycle   8 NSaved=   8.
 NSaved= 8 IEnMin= 8 EnMin= -152.107299927857     IErMin= 8 ErrMin= 1.61D-06
 ErrMax= 1.61D-06  0.00D+00 EMaxC= 1.00D-01 BMatC= 1.02D-10 BMatP= 1.75D-09
 IDIUse=1 WtCom= 1.00D+00 WtEn= 0.00D+00
 Coeff-Com:  0.642D-05 0.101D-04 0.912D-04-0.375D-02 0.180D-01-0.101D-01
 Coeff-Com: -0.293D+00 0.129D+01
 Coeff:      0.642D-05 0.101D-04 0.912D-04-0.375D-02 0.180D-01-0.101D-01
 Coeff:     -0.293D+00 0.129D+01
 Gap=     0.638 Goal=   None    Shift=    0.000
 RMSDP=1.08D-07 MaxDP=2.44D-06 DE=-3.72D-09 OVMax= 6.66D-06

 Cycle   9  Pass 1  IDiag  1:
 E= -152.107299928070     Delta-E=       -0.000000000213 Rises=F Damp=F
 DIIS: error= 3.71D-07 at cycle   9 NSaved=   9.
 NSaved= 9 IEnMin= 9 EnMin= -152.107299928070     IErMin= 9 ErrMin= 3.71D-07
 ErrMax= 3.71D-07  0.00D+00 EMaxC= 1.00D-01 BMatC= 1.25D-11 BMatP= 1.02D-10
 IDIUse=1 WtCom= 1.00D+00 WtEn= 0.00D+00
 Coeff-Com:  0.526D-07 0.274D-04 0.141D-03-0.217D-02 0.726D-02 0.886D-02
 Coeff-Com: -0.166D+00 0.410D+00 0.741D+00
 Coeff:      0.526D-07 0.274D-04 0.141D-03-0.217D-02 0.726D-02 0.886D-02
 Coeff:     -0.166D+00 0.410D+00 0.741D+00
 Gap=     0.638 Goal=   None    Shift=    0.000
 RMSDP=1.82D-08 MaxDP=3.90D-07 DE=-2.13D-10 OVMax= 1.23D-06

 Cycle  10  Pass 1  IDiag  1:
 E= -152.107299928082     Delta-E=       -0.000000000012 Rises=F Damp=F
 DIIS: error= 9.74D-08 at cycle  10 NSaved=  10.
 NSaved=10 IEnMin=10 EnMin= -152.107299928082     IErMin=10 ErrMin= 9.74D-08
 ErrMax= 9.74D-08  0.00D+00 EMaxC= 1.00D-01 BMatC= 4.95D-13 BMatP= 1.25D-11
 IDIUse=1 WtCom= 1.00D+00 WtEn= 0.00D+00
 Coeff-Com: -0.446D-06-0.460D-05-0.290D-04 0.574D-03-0.203D-02-0.219D-02
 Coeff-Com:  0.531D-01-0.180D+00-0.116D+00 0.125D+01
 Coeff:     -0.446D-06-0.460D-05-0.290D-04 0.574D-03-0.203D-02-0.219D-02
 Coeff:      0.531D-01-0.180D+00-0.116D+00 0.125D+01
 Gap=     0.638 Goal=   None    Shift=    0.000
 RMSDP=7.05D-09 MaxDP=2.09D-07 DE=-1.21D-11 OVMax= 4.32D-07

 SCF Done:  E(RHF) =  -152.107299928     A.U. after   10 cycles
            NFock= 10  Conv=0.70D-08     -V/T= 2.0020
 KE= 1.518047132164D+02 PE=-4.125916563168D+02 EE= 8.311379986877D+01
 Leave Link  502 at Sat Aug 27 09:37:59 2022, MaxMem=   536870912 cpu:               3.4 elap:               0.9
 (Enter /usr/site/hpc/x86_64/glibc-2.17/broadwell/gaussian/g16_a.03/pgi-16.5/g16/l801.exe)
 Windowed orbitals will be sorted by symmetry type.
 ExpMin= 1.03D-01 ExpMax= 1.53D+04 ExpMxC= 5.22D+02 IAcc=3 IRadAn=         5 AccDes= 0.00D+00
 HarFok:  IExCor=  205 AccDes= 0.00D+00 IRadAn=         5 IDoV=-2 UseB2=F ITyADJ=14
 ICtDFT= 12500011 ScaDFX=  1.000000  1.000000  1.000000  1.000000
 Largest valence mixing into a core orbital is  1.12D-04
 Largest core mixing into a valence orbital is  1.77D-05
 Range of M.O.s used for correlation:     3   116
 NBasis=   116 NAE=    10 NBE=    10 NFC=     2 NFV=     0
 NROrb=    114 NOA=     8 NOB=     8 NVA=   106 NVB=   106
 Leave Link  801 at Sat Aug 27 09:37:59 2022, MaxMem=   536870912 cpu:               0.3 elap:               0.1
 (Enter /usr/site/hpc/x86_64/glibc-2.17/broadwell/gaussian/g16_a.03/pgi-16.5/g16/l804.exe)
 Closed-shell transformation, MDV=   536870912 ITran=4 ISComp=2.
 Unit  1 TFree=        834515 TCopy=        406125.
 Semi-Direct transformation.
 ModeAB=           4 MOrb=             8 LenV=     536382797
 LASXX=      2873146 LTotXX=     2873146 LenRXX=     5831278
 LTotAB=     2958132 MaxLAS=     4715952 LenRXY=           0
 NonZer=     8704424 LenScr=    13107200 LnRSAI=     4715952
 LnScr1=     7340032 LExtra=           0 Total=     30994462
 MaxDsk=          -1 SrtSym=           T ITran=            4
 DoSDTr:  NPSUse=  4
 JobTyp=0 Pass  1:  I=   1 to   8.
 (rs|ai) integrals will be sorted in core.
 Complete sort for first half transformation.
 First half transformation complete.
 Complete sort for second half transformation.
 Second half transformation complete.
 Spin components of T(2) and E(2):
     alpha-alpha T2 =       0.1555881080D-01 E2=     -0.6379576671D-01
     alpha-beta  T2 =       0.9191162141D-01 E2=     -0.3982932946D+00
     beta-beta   T2 =       0.1555881080D-01 E2=     -0.6379576671D-01
 ANorm=    0.1059730741D+01
 E2 =    -0.5258848280D+00 EUMP2 =    -0.15263318475606D+03
 Leave Link  804 at Sat Aug 27 09:37:59 2022, MaxMem=   536870912 cpu:               2.6 elap:               0.7
 (Enter /usr/site/hpc/x86_64/glibc-2.17/broadwell/gaussian/g16_a.03/pgi-16.5/g16/l913.exe)
 CIDS:  MDV=   536870912.
 Frozen-core window:  NFC=   2 NFV=   0.
 IFCWin=0 IBDFC=1 NFBD=     0     0 NFCmp=     0     0 NFFFC=     0     0
 Using DD3R+UMP44R for 1st iteration.
 Using DD4RQ for 2nd and later iterations.
 Keep R2 and R3 ints in memory in symmetry-blocked form, NReq=35357534.
 FoFCou: FMM=F IPFlag=           0 FMFlag=           0 FMFlg1=           0
         NFxFlg=           0 DoJE=F BraDBF=F KetDBF=F FulRan=T
         wScrn=  0.000000 ICntrl=       600 IOpCl=  0 I1Cent=           0 NGrid=           0
         NMat0=    1 NMatS0=   6786 NMatT0=    0 NMatD0=    1 NMtDS0=    0 NMtDT0=    0
 Petite list used in FoFCou.
 CIDS: In Core Option IDoMem=           1.
 CCSD(T)
 =======
 Iterations=  50 Convergence= 0.100D-06
 Produce multiple copies of IABC intergrals
 Iteration Nr.   1
 **********************
 DD1Dir will call FoFMem   1 times, MxPair=        72
 NAB=    36 NAA=     0 NBB=     0.
 MP4(R+Q)=  0.75537606D-02
 Maximum subspace dimension=  5
 A-vector RMS=  1.7421123D-03 Max=  6.2014672D-03 conv= 1.00D-05.
 RLE energy=       -0.5258336663
 E3=       -0.75738237D-02        EUMP3=      -0.15264075858D+03
 E4(DQ)=   -0.15526533D-02        UMP4(DQ)=   -0.15264231123D+03
 E4(SDQ)=  -0.46084944D-02        UMP4(SDQ)=  -0.15264536707D+03
 VARIATIONAL ENERGIES WITH THE FIRST-ORDER WAVEFUNCTION:
 DE(Corr)= -0.52583367     E(Corr)=     -152.63313360    
 NORM(A)=   0.10601009D+01
 Iteration Nr.   2
 **********************
 DD1Dir will call FoFMem   1 times, MxPair=        72
 NAB=    36 NAA=     0 NBB=     0.
 A-vector RMS=  2.1227413D-04 Max=  2.3219297D-03 conv= 1.00D-05.
 RLE energy=       -0.5368963089
 DE(Corr)= -0.53573569     E(CORR)=     -152.64303562     Delta=-9.90D-03
 NORM(A)=   0.10638502D+01
 Iteration Nr.   3
 **********************
 DD1Dir will call FoFMem   1 times, MxPair=        72
 NAB=    36 NAA=     0 NBB=     0.
 A-vector RMS=  1.4123528D-04 Max=  9.2639189D-04 conv= 1.00D-05.
 RLE energy=       -0.5373921777
 DE(Corr)= -0.53680622     E(CORR)=     -152.64410615     Delta=-1.07D-03
 NORM(A)=   0.10644887D+01
 Iteration Nr.   4
 **********************
 DD1Dir will call FoFMem   1 times, MxPair=        72
 NAB=    36 NAA=     0 NBB=     0.
 A-vector RMS=  2.5823896D-05 Max=  1.5216794D-04 conv= 1.00D-05.
 RLE energy=       -0.5374754027
 DE(Corr)= -0.53744006     E(CORR)=     -152.64473999     Delta=-6.34D-04
 NORM(A)=   0.10645996D+01
 Iteration Nr.   5
 **********************
 DD1Dir will call FoFMem   1 times, MxPair=        72
 NAB=    36 NAA=     0 NBB=     0.
 A-vector RMS=  1.8784915D-05 Max=  1.7267266D-04 conv= 1.00D-05.
 RLE energy=       -0.5374837617
 DE(Corr)= -0.53747699     E(CORR)=     -152.64477692     Delta=-3.69D-05
 NORM(A)=   0.10646092D+01
 Iteration Nr.   6
 **********************
 DD1Dir will call FoFMem   1 times, MxPair=        72
 NAB=    36 NAA=     0 NBB=     0.
 A-vector RMS=  5.5351741D-06 Max=  4.4671323D-05 conv= 1.00D-05.
 RLE energy=       -0.5374745646
 DE(Corr)= -0.53748017     E(CORR)=     -152.64478009     Delta=-3.18D-06
 NORM(A)=   0.10646093D+01
 Iteration Nr.   7
 **********************
 DD1Dir will call FoFMem   1 times, MxPair=        72
 NAB=    36 NAA=     0 NBB=     0.
 A-vector RMS=  2.6596179D-06 Max=  2.4931386D-05 conv= 1.00D-05.
 RLE energy=       -0.5374813477
 DE(Corr)= -0.53748031     E(CORR)=     -152.64478024     Delta=-1.43D-07
 NORM(A)=   0.10646117D+01
 Iteration Nr.   8
 **********************
 DD1Dir will call FoFMem   1 times, MxPair=        72
 NAB=    36 NAA=     0 NBB=     0.
 A-vector RMS=  5.0985979D-07 Max=  4.3693543D-06 conv= 1.00D-05.
 RLE energy=       -0.5374797098
 DE(Corr)= -0.53747988     E(CORR)=     -152.64477980     Delta= 4.33D-07
 NORM(A)=   0.10646118D+01
 Iteration Nr.   9
 **********************
 DD1Dir will call FoFMem   1 times, MxPair=        72
 NAB=    36 NAA=     0 NBB=     0.
 A-vector RMS=  1.0939515D-07 Max=  8.8278090D-07 conv= 1.00D-05.
 RLE energy=       -0.5374802135
 DE(Corr)= -0.53748017     E(CORR)=     -152.64478010     Delta=-2.92D-07
 NORM(A)=   0.10646121D+01
 Iteration Nr.  10
 **********************
 DD1Dir will call FoFMem   1 times, MxPair=        72
 NAB=    36 NAA=     0 NBB=     0.
 A-vector RMS=  3.2904727D-08 Max=  2.6378027D-07 conv= 1.00D-05.
 RLE energy=       -0.5374801571
 DE(Corr)= -0.53748014     E(CORR)=     -152.64478007     Delta= 2.37D-08
 NORM(A)=   0.10646121D+01
 CI/CC converged in   10 iterations to DelEn= 2.37D-08 Conv= 1.00D-07 ErrA1= 3.29D-08 Conv= 1.00D-05
 Wavefunction amplitudes converged. E(Corr)=     -152.64478007    
 Largest amplitude= 4.79D-02
 IPart=  4 IA=    7   11.05% done.
 IPart=  4 IA=   13   21.46% done.
 IPart=  2 IA=   19   31.21% done.
 IPart=  3 IA=   25   40.32% done.
 IPart=  1 IA=   32   50.13% done.
 IPart=  1 IA=   40   60.27% done.
 IPart=  2 IA=   49   70.30% done.
 IPart=  2 IA=   60   80.58% done.
 IPart=  3 IA=   74   90.51% done.
 Time for triples=       46.07 seconds.
 T4(CCSD)= -0.16030541D-01
 T5(CCSD)=  0.40320905D-03
 CCSD(T)= -0.15266040741D+03
 Discarding MO integrals.
 Leave Link  913 at Sat Aug 27 09:38:16 2022, MaxMem=   536870912 cpu:              66.0 elap:              16.6
 (Enter /usr/site/hpc/x86_64/glibc-2.17/broadwell/gaussian/g16_a.03/pgi-16.5/g16/l601.exe)
 Copying SCF densities to generalized density rwf, IOpCl= 0 IROHF=0.

 **********************************************************************

            Population analysis using the SCF density.

 **********************************************************************

 Orbital symmetries:
       Occupied  (A') (A') (A') (A') (A') (A') (A') (A') (A") (A")
       Virtual   (A') (A') (A') (A') (A') (A') (A') (A') (A') (A')
                 (A") (A") (A') (A') (A') (A') (A") (A") (A") (A")
                 (A') (A') (A') (A') (A') (A') (A') (A') (A") (A")
                 (A") (A") (A') (A') (A') (A') (A') (A') (A') (A')
                 (A') (A') (A") (A") (A') (A') (A") (A") (A') (A')
                 (A") (A") (A') (A') (A') (A') (A") (A") (A") (A")
                 (A') (A') (A') (A') (A") (A") (A') (A') (A') (A')
                 (A") (A") (A') (A') (A') (A') (A') (A') (A') (A')
                 (A") (A") (A') (A') (A") (A") (A") (A") (A') (A')
                 (A") (A") (A') (A') (A') (A') (A") (A") (A') (A')
                 (A') (A') (A') (A') (A') (A')
 The electronic state is 1-A'.
 Alpha  occ. eigenvalues --  -20.55511 -20.55223  -1.32810  -1.32520  -0.70216
 Alpha  occ. eigenvalues --   -0.69922  -0.56252  -0.55961  -0.49921  -0.49632
 Alpha virt. eigenvalues --    0.14156   0.14445   0.20225   0.20529   0.54347
 Alpha virt. eigenvalues --    0.54652   0.57256   0.57545   0.67945   0.68242
 Alpha virt. eigenvalues --    0.78959   0.79244   0.80392   0.80701   0.82317
 Alpha virt. eigenvalues --    0.82604   0.84827   0.85116   0.97274   0.97559
 Alpha virt. eigenvalues --    1.14791   1.15084   1.17145   1.17443   1.51691
 Alpha virt. eigenvalues --    1.51971   1.51989   1.52278   2.00697   2.00986
 Alpha virt. eigenvalues --    2.06759   2.07051   2.09431   2.09732   2.14878
 Alpha virt. eigenvalues --    2.15173   2.25017   2.25307   2.61509   2.61801
 Alpha virt. eigenvalues --    2.92882   2.93176   3.39374   3.39666   3.49930
 Alpha virt. eigenvalues --    3.50222   3.53123   3.53412   3.59502   3.59794
 Alpha virt. eigenvalues --    3.78673   3.78962   3.85435   3.85729   3.87619
 Alpha virt. eigenvalues --    3.87911   3.93577   3.93869   4.03034   4.03323
 Alpha virt. eigenvalues --    4.08191   4.08481   4.15262   4.15552   4.30118
 Alpha virt. eigenvalues --    4.30408   4.39922   4.40217   4.45566   4.45860
 Alpha virt. eigenvalues --    4.66525   4.66814   4.80885   4.81177   5.04217
 Alpha virt. eigenvalues --    5.04506   5.24088   5.24378   5.54047   5.54340
 Alpha virt. eigenvalues --    5.97932   5.98222   6.40392   6.40681   6.86183
 Alpha virt. eigenvalues --    6.86474   6.89662   6.89953   6.94592   6.94884
 Alpha virt. eigenvalues --    6.99132   6.99422   7.07891   7.08186   7.12508
 Alpha virt. eigenvalues --    7.12798   7.18300   7.18591   7.47196   7.47490
 Alpha virt. eigenvalues --    7.70325   7.70618   8.15065   8.15356  12.49280
 Alpha virt. eigenvalues --   12.49569
          Condensed to atoms (all electrons):
               1          2          3          4          5          6
     1  O    7.816496   0.345403   0.346343  -0.000000  -0.000000   0.000000
     2  H    0.345403   0.438021  -0.036628   0.000000   0.000000  -0.000000
     3  H    0.346343  -0.036628   0.435249   0.000000   0.000000  -0.000000
     4  O   -0.000000   0.000000   0.000000   7.816570   0.345085   0.346417
     5  H   -0.000000   0.000000   0.000000   0.345085   0.439132  -0.036655
     6  H    0.000000  -0.000000  -0.000000   0.346417  -0.036655   0.434604
 Mulliken charges:
               1
     1  O   -0.508241
     2  H    0.253204
     3  H    0.255037
     4  O   -0.508072
     5  H    0.252438
     6  H    0.255634
 Sum of Mulliken charges =  -0.00000
 Mulliken charges with hydrogens summed into heavy atoms:
               1
     1  O    0.000000
     4  O   -0.000000
 Electronic spatial extent (au):  <R**2>=            875.3110
 Charge=             -0.0000 electrons
 Dipole moment (field-independent basis, Debye):
    X=             -1.7026    Y=             -0.9935    Z=              0.0000  Tot=              1.9712
 Quadrupole moment (field-independent basis, Debye-Ang):
   XX=             -9.3455   YY=              9.6474   ZZ=            -14.7117
   XY=             -5.0631   XZ=              0.0000   YZ=              0.0000
 Traceless Quadrupole moment (field-independent basis, Debye-Ang):
   XX=             -4.5422   YY=             14.4507   ZZ=             -9.9085
   XY=             -5.0631   XZ=              0.0000   YZ=              0.0000
 Octapole moment (field-independent basis, Debye-Ang**2):
  XXX=             -1.4316  YYY=            -17.0449  ZZZ=              0.0000  XYY=            -13.6749
  XXY=             -7.4433  XXZ=              0.0000  XZZ=             -0.2234  YZZ=             -0.1335
  YYZ=              0.0000  XYZ=              0.0000
 Hexadecapole moment (field-independent basis, Debye-Ang**3):
 XXXX=            -11.3723 YYYY=           -251.1677 ZZZZ=            -11.3353 XXXY=             -0.7179
 XXXZ=              0.0000 YYYX=            -40.6419 YYYZ=              0.0000 ZZZX=              0.0000
 ZZZY=              0.0000 XXYY=           -109.1668 XXZZ=             -4.4301 YYZZ=           -177.0680
 XXYZ=              0.0000 YYXZ=              0.0000 ZZXY=              1.6168
 N-N= 2.556584330351D+01 E-N=-4.125916550783D+02  KE= 1.518047132164D+02
 Symmetry A'   KE= 1.427673633075D+02
 Symmetry A"   KE= 9.037349908918D+00
 Leave Link  601 at Sat Aug 27 09:38:16 2022, MaxMem=   536870912 cpu:               0.1 elap:               0.0
 (Enter /usr/site/hpc/x86_64/glibc-2.17/broadwell/gaussian/g16_a.03/pgi-16.5/g16/l9999.exe)
 1\1\GINC-N003\SP\RCCSD(T)-FC\CC-pVTZ\H4O2\C7441284\27-Aug-2022\0\\#p C
 CSD(T)/cc-pVTZ\\H2O_H2O_4841\\0,1\O,0,0.,-0.009833,0.\H,0,-0.799571,-0
 .580965,0.\H,0,0.799571,-0.580965,0.\O,0,-0.008516,6.724669,0.\H,0,-0.
 103345,7.702684,0.\H,0,-0.902916,6.317786,0.\\Version=ES64L-G16RevA.03
 \State=1-A'\HF=-152.1072999\MP2=-152.6331848\MP3=-152.6407586\MP4D=-15
 2.649865\MP4DQ=-152.6423112\MP4SDQ=-152.6453671\CCSD=-152.6447801\CCSD
 (T)=-152.6604074\RMSD=7.046e-09\PG=CS [SG(H4O2)]\\@


 FROM THE ASHES OF OUR DESPAIR GROW THE FLOWERS OF TOMORROW.
 Job cpu time:       0 days  0 hours  1 minutes 16.4 seconds.
 Elapsed time:       0 days  0 hours  0 minutes 19.6 seconds.
 File lengths (MBytes):  RWF=    568 Int=      0 D2E=      0 Chk=      8 Scr=      8
 Normal termination of Gaussian 16 at Sat Aug 27 09:38:16 2022.
