 Entering Gaussian System, Link 0=g16
 Input=H2O_H2O_998.com
 Output=H2O_H2O_998.log
 Initial command:
 /usr/site/hpc/x86_64/glibc-2.17/broadwell/gaussian/g16_a.03/pgi-16.5/g16/l1.exe "/gpfs/gpfs1/scratch/c7441284/ForceFieldModel/FittingData/Gau-3497699.inp" -scrdir="/gpfs/gpfs1/scratch/c7441284/ForceFieldModel/FittingData/"
 Entering Link 1 = /usr/site/hpc/x86_64/glibc-2.17/broadwell/gaussian/g16_a.03/pgi-16.5/g16/l1.exe PID=   3497700.
  
 Copyright (c) 1988,1990,1992,1993,1995,1998,2003,2009,2016,
            Gaussian, Inc.  All Rights Reserved.
  
 This is part of the Gaussian(R) 16 program.  It is based on
 the Gaussian(R) 09 system (copyright 2009, Gaussian, Inc.),
 the Gaussian(R) 03 system (copyright 2003, Gaussian, Inc.),
 the Gaussian(R) 98 system (copyright 1998, Gaussian, Inc.),
 the Gaussian(R) 94 system (copyright 1995, Gaussian, Inc.),
 the Gaussian 92(TM) system (copyright 1992, Gaussian, Inc.),
 the Gaussian 90(TM) system (copyright 1990, Gaussian, Inc.),
 the Gaussian 88(TM) system (copyright 1988, Gaussian, Inc.),
 the Gaussian 86(TM) system (copyright 1986, Carnegie Mellon
 University), and the Gaussian 82(TM) system (copyright 1983,
 Carnegie Mellon University). Gaussian is a federally registered
 trademark of Gaussian, Inc.
  
 This software contains proprietary and confidential information,
 including trade secrets, belonging to Gaussian, Inc.
  
 This software is provided under written license and may be
 used, copied, transmitted, or stored only in accord with that
 written license.
  
 The following legend is applicable only to US Government
 contracts under FAR:
  
                    RESTRICTED RIGHTS LEGEND
  
 Use, reproduction and disclosure by the US Government is
 subject to restrictions as set forth in subparagraphs (a)
 and (c) of the Commercial Computer Software - Restricted
 Rights clause in FAR 52.227-19.
  
 Gaussian, Inc.
 340 Quinnipiac St., Bldg. 40, Wallingford CT 06492
  
  
 ---------------------------------------------------------------
 Warning -- This program may not be used in any manner that
 competes with the business of Gaussian, Inc. or will provide
 assistance to any competitor of Gaussian, Inc.  The licensee
 of this program is prohibited from giving any competitor of
 Gaussian, Inc. access to this program.  By using this program,
 the user acknowledges that Gaussian, Inc. is engaged in the
 business of creating and licensing software in the field of
 computational chemistry and represents and warrants to the
 licensee that it is not a competitor of Gaussian, Inc. and that
 it will not use this program in any manner prohibited above.
 ---------------------------------------------------------------
  

 Cite this work as:
 Gaussian 16, Revision A.03,
 M. J. Frisch, G. W. Trucks, H. B. Schlegel, G. E. Scuseria, 
 M. A. Robb, J. R. Cheeseman, G. Scalmani, V. Barone, 
 G. A. Petersson, H. Nakatsuji, X. Li, M. Caricato, A. V. Marenich, 
 J. Bloino, B. G. Janesko, R. Gomperts, B. Mennucci, H. P. Hratchian, 
 J. V. Ortiz, A. F. Izmaylov, J. L. Sonnenberg, D. Williams-Young, 
 F. Ding, F. Lipparini, F. Egidi, J. Goings, B. Peng, A. Petrone, 
 T. Henderson, D. Ranasinghe, V. G. Zakrzewski, J. Gao, N. Rega, 
 G. Zheng, W. Liang, M. Hada, M. Ehara, K. Toyota, R. Fukuda, 
 J. Hasegawa, M. Ishida, T. Nakajima, Y. Honda, O. Kitao, H. Nakai, 
 T. Vreven, K. Throssell, J. A. Montgomery, Jr., J. E. Peralta, 
 F. Ogliaro, M. J. Bearpark, J. J. Heyd, E. N. Brothers, K. N. Kudin, 
 V. N. Staroverov, T. A. Keith, R. Kobayashi, J. Normand, 
 K. Raghavachari, A. P. Rendell, J. C. Burant, S. S. Iyengar, 
 J. Tomasi, M. Cossi, J. M. Millam, M. Klene, C. Adamo, R. Cammi, 
 J. W. Ochterski, R. L. Martin, K. Morokuma, O. Farkas, 
 J. B. Foresman, and D. J. Fox, Gaussian, Inc., Wallingford CT, 2016.
 
 ******************************************
 Gaussian 16:  ES64L-G16RevA.03 25-Dec-2016
                27-Aug-2022 
 ******************************************
 %NProcShared=4
 Will use up to    4 processors via shared memory.
 %Mem=4GB
 %Chk=H2O_H2O_998.chk
 ------------------
 #p CCSD(T)/cc-pVTZ
 ------------------
 1/38=1,172=1/1;
 2/12=2,17=6,18=5,40=1/2;
 3/5=16,6=1,11=9,25=1,30=1/1,2,3;
 4//1;
 5/5=2,38=5/2;
 8/6=4,9=120000,10=1/1,4;
 9/5=7,14=2/13;
 6/7=2,8=2,9=2,10=2/1;
 99/5=1,9=1/99;
 Leave Link    1 at Sat Aug 27 01:15:37 2022, MaxMem=   536870912 cpu:               0.3 elap:               0.1
 (Enter /usr/site/hpc/x86_64/glibc-2.17/broadwell/gaussian/g16_a.03/pgi-16.5/g16/l101.exe)
 -----------
 H2O_H2O_998
 -----------
 Symbolic Z-matrix:
 Charge =  0 Multiplicity = 1
 O                     0.       -0.00983   0. 
 H                    -0.79957  -0.58097   0. 
 H                     0.79957  -0.58097   0. 
 O                    -0.00981   2.62526   0. 
 H                    -0.52743   3.46047   0. 
 H                    -0.63202   1.86475   0. 
 
 ITRead=  0  0  0  0  0  0
 MicOpt= -1 -1 -1 -1 -1 -1
 NAtoms=      6 NQM=        6 NQMF=       0 NMMI=      0 NMMIF=      0
                NMic=       0 NMicF=      0.
                    Isotopes and Nuclear Properties:
 (Nuclear quadrupole moments (NQMom) in fm**2, nuclear magnetic moments (NMagM)
  in nuclear magnetons)

  Atom         1           2           3           4           5           6
 IAtWgt=          16           1           1          16           1           1
 AtmWgt=  15.9949146   1.0078250   1.0078250  15.9949146   1.0078250   1.0078250
 NucSpn=           0           1           1           0           1           1
 AtZEff=  -0.0000000  -0.0000000  -0.0000000  -0.0000000  -0.0000000  -0.0000000
 NQMom=    0.0000000   0.0000000   0.0000000   0.0000000   0.0000000   0.0000000
 NMagM=    0.0000000   2.7928460   2.7928460   0.0000000   2.7928460   2.7928460
 AtZNuc=   8.0000000   1.0000000   1.0000000   8.0000000   1.0000000   1.0000000
 Leave Link  101 at Sat Aug 27 01:15:37 2022, MaxMem=   536870912 cpu:               0.3 elap:               0.1
 (Enter /usr/site/hpc/x86_64/glibc-2.17/broadwell/gaussian/g16_a.03/pgi-16.5/g16/l202.exe)
                          Input orientation:                          
 ---------------------------------------------------------------------
 Center     Atomic      Atomic             Coordinates (Angstroms)
 Number     Number       Type             X           Y           Z
 ---------------------------------------------------------------------
      1          8           0        0.000000   -0.009833    0.000000
      2          1           0       -0.799571   -0.580965    0.000000
      3          1           0        0.799571   -0.580965    0.000000
      4          8           0       -0.009812    2.625256    0.000000
      5          1           0       -0.527427    3.460469    0.000000
      6          1           0       -0.632016    1.864750    0.000000
 ---------------------------------------------------------------------
                    Distance matrix (angstroms):
                    1          2          3          4          5
     1  O    0.000000
     2  H    0.982601   0.000000
     3  H    0.982601   1.599142   0.000000
     4  O    2.635107   3.302056   3.306804   0.000000
     5  H    3.510153   4.050587   4.253717   0.982602   0.000000
     6  H    1.978258   2.451448   2.833895   0.982602   1.599143
                    6
     6  H    0.000000
 Stoichiometry    H4O2
 Framework group  CS[SG(H4O2)]
 Deg. of freedom     9
 Full point group                 CS      NOp   2
 Largest Abelian subgroup         CS      NOp   2
 Largest concise Abelian subgroup C1      NOp   1
                         Standard orientation:                         
 ---------------------------------------------------------------------
 Center     Atomic      Atomic             Coordinates (Angstroms)
 Number     Number       Type             X           Y           Z
 ---------------------------------------------------------------------
      1          8           0        0.057189   -1.264388    0.000000
      2          1           0       -0.744503   -1.832539    0.000000
      3          1           0        0.854628   -1.838494    0.000000
      4          8           0        0.057189    1.370719    0.000000
      5          1           0       -0.457312    2.207853    0.000000
      6          1           0       -0.567842    0.612535    0.000000
 ---------------------------------------------------------------------
 Rotational constants (GHZ):         269.1020413           7.4628352           7.2614578
 Leave Link  202 at Sat Aug 27 01:15:38 2022, MaxMem=   536870912 cpu:               0.1 elap:               0.1
 (Enter /usr/site/hpc/x86_64/glibc-2.17/broadwell/gaussian/g16_a.03/pgi-16.5/g16/l301.exe)
 Standard basis: CC-pVTZ (5D, 7F)
 Ernie: Thresh=  0.10000D-02 Tol=  0.10000D-05 Strict=F.
 Ernie:  6 primitive shells out of 84 were deleted.
 There are    92 symmetry adapted cartesian basis functions of A'  symmetry.
 There are    38 symmetry adapted cartesian basis functions of A"  symmetry.
 There are    80 symmetry adapted basis functions of A'  symmetry.
 There are    36 symmetry adapted basis functions of A"  symmetry.
   116 basis functions,   172 primitive gaussians,   130 cartesian basis functions
    10 alpha electrons       10 beta electrons
       nuclear repulsion energy        37.3136196365 Hartrees.
 IExCor=    0 DFT=F Ex=HF Corr=None ExCW=0 ScaHFX=  1.000000
 ScaDFX=  1.000000  1.000000  1.000000  1.000000 ScalE2=  1.000000  1.000000
 IRadAn=      5 IRanWt=     -1 IRanGd=            0 ICorTp=0 IEmpDi=  4
 NAtoms=    6 NActive=    6 NUniq=    6 SFac= 1.00D+00 NAtFMM=   60 NAOKFM=F Big=F
 Integral buffers will be    131072 words long.
 Raffenetti 1 integral format.
 Two-electron integral symmetry is turned on.
 Leave Link  301 at Sat Aug 27 01:15:38 2022, MaxMem=   536870912 cpu:               0.2 elap:               0.1
 (Enter /usr/site/hpc/x86_64/glibc-2.17/broadwell/gaussian/g16_a.03/pgi-16.5/g16/l302.exe)
 NPDir=0 NMtPBC=     1 NCelOv=     1 NCel=       1 NClECP=     1 NCelD=      1
         NCelK=      1 NCelE2=     1 NClLst=     1 CellRange=     0.0.
 One-electron integrals computed using PRISM.
 One-electron integral symmetry used in STVInt
 NBasis=   116 RedAO= T EigKep=  2.16D-03  NBF=    80    36
 NBsUse=   116 1.00D-06 EigRej= -1.00D+00 NBFU=    80    36
 Leave Link  302 at Sat Aug 27 01:15:38 2022, MaxMem=   536870912 cpu:               0.4 elap:               0.1
 (Enter /usr/site/hpc/x86_64/glibc-2.17/broadwell/gaussian/g16_a.03/pgi-16.5/g16/l303.exe)
 DipDrv:  MaxL=1.
 Leave Link  303 at Sat Aug 27 01:15:38 2022, MaxMem=   536870912 cpu:               0.1 elap:               0.0
 (Enter /usr/site/hpc/x86_64/glibc-2.17/broadwell/gaussian/g16_a.03/pgi-16.5/g16/l401.exe)
 ExpMin= 1.03D-01 ExpMax= 1.53D+04 ExpMxC= 5.22D+02 IAcc=3 IRadAn=         5 AccDes= 0.00D+00
 Harris functional with IExCor=  205 and IRadAn=       5 diagonalized for initial guess.
 HarFok:  IExCor=  205 AccDes= 0.00D+00 IRadAn=         5 IDoV= 1 UseB2=F ITyADJ=14
 ICtDFT=  3500011 ScaDFX=  1.000000  1.000000  1.000000  1.000000
 FoFCou: FMM=F IPFlag=           0 FMFlag=      100000 FMFlg1=           0
         NFxFlg=           0 DoJE=T BraDBF=F KetDBF=T FulRan=T
         wScrn=  0.000000 ICntrl=       500 IOpCl=  0 I1Cent=   200000004 NGrid=           0
         NMat0=    1 NMatS0=      1 NMatT0=    0 NMatD0=    1 NMtDS0=    0 NMtDT0=    0
 Petite list used in FoFCou.
 Harris En= -152.302741476239    
 JPrj=0 DoOrth=F DoCkMO=F.
 Initial guess orbital symmetries:
       Occupied  (A') (A') (A') (A') (A') (A') (A') (A') (A") (A")
       Virtual   (A') (A') (A') (A') (A') (A') (A') (A') (A") (A')
                 (A') (A") (A') (A') (A") (A") (A') (A") (A') (A")
                 (A') (A') (A') (A') (A') (A') (A') (A') (A") (A")
                 (A") (A') (A") (A') (A') (A') (A') (A') (A') (A')
                 (A') (A') (A") (A") (A') (A") (A') (A") (A") (A")
                 (A') (A') (A') (A') (A') (A") (A") (A') (A') (A")
                 (A') (A") (A') (A') (A") (A") (A') (A') (A') (A")
                 (A') (A") (A') (A') (A') (A') (A') (A') (A') (A')
                 (A") (A") (A') (A') (A") (A") (A") (A") (A') (A")
                 (A") (A') (A') (A') (A') (A") (A") (A') (A') (A')
                 (A') (A') (A') (A') (A') (A')
 The electronic state of the initial guess is 1-A'.
 Leave Link  401 at Sat Aug 27 01:15:38 2022, MaxMem=   536870912 cpu:               0.8 elap:               0.2
 (Enter /usr/site/hpc/x86_64/glibc-2.17/broadwell/gaussian/g16_a.03/pgi-16.5/g16/l502.exe)
 Keep R1 ints in memory in symmetry-blocked form, NReq=34823457.
 FoFCou: FMM=F IPFlag=           0 FMFlag=           0 FMFlg1=           0
         NFxFlg=           0 DoJE=F BraDBF=F KetDBF=F FulRan=T
         wScrn=  0.000000 ICntrl=       600 IOpCl=  0 I1Cent=           0 NGrid=           0
         NMat0=    1 NMatS0=   6786 NMatT0=    0 NMatD0=    1 NMtDS0=    0 NMtDT0=    0
 Petite list used in FoFCou.
 Closed shell SCF:
 Using DIIS extrapolation, IDIIS=  1040.
 NGot=   536870912 LenX=   525040673 LenY=   525023332
 Requested convergence on RMS density matrix=1.00D-08 within 128 cycles.
 Requested convergence on MAX density matrix=1.00D-06.
 Requested convergence on             energy=1.00D-06.
 No special actions if energy rises.

 Cycle   1  Pass 1  IDiag  1:
 E= -151.929302045588    
 DIIS: error= 6.51D-02 at cycle   1 NSaved=   1.
 NSaved= 1 IEnMin= 1 EnMin= -151.929302045588     IErMin= 1 ErrMin= 6.51D-02
 ErrMax= 6.51D-02  0.00D+00 EMaxC= 1.00D-01 BMatC= 3.94D-01 BMatP= 3.94D-01
 IDIUse=3 WtCom= 3.49D-01 WtEn= 6.51D-01
 Coeff-Com:  0.100D+01
 Coeff-En:   0.100D+01
 Coeff:      0.100D+01
 Gap=     0.493 Goal=   None    Shift=    0.000
 GapD=    0.493 DampG=2.000 DampE=0.500 DampFc=1.0000 IDamp=-1.
 RMSDP=2.71D-03 MaxDP=7.09D-02              OVMax= 1.22D-01

 Cycle   2  Pass 1  IDiag  1:
 E= -152.039380504331     Delta-E=       -0.110078458743 Rises=F Damp=F
 DIIS: error= 4.00D-02 at cycle   2 NSaved=   2.
 NSaved= 2 IEnMin= 2 EnMin= -152.039380504331     IErMin= 2 ErrMin= 4.00D-02
 ErrMax= 4.00D-02  0.00D+00 EMaxC= 1.00D-01 BMatC= 1.08D-01 BMatP= 3.94D-01
 IDIUse=3 WtCom= 6.00D-01 WtEn= 4.00D-01
 Coeff-Com:  0.315D+00 0.685D+00
 Coeff-En:   0.157D+00 0.843D+00
 Coeff:      0.252D+00 0.748D+00
 Gap=     0.622 Goal=   None    Shift=    0.000
 RMSDP=1.45D-03 MaxDP=4.11D-02 DE=-1.10D-01 OVMax= 5.81D-02

 Cycle   3  Pass 1  IDiag  1:
 E= -152.101516113215     Delta-E=       -0.062135608885 Rises=F Damp=F
 DIIS: error= 9.09D-03 at cycle   3 NSaved=   3.
 NSaved= 3 IEnMin= 3 EnMin= -152.101516113215     IErMin= 3 ErrMin= 9.09D-03
 ErrMax= 9.09D-03  0.00D+00 EMaxC= 1.00D-01 BMatC= 6.11D-03 BMatP= 1.08D-01
 IDIUse=3 WtCom= 9.09D-01 WtEn= 9.09D-02
 Coeff-Com: -0.311D-01 0.160D+00 0.871D+00
 Coeff-En:   0.000D+00 0.000D+00 0.100D+01
 Coeff:     -0.283D-01 0.145D+00 0.883D+00
 Gap=     0.593 Goal=   None    Shift=    0.000
 RMSDP=2.68D-04 MaxDP=6.74D-03 DE=-6.21D-02 OVMax= 1.33D-02

 Cycle   4  Pass 1  IDiag  1:
 E= -152.105323144581     Delta-E=       -0.003807031365 Rises=F Damp=F
 DIIS: error= 8.22D-04 at cycle   4 NSaved=   4.
 NSaved= 4 IEnMin= 4 EnMin= -152.105323144581     IErMin= 4 ErrMin= 8.22D-04
 ErrMax= 8.22D-04  0.00D+00 EMaxC= 1.00D-01 BMatC= 3.82D-05 BMatP= 6.11D-03
 IDIUse=3 WtCom= 9.92D-01 WtEn= 8.22D-03
 Coeff-Com:  0.717D-02-0.640D-01-0.245D+00 0.130D+01
 Coeff-En:   0.000D+00 0.000D+00 0.000D+00 0.100D+01
 Coeff:      0.711D-02-0.635D-01-0.243D+00 0.130D+01
 Gap=     0.596 Goal=   None    Shift=    0.000
 RMSDP=5.50D-05 MaxDP=1.07D-03 DE=-3.81D-03 OVMax= 2.76D-03

 Cycle   5  Pass 1  IDiag  1:
 E= -152.105377047745     Delta-E=       -0.000053903164 Rises=F Damp=F
 DIIS: error= 1.85D-04 at cycle   5 NSaved=   5.
 NSaved= 5 IEnMin= 5 EnMin= -152.105377047745     IErMin= 5 ErrMin= 1.85D-04
 ErrMax= 1.85D-04  0.00D+00 EMaxC= 1.00D-01 BMatC= 1.37D-06 BMatP= 3.82D-05
 IDIUse=3 WtCom= 9.98D-01 WtEn= 1.85D-03
 Coeff-Com:  0.536D-03 0.265D-03-0.244D-02-0.203D+00 0.121D+01
 Coeff-En:   0.000D+00 0.000D+00 0.000D+00 0.000D+00 0.100D+01
 Coeff:      0.535D-03 0.264D-03-0.244D-02-0.203D+00 0.120D+01
 Gap=     0.597 Goal=   None    Shift=    0.000
 RMSDP=1.43D-05 MaxDP=3.00D-04 DE=-5.39D-05 OVMax= 7.46D-04

 Cycle   6  Pass 1  IDiag  1:
 E= -152.105379829174     Delta-E=       -0.000002781429 Rises=F Damp=F
 DIIS: error= 2.95D-05 at cycle   6 NSaved=   6.
 NSaved= 6 IEnMin= 6 EnMin= -152.105379829174     IErMin= 6 ErrMin= 2.95D-05
 ErrMax= 2.95D-05  0.00D+00 EMaxC= 1.00D-01 BMatC= 3.60D-08 BMatP= 1.37D-06
 IDIUse=1 WtCom= 1.00D+00 WtEn= 0.00D+00
 Coeff-Com: -0.278D-03 0.186D-02 0.747D-02-0.148D-01-0.201D+00 0.121D+01
 Coeff:     -0.278D-03 0.186D-02 0.747D-02-0.148D-01-0.201D+00 0.121D+01
 Gap=     0.597 Goal=   None    Shift=    0.000
 RMSDP=3.29D-06 MaxDP=8.07D-05 DE=-2.78D-06 OVMax= 1.53D-04

 Cycle   7  Pass 1  IDiag  1:
 E= -152.105379927209     Delta-E=       -0.000000098035 Rises=F Damp=F
 DIIS: error= 3.97D-06 at cycle   7 NSaved=   7.
 NSaved= 7 IEnMin= 7 EnMin= -152.105379927209     IErMin= 7 ErrMin= 3.97D-06
 ErrMax= 3.97D-06  0.00D+00 EMaxC= 1.00D-01 BMatC= 2.04D-09 BMatP= 3.60D-08
 IDIUse=1 WtCom= 1.00D+00 WtEn= 0.00D+00
 Coeff-Com:  0.152D-04-0.360D-03-0.136D-02 0.169D-01-0.452D-01-0.140D+00
 Coeff-Com:  0.117D+01
 Coeff:      0.152D-04-0.360D-03-0.136D-02 0.169D-01-0.452D-01-0.140D+00
 Coeff:      0.117D+01
 Gap=     0.597 Goal=   None    Shift=    0.000
 RMSDP=5.59D-07 MaxDP=1.15D-05 DE=-9.80D-08 OVMax= 3.00D-05

 Cycle   8  Pass 1  IDiag  1:
 E= -152.105379931390     Delta-E=       -0.000000004180 Rises=F Damp=F
 DIIS: error= 1.67D-06 at cycle   8 NSaved=   8.
 NSaved= 8 IEnMin= 8 EnMin= -152.105379931390     IErMin= 8 ErrMin= 1.67D-06
 ErrMax= 1.67D-06  0.00D+00 EMaxC= 1.00D-01 BMatC= 1.15D-10 BMatP= 2.04D-09
 IDIUse=1 WtCom= 1.00D+00 WtEn= 0.00D+00
 Coeff-Com:  0.107D-04-0.108D-04-0.269D-04-0.356D-02 0.210D-01-0.164D-01
 Coeff-Com: -0.321D+00 0.132D+01
 Coeff:      0.107D-04-0.108D-04-0.269D-04-0.356D-02 0.210D-01-0.164D-01
 Coeff:     -0.321D+00 0.132D+01
 Gap=     0.597 Goal=   None    Shift=    0.000
 RMSDP=1.24D-07 MaxDP=2.64D-06 DE=-4.18D-09 OVMax= 7.22D-06

 Cycle   9  Pass 1  IDiag  1:
 E= -152.105379931653     Delta-E=       -0.000000000263 Rises=F Damp=F
 DIIS: error= 3.78D-07 at cycle   9 NSaved=   9.
 NSaved= 9 IEnMin= 9 EnMin= -152.105379931653     IErMin= 9 ErrMin= 3.78D-07
 ErrMax= 3.78D-07  0.00D+00 EMaxC= 1.00D-01 BMatC= 8.54D-12 BMatP= 1.15D-10
 IDIUse=1 WtCom= 1.00D+00 WtEn= 0.00D+00
 Coeff-Com:  0.131D-05 0.167D-04 0.666D-04-0.160D-02 0.672D-02 0.238D-02
 Coeff-Com: -0.113D+00 0.240D+00 0.865D+00
 Coeff:      0.131D-05 0.167D-04 0.666D-04-0.160D-02 0.672D-02 0.238D-02
 Coeff:     -0.113D+00 0.240D+00 0.865D+00
 Gap=     0.597 Goal=   None    Shift=    0.000
 RMSDP=1.97D-08 MaxDP=4.75D-07 DE=-2.63D-10 OVMax= 1.38D-06

 Cycle  10  Pass 1  IDiag  1:
 E= -152.105379931663     Delta-E=       -0.000000000010 Rises=F Damp=F
 DIIS: error= 1.74D-07 at cycle  10 NSaved=  10.
 NSaved=10 IEnMin=10 EnMin= -152.105379931663     IErMin=10 ErrMin= 1.74D-07
 ErrMax= 1.74D-07  0.00D+00 EMaxC= 1.00D-01 BMatC= 9.90D-13 BMatP= 8.54D-12
 IDIUse=1 WtCom= 1.00D+00 WtEn= 0.00D+00
 Coeff-Com: -0.924D-06 0.433D-05 0.144D-04 0.978D-04-0.917D-03 0.101D-02
 Coeff-Com:  0.200D-01-0.117D+00 0.141D+00 0.956D+00
 Coeff:     -0.924D-06 0.433D-05 0.144D-04 0.978D-04-0.917D-03 0.101D-02
 Coeff:      0.200D-01-0.117D+00 0.141D+00 0.956D+00
 Gap=     0.597 Goal=   None    Shift=    0.000
 RMSDP=7.08D-09 MaxDP=1.57D-07 DE=-1.01D-11 OVMax= 4.81D-07

 SCF Done:  E(RHF) =  -152.105379932     A.U. after   10 cycles
            NFock= 10  Conv=0.71D-08     -V/T= 2.0017
 KE= 1.518437609239D+02 PE=-4.362529086614D+02 EE= 9.499014816937D+01
 Leave Link  502 at Sat Aug 27 01:15:39 2022, MaxMem=   536870912 cpu:               3.9 elap:               1.1
 (Enter /usr/site/hpc/x86_64/glibc-2.17/broadwell/gaussian/g16_a.03/pgi-16.5/g16/l801.exe)
 Windowed orbitals will be sorted by symmetry type.
 ExpMin= 1.03D-01 ExpMax= 1.53D+04 ExpMxC= 5.22D+02 IAcc=3 IRadAn=         5 AccDes= 0.00D+00
 HarFok:  IExCor=  205 AccDes= 0.00D+00 IRadAn=         5 IDoV=-2 UseB2=F ITyADJ=14
 ICtDFT= 12500011 ScaDFX=  1.000000  1.000000  1.000000  1.000000
 Largest valence mixing into a core orbital is  1.12D-04
 Largest core mixing into a valence orbital is  1.78D-05
 Range of M.O.s used for correlation:     3   116
 NBasis=   116 NAE=    10 NBE=    10 NFC=     2 NFV=     0
 NROrb=    114 NOA=     8 NOB=     8 NVA=   106 NVB=   106
 Leave Link  801 at Sat Aug 27 01:15:39 2022, MaxMem=   536870912 cpu:               0.3 elap:               0.1
 (Enter /usr/site/hpc/x86_64/glibc-2.17/broadwell/gaussian/g16_a.03/pgi-16.5/g16/l804.exe)
 Closed-shell transformation, MDV=   536870912 ITran=4 ISComp=2.
 Unit  1 TFree=        834515 TCopy=        406125.
 Semi-Direct transformation.
 ModeAB=           2 MOrb=             8 LenV=     536362317
 LASXX=      2873146 LTotXX=     2873146 LenRXX=     2873146
 LTotAB=     2958132 MaxLAS=     7765680 LenRXY=     7765680
 NonZer=     7818576 LenScr=    12058624 LnRSAI=           0
 LnScr1=           0 LExtra=           0 Total=     22697450
 MaxDsk=          -1 SrtSym=           F ITran=            4
 DoSDTr:  NPSUse=  4
 JobTyp=0 Pass  1:  I=   1 to   8.
 (rs|ai) integrals will be sorted in core.
 Complete sort for first half transformation.
 First half transformation complete.
 Complete sort for second half transformation.
 Second half transformation complete.
 Spin components of T(2) and E(2):
     alpha-alpha T2 =       0.1582722393D-01 E2=     -0.6461788563D-01
     alpha-beta  T2 =       0.9238576223D-01 E2=     -0.4000085226D+00
     beta-beta   T2 =       0.1582722393D-01 E2=     -0.6461788563D-01
 ANorm=    0.1060207626D+01
 E2 =    -0.5292442938D+00 EUMP2 =    -0.15263462422551D+03
 Leave Link  804 at Sat Aug 27 01:15:41 2022, MaxMem=   536870912 cpu:               5.3 elap:               1.4
 (Enter /usr/site/hpc/x86_64/glibc-2.17/broadwell/gaussian/g16_a.03/pgi-16.5/g16/l913.exe)
 CIDS:  MDV=   536870912.
 Frozen-core window:  NFC=   2 NFV=   0.
 IFCWin=0 IBDFC=1 NFBD=     0     0 NFCmp=     0     0 NFFFC=     0     0
 Using DD3R+UMP44R for 1st iteration.
 Using DD4RQ for 2nd and later iterations.
 Keep R2 and R3 ints in memory in symmetry-blocked form, NReq=35357534.
 FoFCou: FMM=F IPFlag=           0 FMFlag=           0 FMFlg1=           0
         NFxFlg=           0 DoJE=F BraDBF=F KetDBF=F FulRan=T
         wScrn=  0.000000 ICntrl=       600 IOpCl=  0 I1Cent=           0 NGrid=           0
         NMat0=    1 NMatS0=   6786 NMatT0=    0 NMatD0=    1 NMtDS0=    0 NMtDT0=    0
 Petite list used in FoFCou.
 CIDS: In Core Option IDoMem=           1.
 CCSD(T)
 =======
 Iterations=  50 Convergence= 0.100D-06
 Produce multiple copies of IABC intergrals
 Iteration Nr.   1
 **********************
 DD1Dir will call FoFMem   1 times, MxPair=        72
 NAB=    36 NAA=     0 NBB=     0.
 MP4(R+Q)=  0.78082412D-02
 Maximum subspace dimension=  5
 A-vector RMS=  1.8503075D-03 Max=  5.6316158D-03 conv= 1.00D-05.
 RLE energy=       -0.5283629703
 E3=       -0.69941795D-02        EUMP3=      -0.15264161840D+03
 E4(DQ)=   -0.13242333D-02        UMP4(DQ)=   -0.15264294264D+03
 E4(SDQ)=  -0.45181788D-02        UMP4(SDQ)=  -0.15264613658D+03
 VARIATIONAL ENERGIES WITH THE FIRST-ORDER WAVEFUNCTION:
 DE(Corr)= -0.52836151     E(Corr)=     -152.63374144    
 NORM(A)=   0.10603496D+01
 Iteration Nr.   2
 **********************
 DD1Dir will call FoFMem   1 times, MxPair=        72
 NAB=    36 NAA=     0 NBB=     0.
 A-vector RMS=  2.0933261D-04 Max=  1.5223970D-03 conv= 1.00D-05.
 RLE energy=       -0.5395208287
 DE(Corr)= -0.53842459     E(CORR)=     -152.64380453     Delta=-1.01D-02
 NORM(A)=   0.10641410D+01
 Iteration Nr.   3
 **********************
 DD1Dir will call FoFMem   1 times, MxPair=        72
 NAB=    36 NAA=     0 NBB=     0.
 A-vector RMS=  1.6699281D-04 Max=  8.7071532D-04 conv= 1.00D-05.
 RLE energy=       -0.5400180808
 DE(Corr)= -0.53941920     E(CORR)=     -152.64479913     Delta=-9.95D-04
 NORM(A)=   0.10647814D+01
 Iteration Nr.   4
 **********************
 DD1Dir will call FoFMem   1 times, MxPair=        72
 NAB=    36 NAA=     0 NBB=     0.
 A-vector RMS=  3.2249399D-05 Max=  1.6017370D-04 conv= 1.00D-05.
 RLE energy=       -0.5400963257
 DE(Corr)= -0.54006201     E(CORR)=     -152.64544194     Delta=-6.43D-04
 NORM(A)=   0.10648994D+01
 Iteration Nr.   5
 **********************
 DD1Dir will call FoFMem   1 times, MxPair=        72
 NAB=    36 NAA=     0 NBB=     0.
 A-vector RMS=  1.9751411D-05 Max=  1.2938904D-04 conv= 1.00D-05.
 RLE energy=       -0.5401102745
 DE(Corr)= -0.54010240     E(CORR)=     -152.64548233     Delta=-4.04D-05
 NORM(A)=   0.10649134D+01
 Iteration Nr.   6
 **********************
 DD1Dir will call FoFMem   1 times, MxPair=        72
 NAB=    36 NAA=     0 NBB=     0.
 A-vector RMS=  6.0055670D-06 Max=  4.1915955D-05 conv= 1.00D-05.
 RLE energy=       -0.5401018482
 DE(Corr)= -0.54010627     E(CORR)=     -152.64548620     Delta=-3.87D-06
 NORM(A)=   0.10649133D+01
 Iteration Nr.   7
 **********************
 DD1Dir will call FoFMem   1 times, MxPair=        72
 NAB=    36 NAA=     0 NBB=     0.
 A-vector RMS=  2.6033946D-06 Max=  1.8482331D-05 conv= 1.00D-05.
 RLE energy=       -0.5401057637
 DE(Corr)= -0.54010646     E(CORR)=     -152.64548639     Delta=-1.87D-07
 NORM(A)=   0.10649149D+01
 Iteration Nr.   8
 **********************
 DD1Dir will call FoFMem   1 times, MxPair=        72
 NAB=    36 NAA=     0 NBB=     0.
 A-vector RMS=  1.0229829D-06 Max=  8.5770204D-06 conv= 1.00D-05.
 RLE energy=       -0.5401057532
 DE(Corr)= -0.54010598     E(CORR)=     -152.64548591     Delta= 4.78D-07
 NORM(A)=   0.10649152D+01
 Iteration Nr.   9
 **********************
 DD1Dir will call FoFMem   1 times, MxPair=        72
 NAB=    36 NAA=     0 NBB=     0.
 A-vector RMS=  2.2643671D-07 Max=  2.4074692D-06 conv= 1.00D-05.
 RLE energy=       -0.5401060004
 DE(Corr)= -0.54010607     E(CORR)=     -152.64548600     Delta=-9.21D-08
 NORM(A)=   0.10649156D+01
 CI/CC converged in    9 iterations to DelEn=-9.21D-08 Conv= 1.00D-07 ErrA1= 2.26D-07 Conv= 1.00D-05
 Wavefunction amplitudes converged. E(Corr)=     -152.64548600    
 Largest amplitude= 3.12D-02
 IPart=  3 IA=    7   11.05% done.
 IPart=  1 IA=   13   21.46% done.
 IPart=  1 IA=   19   31.21% done.
 IPart=  3 IA=   25   40.32% done.
 IPart=  2 IA=   32   50.13% done.
 IPart=  3 IA=   40   60.27% done.
 IPart=  1 IA=   49   70.30% done.
 IPart=  2 IA=   60   80.58% done.
 IPart=  1 IA=   74   90.51% done.
 Time for triples=       51.32 seconds.
 T4(CCSD)= -0.16528039D-01
 T5(CCSD)=  0.43045439D-03
 CCSD(T)= -0.15266158359D+03
 Discarding MO integrals.
 Leave Link  913 at Sat Aug 27 01:15:59 2022, MaxMem=   536870912 cpu:              71.0 elap:              18.1
 (Enter /usr/site/hpc/x86_64/glibc-2.17/broadwell/gaussian/g16_a.03/pgi-16.5/g16/l601.exe)
 Copying SCF densities to generalized density rwf, IOpCl= 0 IROHF=0.

 **********************************************************************

            Population analysis using the SCF density.

 **********************************************************************

 Orbital symmetries:
       Occupied  (A') (A') (A') (A') (A') (A') (A') (A') (A") (A")
       Virtual   (A') (A') (A') (A') (A') (A') (A') (A') (A') (A")
                 (A') (A') (A") (A") (A') (A") (A') (A") (A') (A")
                 (A') (A') (A') (A') (A') (A') (A') (A') (A") (A")
                 (A") (A') (A') (A") (A') (A') (A') (A') (A') (A')
                 (A') (A') (A") (A") (A') (A") (A') (A") (A') (A')
                 (A") (A") (A') (A') (A') (A") (A") (A') (A") (A")
                 (A') (A') (A') (A") (A") (A') (A') (A') (A') (A')
                 (A") (A") (A') (A') (A') (A') (A') (A') (A') (A')
                 (A") (A") (A') (A') (A") (A") (A") (A") (A') (A")
                 (A") (A') (A') (A') (A") (A') (A") (A') (A') (A')
                 (A') (A') (A') (A') (A') (A')
 The electronic state is 1-A'.
 Alpha  occ. eigenvalues --  -20.56834 -20.52226  -1.34442  -1.29668  -0.71789
 Alpha  occ. eigenvalues --   -0.68111  -0.56897  -0.53223  -0.51490  -0.46761
 Alpha virt. eigenvalues --    0.12957   0.17999   0.19393   0.26491   0.50890
 Alpha virt. eigenvalues --    0.56094   0.59101   0.60510   0.70908   0.73674
 Alpha virt. eigenvalues --    0.74788   0.80568   0.82642   0.83678   0.86596
 Alpha virt. eigenvalues --    0.86667   0.88165   0.98899   1.05169   1.06231
 Alpha virt. eigenvalues --    1.17128   1.18917   1.25345   1.44358   1.48373
 Alpha virt. eigenvalues --    1.51479   1.54856   1.70061   1.96956   2.03336
 Alpha virt. eigenvalues --    2.06444   2.08390   2.11165   2.12483   2.23119
 Alpha virt. eigenvalues --    2.24632   2.32051   2.45529   2.61316   2.70410
 Alpha virt. eigenvalues --    2.94028   3.02353   3.37659   3.42764   3.47224
 Alpha virt. eigenvalues --    3.51861   3.54340   3.57207   3.59065   3.68503
 Alpha virt. eigenvalues --    3.76701   3.83093   3.84689   3.89620   3.92107
 Alpha virt. eigenvalues --    3.92341   3.96382   4.04388   4.05810   4.06539
 Alpha virt. eigenvalues --    4.11705   4.12946   4.15942   4.29481   4.33615
 Alpha virt. eigenvalues --    4.35193   4.39045   4.48925   4.50916   4.57529
 Alpha virt. eigenvalues --    4.66825   4.70082   4.84032   4.88224   5.04386
 Alpha virt. eigenvalues --    5.11308   5.28306   5.35855   5.52954   5.61196
 Alpha virt. eigenvalues --    5.96402   6.01419   6.39049   6.46123   6.84865
 Alpha virt. eigenvalues --    6.88069   6.89366   6.92671   6.96121   6.98521
 Alpha virt. eigenvalues --    7.02787   7.02796   7.06508   7.12329   7.17012
 Alpha virt. eigenvalues --    7.19206   7.21738   7.25650   7.48032   7.55919
 Alpha virt. eigenvalues --    7.70999   7.77932   8.18616   8.24136  12.65074
 Alpha virt. eigenvalues --   12.76099
          Condensed to atoms (all electrons):
               1          2          3          4          5          6
     1  O    7.841234   0.303553   0.329116  -0.019497   0.000494   0.018906
     2  H    0.303553   0.481040  -0.021551   0.000900  -0.000066  -0.003428
     3  H    0.329116  -0.021551   0.436255   0.001278  -0.000071  -0.001681
     4  O   -0.019497   0.000900   0.001278   7.868036   0.328343   0.338733
     5  H    0.000494  -0.000066  -0.000071   0.328343   0.476481  -0.031802
     6  H    0.018906  -0.003428  -0.001681   0.338733  -0.031802   0.410499
 Mulliken charges:
               1
     1  O   -0.473807
     2  H    0.239552
     3  H    0.256653
     4  O   -0.517793
     5  H    0.226621
     6  H    0.268774
 Sum of Mulliken charges =  -0.00000
 Mulliken charges with hydrogens summed into heavy atoms:
               1
     1  O    0.022398
     4  O   -0.022398
 Electronic spatial extent (au):  <R**2>=            170.7203
 Charge=             -0.0000 electrons
 Dipole moment (field-independent basis, Debye):
    X=             -1.8181    Y=             -2.2228    Z=              0.0000  Tot=              2.8716
 Quadrupole moment (field-independent basis, Debye-Ang):
   XX=             -9.8506   YY=             -4.8682   ZZ=            -14.7225
   XY=             -2.7999   XZ=              0.0000   YZ=              0.0000
 Traceless Quadrupole moment (field-independent basis, Debye-Ang):
   XX=             -0.0368   YY=              4.9456   ZZ=             -4.9088
   XY=             -2.7999   XZ=              0.0000   YZ=              0.0000
 Octapole moment (field-independent basis, Debye-Ang**2):
  XXX=             -0.5549  YYY=             -4.0515  ZZZ=              0.0000  XYY=             -4.0449
  XXY=             -4.7369  XXZ=              0.0000  XZZ=             -0.2111  YZZ=             -0.4025
  YYZ=              0.0000  XYZ=              0.0000
 Hexadecapole moment (field-independent basis, Debye-Ang**3):
 XXXX=            -12.1064 YYYY=           -101.3442 ZZZZ=            -11.3830 XXXY=              0.5059
 XXXZ=              0.0000 YYYX=             -8.9943 YYYZ=              0.0000 ZZZX=              0.0000
 ZZZY=              0.0000 XXYY=            -18.5348 XXZZ=             -4.4009 YYZZ=            -31.7719
 XXYZ=              0.0000 YYXZ=              0.0000 ZZXY=              0.7267
 N-N= 3.731361963646D+01 E-N=-4.362529085491D+02  KE= 1.518437609239D+02
 Symmetry A'   KE= 1.428202461872D+02
 Symmetry A"   KE= 9.023514736641D+00
 Leave Link  601 at Sat Aug 27 01:15:59 2022, MaxMem=   536870912 cpu:               0.1 elap:               0.1
 (Enter /usr/site/hpc/x86_64/glibc-2.17/broadwell/gaussian/g16_a.03/pgi-16.5/g16/l9999.exe)
 1\1\GINC-N003\SP\RCCSD(T)-FC\CC-pVTZ\H4O2\C7441284\27-Aug-2022\0\\#p C
 CSD(T)/cc-pVTZ\\H2O_H2O_998\\0,1\O,0,0.,-0.009833,0.\H,0,-0.799571,-0.
 580965,0.\H,0,0.799571,-0.580965,0.\O,0,-0.009812,2.625256,0.\H,0,-0.5
 27427,3.460469,0.\H,0,-0.632016,1.86475,0.\\Version=ES64L-G16RevA.03\S
 tate=1-A'\HF=-152.1053799\MP2=-152.6346242\MP3=-152.6416184\MP4D=-152.
 6507509\MP4DQ=-152.6429426\MP4SDQ=-152.6461366\CCSD=-152.645486\CCSD(T
 )=-152.6615836\RMSD=7.079e-09\PG=CS [SG(H4O2)]\\@


 THEREFORE SHALL EVIL COME UPON THEE...
 THOU SHALT NOT KNOW FROM WHENCE IT RISETH...
 AND MISCHIEF SHALL FALL UPON THEE...
 THOU SHALT NOT BE ABLE TO PUT IT OFF...
 AND DESOLATION SHALL COME UPON THEE SUDDENLY...
 WHICH THOU SHALT NOT KNOW...

                                         ISAIAH 47.11
 Job cpu time:       0 days  0 hours  1 minutes 22.8 seconds.
 Elapsed time:       0 days  0 hours  0 minutes 21.5 seconds.
 File lengths (MBytes):  RWF=    572 Int=      0 D2E=      0 Chk=      8 Scr=      8
 Normal termination of Gaussian 16 at Sat Aug 27 01:15:59 2022.
