 Entering Gaussian System, Link 0=g16
 Input=H2O_H2O_1578.com
 Output=H2O_H2O_1578.log
 Initial command:
 /usr/site/hpc/x86_64/glibc-2.17/broadwell/gaussian/g16_a.03/pgi-16.5/g16/l1.exe "/gpfs/gpfs1/scratch/c7441284/ForceFieldModel/FittingData/Gau-3638665.inp" -scrdir="/gpfs/gpfs1/scratch/c7441284/ForceFieldModel/FittingData/"
 Entering Link 1 = /usr/site/hpc/x86_64/glibc-2.17/broadwell/gaussian/g16_a.03/pgi-16.5/g16/l1.exe PID=   3638666.
  
 Copyright (c) 1988,1990,1992,1993,1995,1998,2003,2009,2016,
            Gaussian, Inc.  All Rights Reserved.
  
 This is part of the Gaussian(R) 16 program.  It is based on
 the Gaussian(R) 09 system (copyright 2009, Gaussian, Inc.),
 the Gaussian(R) 03 system (copyright 2003, Gaussian, Inc.),
 the Gaussian(R) 98 system (copyright 1998, Gaussian, Inc.),
 the Gaussian(R) 94 system (copyright 1995, Gaussian, Inc.),
 the Gaussian 92(TM) system (copyright 1992, Gaussian, Inc.),
 the Gaussian 90(TM) system (copyright 1990, Gaussian, Inc.),
 the Gaussian 88(TM) system (copyright 1988, Gaussian, Inc.),
 the Gaussian 86(TM) system (copyright 1986, Carnegie Mellon
 University), and the Gaussian 82(TM) system (copyright 1983,
 Carnegie Mellon University). Gaussian is a federally registered
 trademark of Gaussian, Inc.
  
 This software contains proprietary and confidential information,
 including trade secrets, belonging to Gaussian, Inc.
  
 This software is provided under written license and may be
 used, copied, transmitted, or stored only in accord with that
 written license.
  
 The following legend is applicable only to US Government
 contracts under FAR:
  
                    RESTRICTED RIGHTS LEGEND
  
 Use, reproduction and disclosure by the US Government is
 subject to restrictions as set forth in subparagraphs (a)
 and (c) of the Commercial Computer Software - Restricted
 Rights clause in FAR 52.227-19.
  
 Gaussian, Inc.
 340 Quinnipiac St., Bldg. 40, Wallingford CT 06492
  
  
 ---------------------------------------------------------------
 Warning -- This program may not be used in any manner that
 competes with the business of Gaussian, Inc. or will provide
 assistance to any competitor of Gaussian, Inc.  The licensee
 of this program is prohibited from giving any competitor of
 Gaussian, Inc. access to this program.  By using this program,
 the user acknowledges that Gaussian, Inc. is engaged in the
 business of creating and licensing software in the field of
 computational chemistry and represents and warrants to the
 licensee that it is not a competitor of Gaussian, Inc. and that
 it will not use this program in any manner prohibited above.
 ---------------------------------------------------------------
  

 Cite this work as:
 Gaussian 16, Revision A.03,
 M. J. Frisch, G. W. Trucks, H. B. Schlegel, G. E. Scuseria, 
 M. A. Robb, J. R. Cheeseman, G. Scalmani, V. Barone, 
 G. A. Petersson, H. Nakatsuji, X. Li, M. Caricato, A. V. Marenich, 
 J. Bloino, B. G. Janesko, R. Gomperts, B. Mennucci, H. P. Hratchian, 
 J. V. Ortiz, A. F. Izmaylov, J. L. Sonnenberg, D. Williams-Young, 
 F. Ding, F. Lipparini, F. Egidi, J. Goings, B. Peng, A. Petrone, 
 T. Henderson, D. Ranasinghe, V. G. Zakrzewski, J. Gao, N. Rega, 
 G. Zheng, W. Liang, M. Hada, M. Ehara, K. Toyota, R. Fukuda, 
 J. Hasegawa, M. Ishida, T. Nakajima, Y. Honda, O. Kitao, H. Nakai, 
 T. Vreven, K. Throssell, J. A. Montgomery, Jr., J. E. Peralta, 
 F. Ogliaro, M. J. Bearpark, J. J. Heyd, E. N. Brothers, K. N. Kudin, 
 V. N. Staroverov, T. A. Keith, R. Kobayashi, J. Normand, 
 K. Raghavachari, A. P. Rendell, J. C. Burant, S. S. Iyengar, 
 J. Tomasi, M. Cossi, J. M. Millam, M. Klene, C. Adamo, R. Cammi, 
 J. W. Ochterski, R. L. Martin, K. Morokuma, O. Farkas, 
 J. B. Foresman, and D. J. Fox, Gaussian, Inc., Wallingford CT, 2016.
 
 ******************************************
 Gaussian 16:  ES64L-G16RevA.03 25-Dec-2016
                27-Aug-2022 
 ******************************************
 %NProcShared=4
 Will use up to    4 processors via shared memory.
 %Mem=4GB
 %Chk=H2O_H2O_1578.chk
 ------------------
 #p CCSD(T)/cc-pVTZ
 ------------------
 1/38=1,172=1/1;
 2/12=2,17=6,18=5,40=1/2;
 3/5=16,6=1,11=9,25=1,30=1/1,2,3;
 4//1;
 5/5=2,38=5/2;
 8/6=4,9=120000,10=1/1,4;
 9/5=7,14=2/13;
 6/7=2,8=2,9=2,10=2/1;
 99/5=1,9=1/99;
 Leave Link    1 at Sat Aug 27 05:34:18 2022, MaxMem=   536870912 cpu:               0.2 elap:               0.1
 (Enter /usr/site/hpc/x86_64/glibc-2.17/broadwell/gaussian/g16_a.03/pgi-16.5/g16/l101.exe)
 ------------
 H2O_H2O_1578
 ------------
 Symbolic Z-matrix:
 Charge =  0 Multiplicity = 1
 O                     0.       -0.00983   0. 
 H                    -0.79957  -0.58097   0. 
 H                     0.79957  -0.58097   0. 
 O                    -0.00192   3.27246   0. 
 H                     0.67087   3.98861   0. 
 H                    -0.89755   3.67663   0. 
 
 ITRead=  0  0  0  0  0  0
 MicOpt= -1 -1 -1 -1 -1 -1
 NAtoms=      6 NQM=        6 NQMF=       0 NMMI=      0 NMMIF=      0
                NMic=       0 NMicF=      0.
                    Isotopes and Nuclear Properties:
 (Nuclear quadrupole moments (NQMom) in fm**2, nuclear magnetic moments (NMagM)
  in nuclear magnetons)

  Atom         1           2           3           4           5           6
 IAtWgt=          16           1           1          16           1           1
 AtmWgt=  15.9949146   1.0078250   1.0078250  15.9949146   1.0078250   1.0078250
 NucSpn=           0           1           1           0           1           1
 AtZEff=  -0.0000000  -0.0000000  -0.0000000  -0.0000000  -0.0000000  -0.0000000
 NQMom=    0.0000000   0.0000000   0.0000000   0.0000000   0.0000000   0.0000000
 NMagM=    0.0000000   2.7928460   2.7928460   0.0000000   2.7928460   2.7928460
 AtZNuc=   8.0000000   1.0000000   1.0000000   8.0000000   1.0000000   1.0000000
 Leave Link  101 at Sat Aug 27 05:34:18 2022, MaxMem=   536870912 cpu:               0.3 elap:               0.1
 (Enter /usr/site/hpc/x86_64/glibc-2.17/broadwell/gaussian/g16_a.03/pgi-16.5/g16/l202.exe)
                          Input orientation:                          
 ---------------------------------------------------------------------
 Center     Atomic      Atomic             Coordinates (Angstroms)
 Number     Number       Type             X           Y           Z
 ---------------------------------------------------------------------
      1          8           0        0.000000   -0.009833    0.000000
      2          1           0       -0.799571   -0.580965    0.000000
      3          1           0        0.799571   -0.580965    0.000000
      4          8           0       -0.001918    3.272461    0.000000
      5          1           0        0.670867    3.988607    0.000000
      6          1           0       -0.897548    3.676630    0.000000
 ---------------------------------------------------------------------
                    Distance matrix (angstroms):
                    1          2          3          4          5
     1  O    0.000000
     2  H    0.982601   0.000000
     3  H    0.982601   1.599142   0.000000
     4  O    3.282295   3.935117   3.935896   0.000000
     5  H    4.054329   4.800331   4.571384   0.982601   0.000000
     6  H    3.794154   4.258722   4.583375   0.982601   1.599142
                    6
     6  H    0.000000
 Stoichiometry    H4O2
 Framework group  CS[SG(H4O2)]
 Deg. of freedom     9
 Full point group                 CS      NOp   2
 Largest Abelian subgroup         CS      NOp   2
 Largest concise Abelian subgroup C1      NOp   1
                         Standard orientation:                         
 ---------------------------------------------------------------------
 Center     Atomic      Atomic             Coordinates (Angstroms)
 Number     Number       Type             X           Y           Z
 ---------------------------------------------------------------------
      1          8           0        0.011143   -1.640056    0.000000
      2          1           0       -0.788762   -2.210721    0.000000
      3          1           0        0.810380   -2.211655    0.000000
      4          8           0        0.011143    1.642238    0.000000
      5          1           0        0.684346    2.357991    0.000000
      6          1           0       -0.884251    2.046931    0.000000
 ---------------------------------------------------------------------
 Rotational constants (GHZ):         198.0793667           4.7748234           4.6624326
 Leave Link  202 at Sat Aug 27 05:34:18 2022, MaxMem=   536870912 cpu:               0.0 elap:               0.0
 (Enter /usr/site/hpc/x86_64/glibc-2.17/broadwell/gaussian/g16_a.03/pgi-16.5/g16/l301.exe)
 Standard basis: CC-pVTZ (5D, 7F)
 Ernie: Thresh=  0.10000D-02 Tol=  0.10000D-05 Strict=F.
 Ernie:  6 primitive shells out of 84 were deleted.
 There are    92 symmetry adapted cartesian basis functions of A'  symmetry.
 There are    38 symmetry adapted cartesian basis functions of A"  symmetry.
 There are    80 symmetry adapted basis functions of A'  symmetry.
 There are    36 symmetry adapted basis functions of A"  symmetry.
   116 basis functions,   172 primitive gaussians,   130 cartesian basis functions
    10 alpha electrons       10 beta electrons
       nuclear repulsion energy        32.9905803086 Hartrees.
 IExCor=    0 DFT=F Ex=HF Corr=None ExCW=0 ScaHFX=  1.000000
 ScaDFX=  1.000000  1.000000  1.000000  1.000000 ScalE2=  1.000000  1.000000
 IRadAn=      5 IRanWt=     -1 IRanGd=            0 ICorTp=0 IEmpDi=  4
 NAtoms=    6 NActive=    6 NUniq=    6 SFac= 1.00D+00 NAtFMM=   60 NAOKFM=F Big=F
 Integral buffers will be    131072 words long.
 Raffenetti 1 integral format.
 Two-electron integral symmetry is turned on.
 Leave Link  301 at Sat Aug 27 05:34:18 2022, MaxMem=   536870912 cpu:               0.2 elap:               0.1
 (Enter /usr/site/hpc/x86_64/glibc-2.17/broadwell/gaussian/g16_a.03/pgi-16.5/g16/l302.exe)
 NPDir=0 NMtPBC=     1 NCelOv=     1 NCel=       1 NClECP=     1 NCelD=      1
         NCelK=      1 NCelE2=     1 NClLst=     1 CellRange=     0.0.
 One-electron integrals computed using PRISM.
 One-electron integral symmetry used in STVInt
 NBasis=   116 RedAO= T EigKep=  2.28D-03  NBF=    80    36
 NBsUse=   116 1.00D-06 EigRej= -1.00D+00 NBFU=    80    36
 Leave Link  302 at Sat Aug 27 05:34:19 2022, MaxMem=   536870912 cpu:               0.4 elap:               0.1
 (Enter /usr/site/hpc/x86_64/glibc-2.17/broadwell/gaussian/g16_a.03/pgi-16.5/g16/l303.exe)
 DipDrv:  MaxL=1.
 Leave Link  303 at Sat Aug 27 05:34:19 2022, MaxMem=   536870912 cpu:               0.1 elap:               0.0
 (Enter /usr/site/hpc/x86_64/glibc-2.17/broadwell/gaussian/g16_a.03/pgi-16.5/g16/l401.exe)
 ExpMin= 1.03D-01 ExpMax= 1.53D+04 ExpMxC= 5.22D+02 IAcc=3 IRadAn=         5 AccDes= 0.00D+00
 Harris functional with IExCor=  205 and IRadAn=       5 diagonalized for initial guess.
 HarFok:  IExCor=  205 AccDes= 0.00D+00 IRadAn=         5 IDoV= 1 UseB2=F ITyADJ=14
 ICtDFT=  3500011 ScaDFX=  1.000000  1.000000  1.000000  1.000000
 FoFCou: FMM=F IPFlag=           0 FMFlag=      100000 FMFlg1=           0
         NFxFlg=           0 DoJE=T BraDBF=F KetDBF=T FulRan=T
         wScrn=  0.000000 ICntrl=       500 IOpCl=  0 I1Cent=   200000004 NGrid=           0
         NMat0=    1 NMatS0=      1 NMatT0=    0 NMatD0=    1 NMtDS0=    0 NMtDT0=    0
 Petite list used in FoFCou.
 Harris En= -152.299614414651    
 JPrj=0 DoOrth=F DoCkMO=F.
 Initial guess orbital symmetries:
       Occupied  (A') (A') (A') (A') (A') (A') (A') (A') (A") (A")
       Virtual   (A') (A') (A') (A') (A') (A') (A') (A') (A') (A")
                 (A') (A") (A') (A') (A') (A") (A") (A") (A") (A')
                 (A') (A') (A') (A') (A') (A') (A') (A') (A") (A")
                 (A") (A") (A') (A') (A') (A') (A') (A') (A') (A')
                 (A') (A') (A") (A") (A') (A') (A") (A") (A") (A")
                 (A') (A') (A') (A') (A') (A") (A") (A') (A') (A')
                 (A') (A") (A') (A") (A") (A") (A') (A') (A') (A')
                 (A") (A") (A') (A') (A') (A') (A') (A') (A') (A')
                 (A") (A") (A') (A') (A") (A") (A") (A") (A') (A')
                 (A") (A") (A') (A') (A') (A') (A") (A") (A') (A')
                 (A') (A') (A') (A') (A') (A')
 The electronic state of the initial guess is 1-A'.
 Leave Link  401 at Sat Aug 27 05:34:19 2022, MaxMem=   536870912 cpu:               0.8 elap:               0.2
 (Enter /usr/site/hpc/x86_64/glibc-2.17/broadwell/gaussian/g16_a.03/pgi-16.5/g16/l502.exe)
 Keep R1 ints in memory in symmetry-blocked form, NReq=34823457.
 FoFCou: FMM=F IPFlag=           0 FMFlag=           0 FMFlg1=           0
         NFxFlg=           0 DoJE=F BraDBF=F KetDBF=F FulRan=T
         wScrn=  0.000000 ICntrl=       600 IOpCl=  0 I1Cent=           0 NGrid=           0
         NMat0=    1 NMatS0=   6786 NMatT0=    0 NMatD0=    1 NMtDS0=    0 NMtDT0=    0
 Petite list used in FoFCou.
 Closed shell SCF:
 Using DIIS extrapolation, IDIIS=  1040.
 NGot=   536870912 LenX=   525040673 LenY=   525023332
 Requested convergence on RMS density matrix=1.00D-08 within 128 cycles.
 Requested convergence on MAX density matrix=1.00D-06.
 Requested convergence on             energy=1.00D-06.
 No special actions if energy rises.

 Cycle   1  Pass 1  IDiag  1:
 E= -151.919172418928    
 DIIS: error= 6.63D-02 at cycle   1 NSaved=   1.
 NSaved= 1 IEnMin= 1 EnMin= -151.919172418928     IErMin= 1 ErrMin= 6.63D-02
 ErrMax= 6.63D-02  0.00D+00 EMaxC= 1.00D-01 BMatC= 4.03D-01 BMatP= 4.03D-01
 IDIUse=3 WtCom= 3.37D-01 WtEn= 6.63D-01
 Coeff-Com:  0.100D+01
 Coeff-En:   0.100D+01
 Coeff:      0.100D+01
 Gap=     0.502 Goal=   None    Shift=    0.000
 GapD=    0.502 DampG=2.000 DampE=0.500 DampFc=1.0000 IDamp=-1.
 RMSDP=2.66D-03 MaxDP=6.50D-02              OVMax= 1.30D-01

 Cycle   2  Pass 1  IDiag  1:
 E= -152.031990129526     Delta-E=       -0.112817710598 Rises=F Damp=F
 DIIS: error= 4.20D-02 at cycle   2 NSaved=   2.
 NSaved= 2 IEnMin= 2 EnMin= -152.031990129526     IErMin= 2 ErrMin= 4.20D-02
 ErrMax= 4.20D-02  0.00D+00 EMaxC= 1.00D-01 BMatC= 1.16D-01 BMatP= 4.03D-01
 IDIUse=3 WtCom= 5.80D-01 WtEn= 4.20D-01
 Coeff-Com:  0.323D+00 0.677D+00
 Coeff-En:   0.173D+00 0.827D+00
 Coeff:      0.260D+00 0.740D+00
 Gap=     0.651 Goal=   None    Shift=    0.000
 RMSDP=1.42D-03 MaxDP=3.93D-02 DE=-1.13D-01 OVMax= 5.86D-02

 Cycle   3  Pass 1  IDiag  1:
 E= -152.099264420705     Delta-E=       -0.067274291180 Rises=F Damp=F
 DIIS: error= 9.11D-03 at cycle   3 NSaved=   3.
 NSaved= 3 IEnMin= 3 EnMin= -152.099264420705     IErMin= 3 ErrMin= 9.11D-03
 ErrMax= 9.11D-03  0.00D+00 EMaxC= 1.00D-01 BMatC= 6.14D-03 BMatP= 1.16D-01
 IDIUse=3 WtCom= 9.09D-01 WtEn= 9.11D-02
 Coeff-Com: -0.311D-01 0.155D+00 0.876D+00
 Coeff-En:   0.000D+00 0.000D+00 0.100D+01
 Coeff:     -0.283D-01 0.141D+00 0.888D+00
 Gap=     0.623 Goal=   None    Shift=    0.000
 RMSDP=2.64D-04 MaxDP=5.69D-03 DE=-6.73D-02 OVMax= 1.38D-02

 Cycle   4  Pass 1  IDiag  1:
 E= -152.103124188302     Delta-E=       -0.003859767597 Rises=F Damp=F
 DIIS: error= 8.78D-04 at cycle   4 NSaved=   4.
 NSaved= 4 IEnMin= 4 EnMin= -152.103124188302     IErMin= 4 ErrMin= 8.78D-04
 ErrMax= 8.78D-04  0.00D+00 EMaxC= 1.00D-01 BMatC= 4.09D-05 BMatP= 6.14D-03
 IDIUse=3 WtCom= 9.91D-01 WtEn= 8.78D-03
 Coeff-Com:  0.671D-02-0.609D-01-0.236D+00 0.129D+01
 Coeff-En:   0.000D+00 0.000D+00 0.000D+00 0.100D+01
 Coeff:      0.665D-02-0.603D-01-0.234D+00 0.129D+01
 Gap=     0.626 Goal=   None    Shift=    0.000
 RMSDP=5.47D-05 MaxDP=1.05D-03 DE=-3.86D-03 OVMax= 2.59D-03

 Cycle   5  Pass 1  IDiag  1:
 E= -152.103179370512     Delta-E=       -0.000055182210 Rises=F Damp=F
 DIIS: error= 2.00D-04 at cycle   5 NSaved=   5.
 NSaved= 5 IEnMin= 5 EnMin= -152.103179370512     IErMin= 5 ErrMin= 2.00D-04
 ErrMax= 2.00D-04  0.00D+00 EMaxC= 1.00D-01 BMatC= 1.47D-06 BMatP= 4.09D-05
 IDIUse=3 WtCom= 9.98D-01 WtEn= 2.00D-03
 Coeff-Com:  0.746D-03-0.108D-02-0.906D-02-0.185D+00 0.119D+01
 Coeff-En:   0.000D+00 0.000D+00 0.000D+00 0.000D+00 0.100D+01
 Coeff:      0.745D-03-0.107D-02-0.904D-02-0.184D+00 0.119D+01
 Gap=     0.626 Goal=   None    Shift=    0.000
 RMSDP=1.41D-05 MaxDP=2.81D-04 DE=-5.52D-05 OVMax= 7.05D-04

 Cycle   6  Pass 1  IDiag  1:
 E= -152.103182396226     Delta-E=       -0.000003025714 Rises=F Damp=F
 DIIS: error= 3.44D-05 at cycle   6 NSaved=   6.
 NSaved= 6 IEnMin= 6 EnMin= -152.103182396226     IErMin= 6 ErrMin= 3.44D-05
 ErrMax= 3.44D-05  0.00D+00 EMaxC= 1.00D-01 BMatC= 4.44D-08 BMatP= 1.47D-06
 IDIUse=1 WtCom= 1.00D+00 WtEn= 0.00D+00
 Coeff-Com: -0.319D-03 0.194D-02 0.836D-02-0.803D-02-0.260D+00 0.126D+01
 Coeff:     -0.319D-03 0.194D-02 0.836D-02-0.803D-02-0.260D+00 0.126D+01
 Gap=     0.626 Goal=   None    Shift=    0.000
 RMSDP=3.41D-06 MaxDP=7.40D-05 DE=-3.03D-06 OVMax= 1.75D-04

 Cycle   7  Pass 1  IDiag  1:
 E= -152.103182518380     Delta-E=       -0.000000122154 Rises=F Damp=F
 DIIS: error= 6.22D-06 at cycle   7 NSaved=   7.
 NSaved= 7 IEnMin= 7 EnMin= -152.103182518380     IErMin= 7 ErrMin= 6.22D-06
 ErrMax= 6.22D-06  0.00D+00 EMaxC= 1.00D-01 BMatC= 2.36D-09 BMatP= 4.44D-08
 IDIUse=1 WtCom= 1.00D+00 WtEn= 0.00D+00
 Coeff-Com:  0.333D-04-0.440D-03-0.178D-02 0.158D-01-0.159D-01-0.238D+00
 Coeff-Com:  0.124D+01
 Coeff:      0.333D-04-0.440D-03-0.178D-02 0.158D-01-0.159D-01-0.238D+00
 Coeff:      0.124D+01
 Gap=     0.626 Goal=   None    Shift=    0.000
 RMSDP=5.41D-07 MaxDP=1.15D-05 DE=-1.22D-07 OVMax= 3.49D-05

 Cycle   8  Pass 1  IDiag  1:
 E= -152.103182523354     Delta-E=       -0.000000004974 Rises=F Damp=F
 DIIS: error= 1.76D-06 at cycle   8 NSaved=   8.
 NSaved= 8 IEnMin= 8 EnMin= -152.103182523354     IErMin= 8 ErrMin= 1.76D-06
 ErrMax= 1.76D-06  0.00D+00 EMaxC= 1.00D-01 BMatC= 1.14D-10 BMatP= 2.36D-09
 IDIUse=1 WtCom= 1.00D+00 WtEn= 0.00D+00
 Coeff-Com:  0.499D-05 0.521D-04 0.229D-03-0.548D-02 0.197D-01 0.204D-01
 Coeff-Com: -0.422D+00 0.139D+01
 Coeff:      0.499D-05 0.521D-04 0.229D-03-0.548D-02 0.197D-01 0.204D-01
 Coeff:     -0.422D+00 0.139D+01
 Gap=     0.626 Goal=   None    Shift=    0.000
 RMSDP=1.20D-07 MaxDP=2.53D-06 DE=-4.97D-09 OVMax= 6.81D-06

 Cycle   9  Pass 1  IDiag  1:
 E= -152.103182523616     Delta-E=       -0.000000000262 Rises=F Damp=F
 DIIS: error= 2.28D-07 at cycle   9 NSaved=   9.
 NSaved= 9 IEnMin= 9 EnMin= -152.103182523616     IErMin= 9 ErrMin= 2.28D-07
 ErrMax= 2.28D-07  0.00D+00 EMaxC= 1.00D-01 BMatC= 2.19D-12 BMatP= 1.14D-10
 IDIUse=1 WtCom= 1.00D+00 WtEn= 0.00D+00
 Coeff-Com: -0.171D-05-0.474D-05-0.297D-04 0.104D-02-0.371D-02-0.497D-02
 Coeff-Com:  0.988D-01-0.404D+00 0.131D+01
 Coeff:     -0.171D-05-0.474D-05-0.297D-04 0.104D-02-0.371D-02-0.497D-02
 Coeff:      0.988D-01-0.404D+00 0.131D+01
 Gap=     0.626 Goal=   None    Shift=    0.000
 RMSDP=1.65D-08 MaxDP=3.48D-07 DE=-2.62D-10 OVMax= 9.63D-07

 Cycle  10  Pass 1  IDiag  1:
 E= -152.103182523621     Delta-E=       -0.000000000006 Rises=F Damp=F
 DIIS: error= 4.15D-08 at cycle  10 NSaved=  10.
 NSaved=10 IEnMin=10 EnMin= -152.103182523621     IErMin=10 ErrMin= 4.15D-08
 ErrMax= 4.15D-08  0.00D+00 EMaxC= 1.00D-01 BMatC= 9.47D-14 BMatP= 2.19D-12
 IDIUse=1 WtCom= 1.00D+00 WtEn= 0.00D+00
 Coeff-Com:  0.697D-07-0.176D-05-0.676D-05 0.768D-04-0.240D-03-0.555D-03
 Coeff-Com:  0.573D-02-0.110D-01-0.135D+00 0.114D+01
 Coeff:      0.697D-07-0.176D-05-0.676D-05 0.768D-04-0.240D-03-0.555D-03
 Coeff:      0.573D-02-0.110D-01-0.135D+00 0.114D+01
 Gap=     0.626 Goal=   None    Shift=    0.000
 RMSDP=5.48D-09 MaxDP=1.75D-07 DE=-5.60D-12 OVMax= 2.41D-07

 SCF Done:  E(RHF) =  -152.103182524     A.U. after   10 cycles
            NFock= 10  Conv=0.55D-08     -V/T= 2.0019
 KE= 1.518103642103D+02 PE=-4.276990510901D+02 EE= 9.079492404758D+01
 Leave Link  502 at Sat Aug 27 05:34:20 2022, MaxMem=   536870912 cpu:               3.7 elap:               1.0
 (Enter /usr/site/hpc/x86_64/glibc-2.17/broadwell/gaussian/g16_a.03/pgi-16.5/g16/l801.exe)
 Windowed orbitals will be sorted by symmetry type.
 ExpMin= 1.03D-01 ExpMax= 1.53D+04 ExpMxC= 5.22D+02 IAcc=3 IRadAn=         5 AccDes= 0.00D+00
 HarFok:  IExCor=  205 AccDes= 0.00D+00 IRadAn=         5 IDoV=-2 UseB2=F ITyADJ=14
 ICtDFT= 12500011 ScaDFX=  1.000000  1.000000  1.000000  1.000000
 Largest valence mixing into a core orbital is  1.12D-04
 Largest core mixing into a valence orbital is  1.78D-05
 Range of M.O.s used for correlation:     3   116
 NBasis=   116 NAE=    10 NBE=    10 NFC=     2 NFV=     0
 NROrb=    114 NOA=     8 NOB=     8 NVA=   106 NVB=   106
 Leave Link  801 at Sat Aug 27 05:34:20 2022, MaxMem=   536870912 cpu:               0.3 elap:               0.1
 (Enter /usr/site/hpc/x86_64/glibc-2.17/broadwell/gaussian/g16_a.03/pgi-16.5/g16/l804.exe)
 Closed-shell transformation, MDV=   536870912 ITran=4 ISComp=2.
 Unit  1 TFree=        834515 TCopy=        406125.
 Semi-Direct transformation.
 ModeAB=           4 MOrb=             8 LenV=     536367727
 LASXX=      2873146 LTotXX=     2873146 LenRXX=     5831278
 LTotAB=     2958132 MaxLAS=     7003248 LenRXY=           0
 NonZer=     8704424 LenScr=    13107200 LnRSAI=     7003248
 LnScr1=    11010048 LExtra=           0 Total=     36951774
 MaxDsk=          -1 SrtSym=           T ITran=            4
 DoSDTr:  NPSUse=  4
 JobTyp=0 Pass  1:  I=   1 to   8.
 (rs|ai) integrals will be sorted in core.
 Complete sort for first half transformation.
 First half transformation complete.
 Complete sort for second half transformation.
 Second half transformation complete.
 Spin components of T(2) and E(2):
     alpha-alpha T2 =       0.1566128596D-01 E2=     -0.6397049141D-01
     alpha-beta  T2 =       0.9235881667D-01 E2=     -0.3989822332D+00
     beta-beta   T2 =       0.1566128596D-01 E2=     -0.6397049141D-01
 ANorm=    0.1060038390D+01
 E2 =    -0.5269232160D+00 EUMP2 =    -0.15263010573965D+03
 Leave Link  804 at Sat Aug 27 05:34:21 2022, MaxMem=   536870912 cpu:               3.6 elap:               0.9
 (Enter /usr/site/hpc/x86_64/glibc-2.17/broadwell/gaussian/g16_a.03/pgi-16.5/g16/l913.exe)
 CIDS:  MDV=   536870912.
 Frozen-core window:  NFC=   2 NFV=   0.
 IFCWin=0 IBDFC=1 NFBD=     0     0 NFCmp=     0     0 NFFFC=     0     0
 Using DD3R+UMP44R for 1st iteration.
 Using DD4RQ for 2nd and later iterations.
 Keep R2 and R3 ints in memory in symmetry-blocked form, NReq=35357534.
 FoFCou: FMM=F IPFlag=           0 FMFlag=           0 FMFlg1=           0
         NFxFlg=           0 DoJE=F BraDBF=F KetDBF=F FulRan=T
         wScrn=  0.000000 ICntrl=       600 IOpCl=  0 I1Cent=           0 NGrid=           0
         NMat0=    1 NMatS0=   6786 NMatT0=    0 NMatD0=    1 NMtDS0=    0 NMtDT0=    0
 Petite list used in FoFCou.
 CIDS: In Core Option IDoMem=           1.
 CCSD(T)
 =======
 Iterations=  50 Convergence= 0.100D-06
 Produce multiple copies of IABC intergrals
 Iteration Nr.   1
 **********************
 DD1Dir will call FoFMem   1 times, MxPair=        72
 NAB=    36 NAA=     0 NBB=     0.
 MP4(R+Q)=  0.76379182D-02
 Maximum subspace dimension=  5
 A-vector RMS=  1.7858606D-03 Max=  6.5494486D-03 conv= 1.00D-05.
 RLE energy=       -0.5266490708
 E3=       -0.74355903D-02        EUMP3=      -0.15263754133D+03
 E4(DQ)=   -0.15390037D-02        UMP4(DQ)=   -0.15263908033D+03
 E4(SDQ)=  -0.46627827D-02        UMP4(SDQ)=  -0.15264220411D+03
 VARIATIONAL ENERGIES WITH THE FIRST-ORDER WAVEFUNCTION:
 DE(Corr)= -0.52664894     E(Corr)=     -152.62983146    
 NORM(A)=   0.10603621D+01
 Iteration Nr.   2
 **********************
 DD1Dir will call FoFMem   1 times, MxPair=        72
 NAB=    36 NAA=     0 NBB=     0.
 A-vector RMS=  2.1189461D-04 Max=  1.1812052D-03 conv= 1.00D-05.
 RLE energy=       -0.5378148184
 DE(Corr)= -0.53666483     E(CORR)=     -152.63984736     Delta=-1.00D-02
 NORM(A)=   0.10641677D+01
 Iteration Nr.   3
 **********************
 DD1Dir will call FoFMem   1 times, MxPair=        72
 NAB=    36 NAA=     0 NBB=     0.
 A-vector RMS=  1.5179642D-04 Max=  1.2985072D-03 conv= 1.00D-05.
 RLE energy=       -0.5383180386
 DE(Corr)= -0.53772089     E(CORR)=     -152.64090341     Delta=-1.06D-03
 NORM(A)=   0.10648174D+01
 Iteration Nr.   4
 **********************
 DD1Dir will call FoFMem   1 times, MxPair=        72
 NAB=    36 NAA=     0 NBB=     0.
 A-vector RMS=  2.9781475D-05 Max=  1.7311235D-04 conv= 1.00D-05.
 RLE energy=       -0.5384003359
 DE(Corr)= -0.53836485     E(CORR)=     -152.64154737     Delta=-6.44D-04
 NORM(A)=   0.10649337D+01
 Iteration Nr.   5
 **********************
 DD1Dir will call FoFMem   1 times, MxPair=        72
 NAB=    36 NAA=     0 NBB=     0.
 A-vector RMS=  2.1016384D-05 Max=  2.4355535D-04 conv= 1.00D-05.
 RLE energy=       -0.5384111694
 DE(Corr)= -0.53840362     E(CORR)=     -152.64158614     Delta=-3.88D-05
 NORM(A)=   0.10649457D+01
 Iteration Nr.   6
 **********************
 DD1Dir will call FoFMem   1 times, MxPair=        72
 NAB=    36 NAA=     0 NBB=     0.
 A-vector RMS=  6.4228862D-06 Max=  6.8187381D-05 conv= 1.00D-05.
 RLE energy=       -0.5384015981
 DE(Corr)= -0.53840713     E(CORR)=     -152.64158965     Delta=-3.51D-06
 NORM(A)=   0.10649459D+01
 Iteration Nr.   7
 **********************
 DD1Dir will call FoFMem   1 times, MxPair=        72
 NAB=    36 NAA=     0 NBB=     0.
 A-vector RMS=  2.9807419D-06 Max=  3.5450031D-05 conv= 1.00D-05.
 RLE energy=       -0.5384073092
 DE(Corr)= -0.53840730     E(CORR)=     -152.64158982     Delta=-1.70D-07
 NORM(A)=   0.10649482D+01
 Iteration Nr.   8
 **********************
 DD1Dir will call FoFMem   1 times, MxPair=        72
 NAB=    36 NAA=     0 NBB=     0.
 A-vector RMS=  9.8714589D-07 Max=  1.2344859D-05 conv= 1.00D-05.
 RLE energy=       -0.5384065663
 DE(Corr)= -0.53840677     E(CORR)=     -152.64158930     Delta= 5.26D-07
 NORM(A)=   0.10649484D+01
 Iteration Nr.   9
 **********************
 DD1Dir will call FoFMem   1 times, MxPair=        72
 NAB=    36 NAA=     0 NBB=     0.
 A-vector RMS=  1.7672717D-07 Max=  1.8474244D-06 conv= 1.00D-05.
 RLE energy=       -0.5384068463
 DE(Corr)= -0.53840693     E(CORR)=     -152.64158945     Delta=-1.53D-07
 NORM(A)=   0.10649488D+01
 Iteration Nr.  10
 **********************
 DD1Dir will call FoFMem   1 times, MxPair=        72
 NAB=    36 NAA=     0 NBB=     0.
 A-vector RMS=  8.1698456D-08 Max=  9.5629707D-07 conv= 1.00D-05.
 RLE energy=       -0.5384070562
 DE(Corr)= -0.53840704     E(CORR)=     -152.64158956     Delta=-1.10D-07
 NORM(A)=   0.10649489D+01
 Iteration Nr.  11
 **********************
 DD1Dir will call FoFMem   1 times, MxPair=        72
 NAB=    36 NAA=     0 NBB=     0.
 A-vector RMS=  2.8812740D-08 Max=  3.4486667D-07 conv= 1.00D-05.
 RLE energy=       -0.5384071084
 DE(Corr)= -0.53840709     E(CORR)=     -152.64158961     Delta=-5.32D-08
 NORM(A)=   0.10649490D+01
 CI/CC converged in   11 iterations to DelEn=-5.32D-08 Conv= 1.00D-07 ErrA1= 2.88D-08 Conv= 1.00D-05
 Wavefunction amplitudes converged. E(Corr)=     -152.64158961    
 Largest amplitude= 2.42D-02
 IPart=  4 IA=    7   11.05% done.
 IPart=  2 IA=   13   21.46% done.
 IPart=  1 IA=   19   31.21% done.
 IPart=  3 IA=   25   40.32% done.
 IPart=  3 IA=   32   50.13% done.
 IPart=  3 IA=   40   60.27% done.
 IPart=  3 IA=   49   70.30% done.
 IPart=  2 IA=   60   80.58% done.
 IPart=  1 IA=   74   90.51% done.
 Time for triples=       47.80 seconds.
 T4(CCSD)= -0.16204490D-01
 T5(CCSD)=  0.41849461D-03
 CCSD(T)= -0.15265737561D+03
 Discarding MO integrals.
 Leave Link  913 at Sat Aug 27 05:34:39 2022, MaxMem=   536870912 cpu:              70.1 elap:              17.8
 (Enter /usr/site/hpc/x86_64/glibc-2.17/broadwell/gaussian/g16_a.03/pgi-16.5/g16/l601.exe)
 Copying SCF densities to generalized density rwf, IOpCl= 0 IROHF=0.

 **********************************************************************

            Population analysis using the SCF density.

 **********************************************************************

 Orbital symmetries:
       Occupied  (A') (A') (A') (A') (A') (A') (A') (A') (A") (A")
       Virtual   (A') (A') (A') (A') (A') (A') (A') (A') (A') (A')
                 (A") (A') (A') (A") (A') (A") (A") (A") (A") (A')
                 (A') (A') (A') (A') (A') (A') (A') (A') (A") (A")
                 (A') (A") (A") (A') (A') (A') (A') (A') (A') (A')
                 (A') (A') (A") (A") (A') (A') (A") (A") (A') (A')
                 (A") (A") (A') (A') (A') (A") (A") (A') (A") (A")
                 (A') (A') (A') (A') (A") (A") (A') (A') (A') (A')
                 (A") (A") (A') (A') (A') (A') (A') (A') (A') (A')
                 (A") (A") (A') (A') (A") (A") (A") (A") (A') (A')
                 (A") (A") (A') (A') (A') (A') (A") (A") (A') (A')
                 (A') (A') (A') (A') (A') (A')
 The electronic state is 1-A'.
 Alpha  occ. eigenvalues --  -20.54146 -20.54099  -1.31465  -1.31347  -0.68886
 Alpha  occ. eigenvalues --   -0.68784  -0.55400  -0.53828  -0.48625  -0.48362
 Alpha virt. eigenvalues --    0.14286   0.16365   0.20575   0.21624   0.52633
 Alpha virt. eigenvalues --    0.58133   0.58302   0.58597   0.62643   0.76196
 Alpha virt. eigenvalues --    0.78515   0.78622   0.79787   0.81865   0.85289
 Alpha virt. eigenvalues --    0.85934   0.85981   0.96461   1.01435   1.06142
 Alpha virt. eigenvalues --    1.14509   1.17234   1.18227   1.23275   1.52347
 Alpha virt. eigenvalues --    1.52799   1.53370   1.53679   2.02128   2.02280
 Alpha virt. eigenvalues --    2.04620   2.08144   2.08198   2.16361   2.17016
 Alpha virt. eigenvalues --    2.22074   2.29910   2.33697   2.62864   2.62902
 Alpha virt. eigenvalues --    2.93957   2.94787   3.40619   3.40695   3.51156
 Alpha virt. eigenvalues --    3.51355   3.54332   3.54380   3.60621   3.60975
 Alpha virt. eigenvalues --    3.80014   3.80064   3.85638   3.86461   3.88665
 Alpha virt. eigenvalues --    3.94799   3.94847   3.96041   4.02254   4.06639
 Alpha virt. eigenvalues --    4.08930   4.10339   4.15941   4.17529   4.31407
 Alpha virt. eigenvalues --    4.31457   4.40520   4.44669   4.46579   4.47406
 Alpha virt. eigenvalues --    4.67567   4.68238   4.79970   4.86355   5.05615
 Alpha virt. eigenvalues --    5.06136   5.24579   5.27090   5.53908   5.58826
 Alpha virt. eigenvalues --    5.99369   5.99416   6.41763   6.41819   6.87573
 Alpha virt. eigenvalues --    6.87626   6.91014   6.91063   6.95800   6.96136
 Alpha virt. eigenvalues --    7.00494   7.00750   7.08069   7.11506   7.15612
 Alpha virt. eigenvalues --    7.17008   7.19747   7.19798   7.48707   7.49208
 Alpha virt. eigenvalues --    7.71148   7.73355   8.15300   8.18844  12.49193
 Alpha virt. eigenvalues --   12.56884
          Condensed to atoms (all electrons):
               1          2          3          4          5          6
     1  O    7.813842   0.330661   0.333463   0.001103   0.000183   0.000514
     2  H    0.330661   0.463049  -0.032367   0.000282  -0.000023  -0.000059
     3  H    0.333463  -0.032367   0.457260   0.000318  -0.000028  -0.000045
     4  O    0.001103   0.000282   0.000318   7.813455   0.328317   0.336101
     5  H    0.000183  -0.000023  -0.000028   0.328317   0.465822  -0.032532
     6  H    0.000514  -0.000059  -0.000045   0.336101  -0.032532   0.454797
 Mulliken charges:
               1
     1  O   -0.479766
     2  H    0.238458
     3  H    0.241398
     4  O   -0.479576
     5  H    0.238261
     6  H    0.241224
 Sum of Mulliken charges =  -0.00000
 Mulliken charges with hydrogens summed into heavy atoms:
               1
     1  O    0.000091
     4  O   -0.000091
 Electronic spatial extent (au):  <R**2>=            248.9394
 Charge=             -0.0000 electrons
 Dipole moment (field-independent basis, Debye):
    X=             -0.3694    Y=             -0.0408    Z=              0.0000  Tot=              0.3716
 Quadrupole moment (field-independent basis, Debye-Ang):
   XX=             -7.9492   YY=              0.7726   ZZ=            -14.7090
   XY=             -0.3000   XZ=              0.0000   YZ=              0.0000
 Traceless Quadrupole moment (field-independent basis, Debye-Ang):
   XX=             -0.6540   YY=              8.0678   ZZ=             -7.4138
   XY=             -0.3000   XZ=              0.0000   YZ=              0.0000
 Octapole moment (field-independent basis, Debye-Ang**2):
  XXX=             -0.8028  YYY=              0.1725  ZZZ=              0.0000  XYY=              0.7251
  XXY=             -0.2970  XXZ=              0.0000  XZZ=             -0.0454  YZZ=             -0.0064
  YYZ=              0.0000  XYZ=              0.0000
 Hexadecapole moment (field-independent basis, Debye-Ang**3):
 XXXX=            -11.4163 YYYY=           -145.1666 ZZZZ=            -11.3344 XXXY=             -1.1868
 XXXZ=              0.0000 YYYX=              4.1035 YYYZ=              0.0000 ZZZX=              0.0000
 ZZZY=              0.0000 XXYY=            -18.5952 XXZZ=             -4.5898 YYZZ=            -47.8362
 XXYZ=              0.0000 YYXZ=              0.0000 ZZXY=              0.1469
 N-N= 3.299058030859D+01 E-N=-4.276990510218D+02  KE= 1.518103642103D+02
 Symmetry A'   KE= 1.427721160453D+02
 Symmetry A"   KE= 9.038248164979D+00
 Leave Link  601 at Sat Aug 27 05:34:39 2022, MaxMem=   536870912 cpu:               0.1 elap:               0.0
 (Enter /usr/site/hpc/x86_64/glibc-2.17/broadwell/gaussian/g16_a.03/pgi-16.5/g16/l9999.exe)
 1\1\GINC-N003\SP\RCCSD(T)-FC\CC-pVTZ\H4O2\C7441284\27-Aug-2022\0\\#p C
 CSD(T)/cc-pVTZ\\H2O_H2O_1578\\0,1\O,0,0.,-0.009833,0.\H,0,-0.799571,-0
 .580965,0.\H,0,0.799571,-0.580965,0.\O,0,-0.001918,3.272461,0.\H,0,0.6
 70867,3.988607,0.\H,0,-0.897548,3.67663,0.\\Version=ES64L-G16RevA.03\S
 tate=1-A'\HF=-152.1031825\MP2=-152.6301057\MP3=-152.6375413\MP4D=-152.
 6467183\MP4DQ=-152.6390803\MP4SDQ=-152.6422041\CCSD=-152.6415896\CCSD(
 T)=-152.6573756\RMSD=5.476e-09\PG=CS [SG(H4O2)]\\@


 One man practicing sportsmanship is far better than 50 preaching it.
 -- Knute K. Rockne
 Job cpu time:       0 days  0 hours  1 minutes 20.0 seconds.
 Elapsed time:       0 days  0 hours  0 minutes 20.5 seconds.
 File lengths (MBytes):  RWF=    352 Int=      0 D2E=      0 Chk=      8 Scr=      8
 Normal termination of Gaussian 16 at Sat Aug 27 05:34:39 2022.
