 Entering Gaussian System, Link 0=g16
 Input=H2O_H2O_2526.com
 Output=H2O_H2O_2526.log
 Initial command:
 /usr/site/hpc/x86_64/glibc-2.17/broadwell/gaussian/g16_a.03/pgi-16.5/g16/l1.exe "/gpfs/gpfs1/scratch/c7441284/ForceFieldModel/FittingData/Gau-3443207.inp" -scrdir="/gpfs/gpfs1/scratch/c7441284/ForceFieldModel/FittingData/"
 Entering Link 1 = /usr/site/hpc/x86_64/glibc-2.17/broadwell/gaussian/g16_a.03/pgi-16.5/g16/l1.exe PID=   3443208.
  
 Copyright (c) 1988,1990,1992,1993,1995,1998,2003,2009,2016,
            Gaussian, Inc.  All Rights Reserved.
  
 This is part of the Gaussian(R) 16 program.  It is based on
 the Gaussian(R) 09 system (copyright 2009, Gaussian, Inc.),
 the Gaussian(R) 03 system (copyright 2003, Gaussian, Inc.),
 the Gaussian(R) 98 system (copyright 1998, Gaussian, Inc.),
 the Gaussian(R) 94 system (copyright 1995, Gaussian, Inc.),
 the Gaussian 92(TM) system (copyright 1992, Gaussian, Inc.),
 the Gaussian 90(TM) system (copyright 1990, Gaussian, Inc.),
 the Gaussian 88(TM) system (copyright 1988, Gaussian, Inc.),
 the Gaussian 86(TM) system (copyright 1986, Carnegie Mellon
 University), and the Gaussian 82(TM) system (copyright 1983,
 Carnegie Mellon University). Gaussian is a federally registered
 trademark of Gaussian, Inc.
  
 This software contains proprietary and confidential information,
 including trade secrets, belonging to Gaussian, Inc.
  
 This software is provided under written license and may be
 used, copied, transmitted, or stored only in accord with that
 written license.
  
 The following legend is applicable only to US Government
 contracts under FAR:
  
                    RESTRICTED RIGHTS LEGEND
  
 Use, reproduction and disclosure by the US Government is
 subject to restrictions as set forth in subparagraphs (a)
 and (c) of the Commercial Computer Software - Restricted
 Rights clause in FAR 52.227-19.
  
 Gaussian, Inc.
 340 Quinnipiac St., Bldg. 40, Wallingford CT 06492
  
  
 ---------------------------------------------------------------
 Warning -- This program may not be used in any manner that
 competes with the business of Gaussian, Inc. or will provide
 assistance to any competitor of Gaussian, Inc.  The licensee
 of this program is prohibited from giving any competitor of
 Gaussian, Inc. access to this program.  By using this program,
 the user acknowledges that Gaussian, Inc. is engaged in the
 business of creating and licensing software in the field of
 computational chemistry and represents and warrants to the
 licensee that it is not a competitor of Gaussian, Inc. and that
 it will not use this program in any manner prohibited above.
 ---------------------------------------------------------------
  

 Cite this work as:
 Gaussian 16, Revision A.03,
 M. J. Frisch, G. W. Trucks, H. B. Schlegel, G. E. Scuseria, 
 M. A. Robb, J. R. Cheeseman, G. Scalmani, V. Barone, 
 G. A. Petersson, H. Nakatsuji, X. Li, M. Caricato, A. V. Marenich, 
 J. Bloino, B. G. Janesko, R. Gomperts, B. Mennucci, H. P. Hratchian, 
 J. V. Ortiz, A. F. Izmaylov, J. L. Sonnenberg, D. Williams-Young, 
 F. Ding, F. Lipparini, F. Egidi, J. Goings, B. Peng, A. Petrone, 
 T. Henderson, D. Ranasinghe, V. G. Zakrzewski, J. Gao, N. Rega, 
 G. Zheng, W. Liang, M. Hada, M. Ehara, K. Toyota, R. Fukuda, 
 J. Hasegawa, M. Ishida, T. Nakajima, Y. Honda, O. Kitao, H. Nakai, 
 T. Vreven, K. Throssell, J. A. Montgomery, Jr., J. E. Peralta, 
 F. Ogliaro, M. J. Bearpark, J. J. Heyd, E. N. Brothers, K. N. Kudin, 
 V. N. Staroverov, T. A. Keith, R. Kobayashi, J. Normand, 
 K. Raghavachari, A. P. Rendell, J. C. Burant, S. S. Iyengar, 
 J. Tomasi, M. Cossi, J. M. Millam, M. Klene, C. Adamo, R. Cammi, 
 J. W. Ochterski, R. L. Martin, K. Morokuma, O. Farkas, 
 J. B. Foresman, and D. J. Fox, Gaussian, Inc., Wallingford CT, 2016.
 
 ******************************************
 Gaussian 16:  ES64L-G16RevA.03 25-Dec-2016
                26-Aug-2022 
 ******************************************
 %NProcShared=4
 Will use up to    4 processors via shared memory.
 %Mem=4GB
 %Chk=H2O_H2O_2526.chk
 ------------------
 #p CCSD(T)/cc-pVTZ
 ------------------
 1/38=1,172=1/1;
 2/12=2,17=6,18=5,40=1/2;
 3/5=16,6=1,11=9,25=1,30=1/1,2,3;
 4//1;
 5/5=2,38=5/2;
 8/6=4,9=120000,10=1/1,4;
 9/5=7,14=2/13;
 6/7=2,8=2,9=2,10=2/1;
 99/5=1,9=1/99;
 Leave Link    1 at Fri Aug 26 13:21:17 2022, MaxMem=   536870912 cpu:               0.7 elap:               0.2
 (Enter /usr/site/hpc/x86_64/glibc-2.17/broadwell/gaussian/g16_a.03/pgi-16.5/g16/l101.exe)
 ------------
 H2O_H2O_2526
 ------------
 Symbolic Z-matrix:
 Charge =  0 Multiplicity = 1
 O                     0.       -0.00983   0. 
 H                    -0.79957  -0.58097   0. 
 H                     0.79957  -0.58097   0. 
 O                    -0.00064   4.28312   0. 
 H                     0.75986   4.90532   0. 
 H                    -0.83586   4.80073   0. 
 
 ITRead=  0  0  0  0  0  0
 MicOpt= -1 -1 -1 -1 -1 -1
 NAtoms=      6 NQM=        6 NQMF=       0 NMMI=      0 NMMIF=      0
                NMic=       0 NMicF=      0.
                    Isotopes and Nuclear Properties:
 (Nuclear quadrupole moments (NQMom) in fm**2, nuclear magnetic moments (NMagM)
  in nuclear magnetons)

  Atom         1           2           3           4           5           6
 IAtWgt=          16           1           1          16           1           1
 AtmWgt=  15.9949146   1.0078250   1.0078250  15.9949146   1.0078250   1.0078250
 NucSpn=           0           1           1           0           1           1
 AtZEff=  -0.0000000  -0.0000000  -0.0000000  -0.0000000  -0.0000000  -0.0000000
 NQMom=    0.0000000   0.0000000   0.0000000   0.0000000   0.0000000   0.0000000
 NMagM=    0.0000000   2.7928460   2.7928460   0.0000000   2.7928460   2.7928460
 AtZNuc=   8.0000000   1.0000000   1.0000000   8.0000000   1.0000000   1.0000000
 Leave Link  101 at Fri Aug 26 13:21:18 2022, MaxMem=   536870912 cpu:               0.4 elap:               0.1
 (Enter /usr/site/hpc/x86_64/glibc-2.17/broadwell/gaussian/g16_a.03/pgi-16.5/g16/l202.exe)
                          Input orientation:                          
 ---------------------------------------------------------------------
 Center     Atomic      Atomic             Coordinates (Angstroms)
 Number     Number       Type             X           Y           Z
 ---------------------------------------------------------------------
      1          8           0        0.000000   -0.009833    0.000000
      2          1           0       -0.799571   -0.580965    0.000000
      3          1           0        0.799571   -0.580965    0.000000
      4          8           0       -0.000643    4.283117    0.000000
      5          1           0        0.759863    4.905321    0.000000
      6          1           0       -0.835856    4.800732    0.000000
 ---------------------------------------------------------------------
                    Distance matrix (angstroms):
                    1          2          3          4          5
     1  O    0.000000
     2  H    0.982601   0.000000
     3  H    0.982601   1.599142   0.000000
     4  O    4.292950   4.929258   4.929466   0.000000
     5  H    4.973543   5.703610   5.486430   0.982602   0.000000
     6  H    4.882642   5.381819   5.624703   0.982602   1.599143
                    6
     6  H    0.000000
 Stoichiometry    H4O2
 Framework group  CS[SG(H4O2)]
 Deg. of freedom     9
 Full point group                 CS      NOp   2
 Largest Abelian subgroup         CS      NOp   2
 Largest concise Abelian subgroup C1      NOp   1
                         Standard orientation:                         
 ---------------------------------------------------------------------
 Center     Atomic      Atomic             Coordinates (Angstroms)
 Number     Number       Type             X           Y           Z
 ---------------------------------------------------------------------
      1          8           0        0.003735   -2.146353    0.000000
      2          1           0       -0.795921   -2.717366    0.000000
      3          1           0        0.803221   -2.717605    0.000000
      4          8           0        0.003735    2.146597    0.000000
      5          1           0        0.764335    2.768687    0.000000
      6          1           0       -0.831400    2.664337    0.000000
 ---------------------------------------------------------------------
 Rotational constants (GHZ):         196.3140112           2.8527753           2.8119135
 Leave Link  202 at Fri Aug 26 13:21:18 2022, MaxMem=   536870912 cpu:               0.0 elap:               0.0
 (Enter /usr/site/hpc/x86_64/glibc-2.17/broadwell/gaussian/g16_a.03/pgi-16.5/g16/l301.exe)
 Standard basis: CC-pVTZ (5D, 7F)
 Ernie: Thresh=  0.10000D-02 Tol=  0.10000D-05 Strict=F.
 Ernie:  6 primitive shells out of 84 were deleted.
 There are    92 symmetry adapted cartesian basis functions of A'  symmetry.
 There are    38 symmetry adapted cartesian basis functions of A"  symmetry.
 There are    80 symmetry adapted basis functions of A'  symmetry.
 There are    36 symmetry adapted basis functions of A"  symmetry.
   116 basis functions,   172 primitive gaussians,   130 cartesian basis functions
    10 alpha electrons       10 beta electrons
       nuclear repulsion energy        29.6018850944 Hartrees.
 IExCor=    0 DFT=F Ex=HF Corr=None ExCW=0 ScaHFX=  1.000000
 ScaDFX=  1.000000  1.000000  1.000000  1.000000 ScalE2=  1.000000  1.000000
 IRadAn=      5 IRanWt=     -1 IRanGd=            0 ICorTp=0 IEmpDi=  4
 NAtoms=    6 NActive=    6 NUniq=    6 SFac= 1.00D+00 NAtFMM=   60 NAOKFM=F Big=F
 Integral buffers will be    131072 words long.
 Raffenetti 1 integral format.
 Two-electron integral symmetry is turned on.
 Leave Link  301 at Fri Aug 26 13:21:18 2022, MaxMem=   536870912 cpu:               0.3 elap:               0.1
 (Enter /usr/site/hpc/x86_64/glibc-2.17/broadwell/gaussian/g16_a.03/pgi-16.5/g16/l302.exe)
 NPDir=0 NMtPBC=     1 NCelOv=     1 NCel=       1 NClECP=     1 NCelD=      1
         NCelK=      1 NCelE2=     1 NClLst=     1 CellRange=     0.0.
 One-electron integrals computed using PRISM.
 One-electron integral symmetry used in STVInt
 NBasis=   116 RedAO= T EigKep=  2.55D-03  NBF=    80    36
 NBsUse=   116 1.00D-06 EigRej= -1.00D+00 NBFU=    80    36
 Leave Link  302 at Fri Aug 26 13:21:18 2022, MaxMem=   536870912 cpu:               0.5 elap:               0.1
 (Enter /usr/site/hpc/x86_64/glibc-2.17/broadwell/gaussian/g16_a.03/pgi-16.5/g16/l303.exe)
 DipDrv:  MaxL=1.
 Leave Link  303 at Fri Aug 26 13:21:18 2022, MaxMem=   536870912 cpu:               0.1 elap:               0.1
 (Enter /usr/site/hpc/x86_64/glibc-2.17/broadwell/gaussian/g16_a.03/pgi-16.5/g16/l401.exe)
 ExpMin= 1.03D-01 ExpMax= 1.53D+04 ExpMxC= 5.22D+02 IAcc=3 IRadAn=         5 AccDes= 0.00D+00
 Harris functional with IExCor=  205 and IRadAn=       5 diagonalized for initial guess.
 HarFok:  IExCor=  205 AccDes= 0.00D+00 IRadAn=         5 IDoV= 1 UseB2=F ITyADJ=14
 ICtDFT=  3500011 ScaDFX=  1.000000  1.000000  1.000000  1.000000
 FoFCou: FMM=F IPFlag=           0 FMFlag=      100000 FMFlg1=           0
         NFxFlg=           0 DoJE=T BraDBF=F KetDBF=T FulRan=T
         wScrn=  0.000000 ICntrl=       500 IOpCl=  0 I1Cent=   200000004 NGrid=           0
         NMat0=    1 NMatS0=      1 NMatT0=    0 NMatD0=    1 NMtDS0=    0 NMtDT0=    0
 Petite list used in FoFCou.
 Harris En= -152.298763520067    
 JPrj=0 DoOrth=F DoCkMO=F.
 Initial guess orbital symmetries:
       Occupied  (A') (A') (A') (A') (A') (A') (A') (A') (A") (A")
       Virtual   (A') (A') (A') (A') (A') (A') (A') (A') (A') (A')
                 (A") (A") (A') (A') (A') (A") (A") (A') (A") (A")
                 (A') (A') (A') (A') (A') (A') (A') (A') (A") (A")
                 (A") (A") (A') (A') (A') (A') (A') (A') (A') (A')
                 (A') (A') (A") (A") (A') (A') (A") (A") (A") (A")
                 (A') (A') (A') (A') (A') (A') (A") (A") (A') (A')
                 (A') (A') (A") (A") (A") (A") (A') (A') (A') (A')
                 (A") (A") (A') (A') (A') (A') (A') (A') (A') (A')
                 (A") (A") (A') (A') (A") (A") (A") (A") (A') (A')
                 (A") (A") (A') (A') (A') (A') (A") (A") (A') (A')
                 (A') (A') (A') (A') (A') (A')
 The electronic state of the initial guess is 1-A'.
 Leave Link  401 at Fri Aug 26 13:21:18 2022, MaxMem=   536870912 cpu:               1.0 elap:               0.3
 (Enter /usr/site/hpc/x86_64/glibc-2.17/broadwell/gaussian/g16_a.03/pgi-16.5/g16/l502.exe)
 Keep R1 ints in memory in symmetry-blocked form, NReq=34823457.
 FoFCou: FMM=F IPFlag=           0 FMFlag=           0 FMFlg1=           0
         NFxFlg=           0 DoJE=F BraDBF=F KetDBF=F FulRan=T
         wScrn=  0.000000 ICntrl=       600 IOpCl=  0 I1Cent=           0 NGrid=           0
         NMat0=    1 NMatS0=   6786 NMatT0=    0 NMatD0=    1 NMtDS0=    0 NMtDT0=    0
 Petite list used in FoFCou.
 Closed shell SCF:
 Using DIIS extrapolation, IDIIS=  1040.
 NGot=   536870912 LenX=   525040673 LenY=   525023332
 Requested convergence on RMS density matrix=1.00D-08 within 128 cycles.
 Requested convergence on MAX density matrix=1.00D-06.
 Requested convergence on             energy=1.00D-06.
 No special actions if energy rises.

 Cycle   1  Pass 1  IDiag  1:
 E= -151.923088719605    
 DIIS: error= 6.60D-02 at cycle   1 NSaved=   1.
 NSaved= 1 IEnMin= 1 EnMin= -151.923088719605     IErMin= 1 ErrMin= 6.60D-02
 ErrMax= 6.60D-02  0.00D+00 EMaxC= 1.00D-01 BMatC= 4.02D-01 BMatP= 4.02D-01
 IDIUse=3 WtCom= 3.40D-01 WtEn= 6.60D-01
 Coeff-Com:  0.100D+01
 Coeff-En:   0.100D+01
 Coeff:      0.100D+01
 Gap=     0.512 Goal=   None    Shift=    0.000
 GapD=    0.512 DampG=2.000 DampE=0.500 DampFc=1.0000 IDamp=-1.
 RMSDP=2.55D-03 MaxDP=6.58D-02              OVMax= 1.29D-01

 Cycle   2  Pass 1  IDiag  1:
 E= -152.035533265132     Delta-E=       -0.112444545527 Rises=F Damp=F
 DIIS: error= 4.18D-02 at cycle   2 NSaved=   2.
 NSaved= 2 IEnMin= 2 EnMin= -152.035533265132     IErMin= 2 ErrMin= 4.18D-02
 ErrMax= 4.18D-02  0.00D+00 EMaxC= 1.00D-01 BMatC= 1.15D-01 BMatP= 4.02D-01
 IDIUse=3 WtCom= 5.82D-01 WtEn= 4.18D-01
 Coeff-Com:  0.321D+00 0.679D+00
 Coeff-En:   0.170D+00 0.830D+00
 Coeff:      0.258D+00 0.742D+00
 Gap=     0.658 Goal=   None    Shift=    0.000
 RMSDP=1.35D-03 MaxDP=3.94D-02 DE=-1.12D-01 OVMax= 5.78D-02

 Cycle   3  Pass 1  IDiag  1:
 E= -152.101655087814     Delta-E=       -0.066121822682 Rises=F Damp=F
 DIIS: error= 9.00D-03 at cycle   3 NSaved=   3.
 NSaved= 3 IEnMin= 3 EnMin= -152.101655087814     IErMin= 3 ErrMin= 9.00D-03
 ErrMax= 9.00D-03  0.00D+00 EMaxC= 1.00D-01 BMatC= 6.04D-03 BMatP= 1.15D-01
 IDIUse=3 WtCom= 9.10D-01 WtEn= 9.00D-02
 Coeff-Com: -0.307D-01 0.155D+00 0.876D+00
 Coeff-En:   0.000D+00 0.000D+00 0.100D+01
 Coeff:     -0.279D-01 0.141D+00 0.887D+00
 Gap=     0.630 Goal=   None    Shift=    0.000
 RMSDP=2.49D-04 MaxDP=5.66D-03 DE=-6.61D-02 OVMax= 1.36D-02

 Cycle   4  Pass 1  IDiag  1:
 E= -152.105435562570     Delta-E=       -0.003780474756 Rises=F Damp=F
 DIIS: error= 8.70D-04 at cycle   4 NSaved=   4.
 NSaved= 4 IEnMin= 4 EnMin= -152.105435562570     IErMin= 4 ErrMin= 8.70D-04
 ErrMax= 8.70D-04  0.00D+00 EMaxC= 1.00D-01 BMatC= 3.90D-05 BMatP= 6.04D-03
 IDIUse=3 WtCom= 9.91D-01 WtEn= 8.70D-03
 Coeff-Com:  0.678D-02-0.611D-01-0.239D+00 0.129D+01
 Coeff-En:   0.000D+00 0.000D+00 0.000D+00 0.100D+01
 Coeff:      0.672D-02-0.606D-01-0.236D+00 0.129D+01
 Gap=     0.633 Goal=   None    Shift=    0.000
 RMSDP=5.29D-05 MaxDP=1.04D-03 DE=-3.78D-03 OVMax= 2.34D-03

 Cycle   5  Pass 1  IDiag  1:
 E= -152.105488116941     Delta-E=       -0.000052554371 Rises=F Damp=F
 DIIS: error= 1.97D-04 at cycle   5 NSaved=   5.
 NSaved= 5 IEnMin= 5 EnMin= -152.105488116941     IErMin= 5 ErrMin= 1.97D-04
 ErrMax= 1.97D-04  0.00D+00 EMaxC= 1.00D-01 BMatC= 1.41D-06 BMatP= 3.90D-05
 IDIUse=3 WtCom= 9.98D-01 WtEn= 1.97D-03
 Coeff-Com:  0.627D-03-0.178D-03-0.546D-02-0.206D+00 0.121D+01
 Coeff-En:   0.000D+00 0.000D+00 0.000D+00 0.000D+00 0.100D+01
 Coeff:      0.626D-03-0.178D-03-0.545D-02-0.205D+00 0.121D+01
 Gap=     0.633 Goal=   None    Shift=    0.000
 RMSDP=1.40D-05 MaxDP=2.87D-04 DE=-5.26D-05 OVMax= 6.95D-04

 Cycle   6  Pass 1  IDiag  1:
 E= -152.105491043119     Delta-E=       -0.000002926178 Rises=F Damp=F
 DIIS: error= 3.06D-05 at cycle   6 NSaved=   6.
 NSaved= 6 IEnMin= 6 EnMin= -152.105491043119     IErMin= 6 ErrMin= 3.06D-05
 ErrMax= 3.06D-05  0.00D+00 EMaxC= 1.00D-01 BMatC= 3.79D-08 BMatP= 1.41D-06
 IDIUse=1 WtCom= 1.00D+00 WtEn= 0.00D+00
 Coeff-Com: -0.293D-03 0.172D-02 0.743D-02-0.216D-02-0.262D+00 0.125D+01
 Coeff:     -0.293D-03 0.172D-02 0.743D-02-0.216D-02-0.262D+00 0.125D+01
 Gap=     0.634 Goal=   None    Shift=    0.000
 RMSDP=3.06D-06 MaxDP=6.78D-05 DE=-2.93D-06 OVMax= 1.59D-04

 Cycle   7  Pass 1  IDiag  1:
 E= -152.105491149084     Delta-E=       -0.000000105965 Rises=F Damp=F
 DIIS: error= 5.56D-06 at cycle   7 NSaved=   7.
 NSaved= 7 IEnMin= 7 EnMin= -152.105491149084     IErMin= 7 ErrMin= 5.56D-06
 ErrMax= 5.56D-06  0.00D+00 EMaxC= 1.00D-01 BMatC= 1.99D-09 BMatP= 3.79D-08
 IDIUse=1 WtCom= 1.00D+00 WtEn= 0.00D+00
 Coeff-Com:  0.323D-04-0.414D-03-0.167D-02 0.145D-01-0.138D-01-0.232D+00
 Coeff-Com:  0.123D+01
 Coeff:      0.323D-04-0.414D-03-0.167D-02 0.145D-01-0.138D-01-0.232D+00
 Coeff:      0.123D+01
 Gap=     0.634 Goal=   None    Shift=    0.000
 RMSDP=4.64D-07 MaxDP=1.03D-05 DE=-1.06D-07 OVMax= 3.09D-05

 Cycle   8  Pass 1  IDiag  1:
 E= -152.105491153279     Delta-E=       -0.000000004195 Rises=F Damp=F
 DIIS: error= 1.68D-06 at cycle   8 NSaved=   8.
 NSaved= 8 IEnMin= 8 EnMin= -152.105491153279     IErMin= 8 ErrMin= 1.68D-06
 ErrMax= 1.68D-06  0.00D+00 EMaxC= 1.00D-01 BMatC= 1.01D-10 BMatP= 1.99D-09
 IDIUse=1 WtCom= 1.00D+00 WtEn= 0.00D+00
 Coeff-Com:  0.413D-05 0.553D-04 0.240D-03-0.548D-02 0.199D-01 0.165D-01
 Coeff-Com: -0.426D+00 0.139D+01
 Coeff:      0.413D-05 0.553D-04 0.240D-03-0.548D-02 0.199D-01 0.165D-01
 Coeff:     -0.426D+00 0.139D+01
 Gap=     0.634 Goal=   None    Shift=    0.000
 RMSDP=1.17D-07 MaxDP=2.39D-06 DE=-4.20D-09 OVMax= 6.51D-06

 Cycle   9  Pass 1  IDiag  1:
 E= -152.105491153514     Delta-E=       -0.000000000235 Rises=F Damp=F
 DIIS: error= 2.05D-07 at cycle   9 NSaved=   9.
 NSaved= 9 IEnMin= 9 EnMin= -152.105491153514     IErMin= 9 ErrMin= 2.05D-07
 ErrMax= 2.05D-07  0.00D+00 EMaxC= 1.00D-01 BMatC= 1.71D-12 BMatP= 1.01D-10
 IDIUse=1 WtCom= 1.00D+00 WtEn= 0.00D+00
 Coeff-Com: -0.153D-05-0.651D-05-0.355D-04 0.111D-02-0.401D-02-0.402D-02
 Coeff-Com:  0.103D+00-0.413D+00 0.132D+01
 Coeff:     -0.153D-05-0.651D-05-0.355D-04 0.111D-02-0.401D-02-0.402D-02
 Coeff:      0.103D+00-0.413D+00 0.132D+01
 Gap=     0.634 Goal=   None    Shift=    0.000
 RMSDP=1.47D-08 MaxDP=3.18D-07 DE=-2.35D-10 OVMax= 8.16D-07

 Cycle  10  Pass 1  IDiag  1:
 E= -152.105491153519     Delta-E=       -0.000000000004 Rises=F Damp=F
 DIIS: error= 3.67D-08 at cycle  10 NSaved=  10.
 NSaved=10 IEnMin=10 EnMin= -152.105491153519     IErMin=10 ErrMin= 3.67D-08
 ErrMax= 3.67D-08  0.00D+00 EMaxC= 1.00D-01 BMatC= 5.73D-14 BMatP= 1.71D-12
 IDIUse=1 WtCom= 1.00D+00 WtEn= 0.00D+00
 Coeff-Com:  0.426D-06-0.137D-06 0.186D-05-0.188D-03 0.715D-03 0.384D-03
 Coeff-Com: -0.180D-01 0.827D-01-0.415D+00 0.135D+01
 Coeff:      0.426D-06-0.137D-06 0.186D-05-0.188D-03 0.715D-03 0.384D-03
 Coeff:     -0.180D-01 0.827D-01-0.415D+00 0.135D+01
 Gap=     0.634 Goal=   None    Shift=    0.000
 RMSDP=5.69D-09 MaxDP=1.67D-07 DE=-4.15D-12 OVMax= 2.36D-07

 SCF Done:  E(RHF) =  -152.105491154     A.U. after   10 cycles
            NFock= 10  Conv=0.57D-08     -V/T= 2.0020
 KE= 1.518065755385D+02 PE=-4.208035004793D+02 EE= 8.728954869282D+01
 Leave Link  502 at Fri Aug 26 13:21:20 2022, MaxMem=   536870912 cpu:               5.0 elap:               1.4
 (Enter /usr/site/hpc/x86_64/glibc-2.17/broadwell/gaussian/g16_a.03/pgi-16.5/g16/l801.exe)
 Windowed orbitals will be sorted by symmetry type.
 ExpMin= 1.03D-01 ExpMax= 1.53D+04 ExpMxC= 5.22D+02 IAcc=3 IRadAn=         5 AccDes= 0.00D+00
 HarFok:  IExCor=  205 AccDes= 0.00D+00 IRadAn=         5 IDoV=-2 UseB2=F ITyADJ=14
 ICtDFT= 12500011 ScaDFX=  1.000000  1.000000  1.000000  1.000000
 Largest valence mixing into a core orbital is  1.12D-04
 Largest core mixing into a valence orbital is  1.77D-05
 Range of M.O.s used for correlation:     3   116
 NBasis=   116 NAE=    10 NBE=    10 NFC=     2 NFV=     0
 NROrb=    114 NOA=     8 NOB=     8 NVA=   106 NVB=   106
 Leave Link  801 at Fri Aug 26 13:21:20 2022, MaxMem=   536870912 cpu:               0.4 elap:               0.1
 (Enter /usr/site/hpc/x86_64/glibc-2.17/broadwell/gaussian/g16_a.03/pgi-16.5/g16/l804.exe)
 Closed-shell transformation, MDV=   536870912 ITran=4 ISComp=2.
 Unit  1 TFree=        834515 TCopy=        406125.
 Semi-Direct transformation.
 ModeAB=           4 MOrb=             8 LenV=     536373994
 LASXX=      2873146 LTotXX=     2873146 LenRXX=     5831278
 LTotAB=     2958132 MaxLAS=     6016464 LenRXY=           0
 NonZer=     8704424 LenScr=    13107200 LnRSAI=     6016464
 LnScr1=     9437184 LExtra=           0 Total=     34392126
 MaxDsk=          -1 SrtSym=           T ITran=            4
 DoSDTr:  NPSUse=  4
 JobTyp=0 Pass  1:  I=   1 to   8.
 (rs|ai) integrals will be sorted in core.
 Complete sort for first half transformation.
 First half transformation complete.
 Complete sort for second half transformation.
 Second half transformation complete.
 Spin components of T(2) and E(2):
     alpha-alpha T2 =       0.1558732820D-01 E2=     -0.6383341528D-01
     alpha-beta  T2 =       0.9206377576D-01 E2=     -0.3985018994D+00
     beta-beta   T2 =       0.1558732820D-01 E2=     -0.6383341528D-01
 ANorm=    0.1059829435D+01
 E2 =    -0.5261687299D+00 EUMP2 =    -0.15263165988342D+03
 Leave Link  804 at Fri Aug 26 13:21:21 2022, MaxMem=   536870912 cpu:               4.2 elap:               1.1
 (Enter /usr/site/hpc/x86_64/glibc-2.17/broadwell/gaussian/g16_a.03/pgi-16.5/g16/l913.exe)
 CIDS:  MDV=   536870912.
 Frozen-core window:  NFC=   2 NFV=   0.
 IFCWin=0 IBDFC=1 NFBD=     0     0 NFCmp=     0     0 NFFFC=     0     0
 Using DD3R+UMP44R for 1st iteration.
 Using DD4RQ for 2nd and later iterations.
 Keep R2 and R3 ints in memory in symmetry-blocked form, NReq=35357534.
 FoFCou: FMM=F IPFlag=           0 FMFlag=           0 FMFlg1=           0
         NFxFlg=           0 DoJE=F BraDBF=F KetDBF=F FulRan=T
         wScrn=  0.000000 ICntrl=       600 IOpCl=  0 I1Cent=           0 NGrid=           0
         NMat0=    1 NMatS0=   6786 NMatT0=    0 NMatD0=    1 NMtDS0=    0 NMtDT0=    0
 Petite list used in FoFCou.
 CIDS: In Core Option IDoMem=           1.
 CCSD(T)
 =======
 Iterations=  50 Convergence= 0.100D-06
 Produce multiple copies of IABC intergrals
 Iteration Nr.   1
 **********************
 DD1Dir will call FoFMem   1 times, MxPair=        72
 NAB=    36 NAA=     0 NBB=     0.
 MP4(R+Q)=  0.75779256D-02
 Maximum subspace dimension=  5
 A-vector RMS=  1.7536630D-03 Max=  6.2498245D-03 conv= 1.00D-05.
 RLE energy=       -0.5260647964
 E3=       -0.75457820D-02        EUMP3=      -0.15263920567D+03
 E4(DQ)=   -0.15537978D-02        UMP4(DQ)=   -0.15264075946D+03
 E4(SDQ)=  -0.46295786D-02        UMP4(SDQ)=  -0.15264383524D+03
 VARIATIONAL ENERGIES WITH THE FIRST-ORDER WAVEFUNCTION:
 DE(Corr)= -0.52606479     E(Corr)=     -152.63155594    
 NORM(A)=   0.10601910D+01
 Iteration Nr.   2
 **********************
 DD1Dir will call FoFMem   1 times, MxPair=        72
 NAB=    36 NAA=     0 NBB=     0.
 A-vector RMS=  2.1210620D-04 Max=  1.1686490D-03 conv= 1.00D-05.
 RLE energy=       -0.5371625873
 DE(Corr)= -0.53600323     E(CORR)=     -152.64149438     Delta=-9.94D-03
 NORM(A)=   0.10639591D+01
 Iteration Nr.   3
 **********************
 DD1Dir will call FoFMem   1 times, MxPair=        72
 NAB=    36 NAA=     0 NBB=     0.
 A-vector RMS=  1.4378862D-04 Max=  1.0321330D-03 conv= 1.00D-05.
 RLE energy=       -0.5376607213
 DE(Corr)= -0.53707131     E(CORR)=     -152.64256246     Delta=-1.07D-03
 NORM(A)=   0.10646015D+01
 Iteration Nr.   4
 **********************
 DD1Dir will call FoFMem   1 times, MxPair=        72
 NAB=    36 NAA=     0 NBB=     0.
 A-vector RMS=  2.6706264D-05 Max=  1.4550390D-04 conv= 1.00D-05.
 RLE energy=       -0.5377438818
 DE(Corr)= -0.53770844     E(CORR)=     -152.64319960     Delta=-6.37D-04
 NORM(A)=   0.10647141D+01
 Iteration Nr.   5
 **********************
 DD1Dir will call FoFMem   1 times, MxPair=        72
 NAB=    36 NAA=     0 NBB=     0.
 A-vector RMS=  1.9356724D-05 Max=  1.9534051D-04 conv= 1.00D-05.
 RLE energy=       -0.5377528289
 DE(Corr)= -0.53774584     E(CORR)=     -152.64323699     Delta=-3.74D-05
 NORM(A)=   0.10647242D+01
 Iteration Nr.   6
 **********************
 DD1Dir will call FoFMem   1 times, MxPair=        72
 NAB=    36 NAA=     0 NBB=     0.
 A-vector RMS=  5.7593433D-06 Max=  5.3735818D-05 conv= 1.00D-05.
 RLE energy=       -0.5377434073
 DE(Corr)= -0.53774910     E(CORR)=     -152.64324025     Delta=-3.26D-06
 NORM(A)=   0.10647244D+01
 Iteration Nr.   7
 **********************
 DD1Dir will call FoFMem   1 times, MxPair=        72
 NAB=    36 NAA=     0 NBB=     0.
 A-vector RMS=  2.7446691D-06 Max=  2.9424094D-05 conv= 1.00D-05.
 RLE energy=       -0.5377501458
 DE(Corr)= -0.53774925     E(CORR)=     -152.64324040     Delta=-1.45D-07
 NORM(A)=   0.10647268D+01
 Iteration Nr.   8
 **********************
 DD1Dir will call FoFMem   1 times, MxPair=        72
 NAB=    36 NAA=     0 NBB=     0.
 A-vector RMS=  6.4136302D-07 Max=  7.8118082D-06 conv= 1.00D-05.
 RLE energy=       -0.5377486098
 DE(Corr)= -0.53774878     E(CORR)=     -152.64323994     Delta= 4.61D-07
 NORM(A)=   0.10647269D+01
 Iteration Nr.   9
 **********************
 DD1Dir will call FoFMem   1 times, MxPair=        72
 NAB=    36 NAA=     0 NBB=     0.
 A-vector RMS=  1.8696016D-07 Max=  2.3158693D-06 conv= 1.00D-05.
 RLE energy=       -0.5377489979
 DE(Corr)= -0.53774905     E(CORR)=     -152.64324020     Delta=-2.61D-07
 NORM(A)=   0.10647272D+01
 Iteration Nr.  10
 **********************
 DD1Dir will call FoFMem   1 times, MxPair=        72
 NAB=    36 NAA=     0 NBB=     0.
 A-vector RMS=  6.4068039D-08 Max=  7.6506724D-07 conv= 1.00D-05.
 RLE energy=       -0.5377490811
 DE(Corr)= -0.53774905     E(CORR)=     -152.64324021     Delta=-6.70D-09
 NORM(A)=   0.10647273D+01
 CI/CC converged in   10 iterations to DelEn=-6.70D-09 Conv= 1.00D-07 ErrA1= 6.41D-08 Conv= 1.00D-05
 Wavefunction amplitudes converged. E(Corr)=     -152.64324021    
 Largest amplitude= 2.40D-02
 IPart=  2 IA=    7   11.05% done.
 IPart=  3 IA=   13   21.46% done.
 IPart=  1 IA=   19   31.21% done.
 IPart=  2 IA=   25   40.32% done.
 IPart=  4 IA=   32   50.13% done.
 IPart=  3 IA=   40   60.27% done.
 IPart=  3 IA=   49   70.30% done.
 IPart=  4 IA=   60   80.58% done.
 IPart=  2 IA=   74   90.51% done.
 Time for triples=       90.16 seconds.
 T4(CCSD)= -0.16077839D-01
 T5(CCSD)=  0.40787407D-03
 CCSD(T)= -0.15265891017D+03
 Discarding MO integrals.
 Leave Link  913 at Fri Aug 26 13:21:55 2022, MaxMem=   536870912 cpu:             129.4 elap:              34.6
 (Enter /usr/site/hpc/x86_64/glibc-2.17/broadwell/gaussian/g16_a.03/pgi-16.5/g16/l601.exe)
 Copying SCF densities to generalized density rwf, IOpCl= 0 IROHF=0.

 **********************************************************************

            Population analysis using the SCF density.

 **********************************************************************

 Orbital symmetries:
       Occupied  (A') (A') (A') (A') (A') (A') (A') (A') (A") (A")
       Virtual   (A') (A') (A') (A') (A') (A') (A') (A') (A') (A')
                 (A") (A") (A') (A') (A') (A") (A") (A') (A") (A")
                 (A') (A') (A') (A') (A') (A') (A') (A') (A") (A")
                 (A") (A") (A') (A') (A') (A') (A') (A') (A') (A')
                 (A') (A') (A") (A") (A') (A') (A") (A") (A') (A')
                 (A") (A") (A') (A') (A') (A') (A") (A") (A") (A")
                 (A') (A') (A') (A') (A") (A") (A') (A') (A') (A')
                 (A") (A") (A') (A') (A') (A') (A') (A') (A') (A')
                 (A") (A") (A') (A') (A") (A") (A") (A") (A') (A')
                 (A") (A") (A') (A') (A') (A') (A") (A") (A') (A')
                 (A') (A') (A') (A') (A') (A')
 The electronic state is 1-A'.
 Alpha  occ. eigenvalues --  -20.54689 -20.54686  -1.31978  -1.31972  -0.69393
 Alpha  occ. eigenvalues --   -0.69385  -0.55416  -0.55225  -0.49085  -0.49062
 Alpha virt. eigenvalues --    0.14291   0.15344   0.20637   0.20966   0.54678
 Alpha virt. eigenvalues --    0.55695   0.57849   0.58026   0.64256   0.73161
 Alpha virt. eigenvalues --    0.79619   0.79972   0.81145   0.81380   0.81867
 Alpha virt. eigenvalues --    0.85532   0.85535   0.86142   0.97865   0.98313
 Alpha virt. eigenvalues --    1.15812   1.15827   1.17534   1.18343   1.52365
 Alpha virt. eigenvalues --    1.52472   1.52701   1.52721   2.01499   2.01637
 Alpha virt. eigenvalues --    2.07599   2.07602   2.09206   2.11518   2.15247
 Alpha virt. eigenvalues --    2.16022   2.22727   2.30739   2.62228   2.62385
 Alpha virt. eigenvalues --    2.93574   2.93819   3.40149   3.40154   3.50697
 Alpha virt. eigenvalues --    3.50705   3.53873   3.53876   3.60216   3.60306
 Alpha virt. eigenvalues --    3.79472   3.79502   3.86069   3.86413   3.87768
 Alpha virt. eigenvalues --    3.89205   3.94336   3.94339   4.03606   4.04012
 Alpha virt. eigenvalues --    4.08960   4.08994   4.15997   4.16142   4.30906
 Alpha virt. eigenvalues --    4.30909   4.40631   4.41027   4.46274   4.46364
 Alpha virt. eigenvalues --    4.67316   4.67345   4.81354   4.82010   5.04729
 Alpha virt. eigenvalues --    5.05414   5.24965   5.24998   5.54503   5.55291
 Alpha virt. eigenvalues --    5.98788   5.98791   6.41214   6.41225   6.87021
 Alpha virt. eigenvalues --    6.87024   6.90483   6.90486   6.95393   6.95432
 Alpha virt. eigenvalues --    6.99963   7.00038   7.08512   7.08970   7.12068
 Alpha virt. eigenvalues --    7.15130   7.19164   7.19168   7.47915   7.48267
 Alpha virt. eigenvalues --    7.70972   7.71449   8.15641   8.16142  12.48991
 Alpha virt. eigenvalues --   12.51465
          Condensed to atoms (all electrons):
               1          2          3          4          5          6
     1  O    7.811440   0.342608   0.342978   0.000133   0.000014   0.000019
     2  H    0.342608   0.445145  -0.036115   0.000016  -0.000002  -0.000003
     3  H    0.342978  -0.036115   0.444281   0.000017  -0.000002  -0.000002
     4  O    0.000133   0.000016   0.000017   7.811437   0.342381   0.343200
     5  H    0.000014  -0.000002  -0.000002   0.342381   0.445435  -0.036120
     6  H    0.000019  -0.000003  -0.000002   0.343200  -0.036120   0.444017
 Mulliken charges:
               1
     1  O   -0.497193
     2  H    0.248351
     3  H    0.248843
     4  O   -0.497184
     5  H    0.248294
     6  H    0.248889
 Sum of Mulliken charges =  -0.00000
 Mulliken charges with hydrogens summed into heavy atoms:
               1
     1  O    0.000001
     4  O   -0.000001
 Electronic spatial extent (au):  <R**2>=            390.8479
 Charge=             -0.0000 electrons
 Dipole moment (field-independent basis, Debye):
    X=             -0.1268    Y=             -0.0044    Z=              0.0000  Tot=              0.1269
 Quadrupole moment (field-independent basis, Debye-Ang):
   XX=             -7.8364   YY=              5.0488   ZZ=            -14.7095
   XY=             -0.1608   XZ=              0.0000   YZ=              0.0000
 Traceless Quadrupole moment (field-independent basis, Debye-Ang):
   XX=             -2.0040   YY=             10.8811   ZZ=             -8.8771
   XY=             -0.1608   XZ=              0.0000   YZ=              0.0000
 Octapole moment (field-independent basis, Debye-Ang**2):
  XXX=             -0.2837  YYY=              0.0106  ZZZ=              0.0000  XYY=              0.1459
  XXY=             -0.0381  XXZ=              0.0000  XZZ=             -0.0163  YZZ=             -0.0006
  YYZ=              0.0000  XYZ=              0.0000
 Hexadecapole moment (field-independent basis, Debye-Ang**3):
 XXXX=            -11.3531 YYYY=           -195.4497 ZZZZ=            -11.3311 XXXY=             -0.5220
 XXXZ=              0.0000 YYYX=              1.7336 YYYZ=              0.0000 ZZZX=              0.0000
 ZZZY=              0.0000 XXYY=            -30.4577 XXZZ=             -4.5776 YYZZ=            -77.1102
 XXYZ=              0.0000 YYXZ=              0.0000 ZZXY=              0.0689
 N-N= 2.960188509440D+01 E-N=-4.208035005855D+02  KE= 1.518065755385D+02
 Symmetry A'   KE= 1.427677584992D+02
 Symmetry A"   KE= 9.038817039361D+00
 Leave Link  601 at Fri Aug 26 13:21:56 2022, MaxMem=   536870912 cpu:               0.2 elap:               0.1
 (Enter /usr/site/hpc/x86_64/glibc-2.17/broadwell/gaussian/g16_a.03/pgi-16.5/g16/l9999.exe)
 1\1\GINC-N050\SP\RCCSD(T)-FC\CC-pVTZ\H4O2\C7441284\26-Aug-2022\0\\#p C
 CSD(T)/cc-pVTZ\\H2O_H2O_2526\\0,1\O,0,0.,-0.009833,0.\H,0,-0.799571,-0
 .580965,0.\H,0,0.799571,-0.580965,0.\O,0,-0.000643,4.283117,0.\H,0,0.7
 59863,4.905321,0.\H,0,-0.835856,4.800732,0.\\Version=ES64L-G16RevA.03\
 State=1-A'\HF=-152.1054912\MP2=-152.6316599\MP3=-152.6392057\MP4D=-152
 .6483374\MP4DQ=-152.6407595\MP4SDQ=-152.6438352\CCSD=-152.6432402\CCSD
 (T)=-152.6589102\RMSD=5.688e-09\PG=CS [SG(H4O2)]\\@


 MATERIAL COPIED FROM ONE SCHOLARLY BOOK WITHOUT CREDIT COMPRISES PLAGIARISM.
 MATERIAL COPIED FROM TWO SCHOLARLY BOOKS COMPRISES AN ESSAY.
 MATERIAL COPIED FROM THREE SCHOLARLY BOOKS COMPRISES A DISSERTATION.
 MATERIAL COPIED FROM FOUR SCHOLARLY BOOKS COMPRISES A FIFTH SCHOLARLY BOOK.

                               -- C&EN, 25 FEB 1980
 Job cpu time:       0 days  0 hours  2 minutes 22.5 seconds.
 Elapsed time:       0 days  0 hours  0 minutes 38.2 seconds.
 File lengths (MBytes):  RWF=    332 Int=      0 D2E=      0 Chk=      8 Scr=      8
 Normal termination of Gaussian 16 at Fri Aug 26 13:21:56 2022.
