 Entering Gaussian System, Link 0=g16
 Input=H2O_H2O_1533.com
 Output=H2O_H2O_1533.log
 Initial command:
 /usr/site/hpc/x86_64/glibc-2.17/broadwell/gaussian/g16_a.03/pgi-16.5/g16/l1.exe "/gpfs/gpfs1/scratch/c7441284/ForceFieldModel/FittingData/Gau-3629937.inp" -scrdir="/gpfs/gpfs1/scratch/c7441284/ForceFieldModel/FittingData/"
 Entering Link 1 = /usr/site/hpc/x86_64/glibc-2.17/broadwell/gaussian/g16_a.03/pgi-16.5/g16/l1.exe PID=   3629938.
  
 Copyright (c) 1988,1990,1992,1993,1995,1998,2003,2009,2016,
            Gaussian, Inc.  All Rights Reserved.
  
 This is part of the Gaussian(R) 16 program.  It is based on
 the Gaussian(R) 09 system (copyright 2009, Gaussian, Inc.),
 the Gaussian(R) 03 system (copyright 2003, Gaussian, Inc.),
 the Gaussian(R) 98 system (copyright 1998, Gaussian, Inc.),
 the Gaussian(R) 94 system (copyright 1995, Gaussian, Inc.),
 the Gaussian 92(TM) system (copyright 1992, Gaussian, Inc.),
 the Gaussian 90(TM) system (copyright 1990, Gaussian, Inc.),
 the Gaussian 88(TM) system (copyright 1988, Gaussian, Inc.),
 the Gaussian 86(TM) system (copyright 1986, Carnegie Mellon
 University), and the Gaussian 82(TM) system (copyright 1983,
 Carnegie Mellon University). Gaussian is a federally registered
 trademark of Gaussian, Inc.
  
 This software contains proprietary and confidential information,
 including trade secrets, belonging to Gaussian, Inc.
  
 This software is provided under written license and may be
 used, copied, transmitted, or stored only in accord with that
 written license.
  
 The following legend is applicable only to US Government
 contracts under FAR:
  
                    RESTRICTED RIGHTS LEGEND
  
 Use, reproduction and disclosure by the US Government is
 subject to restrictions as set forth in subparagraphs (a)
 and (c) of the Commercial Computer Software - Restricted
 Rights clause in FAR 52.227-19.
  
 Gaussian, Inc.
 340 Quinnipiac St., Bldg. 40, Wallingford CT 06492
  
  
 ---------------------------------------------------------------
 Warning -- This program may not be used in any manner that
 competes with the business of Gaussian, Inc. or will provide
 assistance to any competitor of Gaussian, Inc.  The licensee
 of this program is prohibited from giving any competitor of
 Gaussian, Inc. access to this program.  By using this program,
 the user acknowledges that Gaussian, Inc. is engaged in the
 business of creating and licensing software in the field of
 computational chemistry and represents and warrants to the
 licensee that it is not a competitor of Gaussian, Inc. and that
 it will not use this program in any manner prohibited above.
 ---------------------------------------------------------------
  

 Cite this work as:
 Gaussian 16, Revision A.03,
 M. J. Frisch, G. W. Trucks, H. B. Schlegel, G. E. Scuseria, 
 M. A. Robb, J. R. Cheeseman, G. Scalmani, V. Barone, 
 G. A. Petersson, H. Nakatsuji, X. Li, M. Caricato, A. V. Marenich, 
 J. Bloino, B. G. Janesko, R. Gomperts, B. Mennucci, H. P. Hratchian, 
 J. V. Ortiz, A. F. Izmaylov, J. L. Sonnenberg, D. Williams-Young, 
 F. Ding, F. Lipparini, F. Egidi, J. Goings, B. Peng, A. Petrone, 
 T. Henderson, D. Ranasinghe, V. G. Zakrzewski, J. Gao, N. Rega, 
 G. Zheng, W. Liang, M. Hada, M. Ehara, K. Toyota, R. Fukuda, 
 J. Hasegawa, M. Ishida, T. Nakajima, Y. Honda, O. Kitao, H. Nakai, 
 T. Vreven, K. Throssell, J. A. Montgomery, Jr., J. E. Peralta, 
 F. Ogliaro, M. J. Bearpark, J. J. Heyd, E. N. Brothers, K. N. Kudin, 
 V. N. Staroverov, T. A. Keith, R. Kobayashi, J. Normand, 
 K. Raghavachari, A. P. Rendell, J. C. Burant, S. S. Iyengar, 
 J. Tomasi, M. Cossi, J. M. Millam, M. Klene, C. Adamo, R. Cammi, 
 J. W. Ochterski, R. L. Martin, K. Morokuma, O. Farkas, 
 J. B. Foresman, and D. J. Fox, Gaussian, Inc., Wallingford CT, 2016.
 
 ******************************************
 Gaussian 16:  ES64L-G16RevA.03 25-Dec-2016
                27-Aug-2022 
 ******************************************
 %NProcShared=4
 Will use up to    4 processors via shared memory.
 %Mem=4GB
 %Chk=H2O_H2O_1533.chk
 ------------------
 #p CCSD(T)/cc-pVTZ
 ------------------
 1/38=1,172=1/1;
 2/12=2,17=6,18=5,40=1/2;
 3/5=16,6=1,11=9,25=1,30=1/1,2,3;
 4//1;
 5/5=2,38=5/2;
 8/6=4,9=120000,10=1/1,4;
 9/5=7,14=2/13;
 6/7=2,8=2,9=2,10=2/1;
 99/5=1,9=1/99;
 Leave Link    1 at Sat Aug 27 05:19:04 2022, MaxMem=   536870912 cpu:               0.3 elap:               0.1
 (Enter /usr/site/hpc/x86_64/glibc-2.17/broadwell/gaussian/g16_a.03/pgi-16.5/g16/l101.exe)
 ------------
 H2O_H2O_1533
 ------------
 Symbolic Z-matrix:
 Charge =  0 Multiplicity = 1
 O                     0.       -0.00983   0. 
 H                    -0.79957  -0.58097   0. 
 H                     0.79957  -0.58097   0. 
 O                    -0.00492   3.21815   0. 
 H                     0.40197   4.11255   0. 
 H                    -0.98293   3.31298   0. 
 
 ITRead=  0  0  0  0  0  0
 MicOpt= -1 -1 -1 -1 -1 -1
 NAtoms=      6 NQM=        6 NQMF=       0 NMMI=      0 NMMIF=      0
                NMic=       0 NMicF=      0.
                    Isotopes and Nuclear Properties:
 (Nuclear quadrupole moments (NQMom) in fm**2, nuclear magnetic moments (NMagM)
  in nuclear magnetons)

  Atom         1           2           3           4           5           6
 IAtWgt=          16           1           1          16           1           1
 AtmWgt=  15.9949146   1.0078250   1.0078250  15.9949146   1.0078250   1.0078250
 NucSpn=           0           1           1           0           1           1
 AtZEff=  -0.0000000  -0.0000000  -0.0000000  -0.0000000  -0.0000000  -0.0000000
 NQMom=    0.0000000   0.0000000   0.0000000   0.0000000   0.0000000   0.0000000
 NMagM=    0.0000000   2.7928460   2.7928460   0.0000000   2.7928460   2.7928460
 AtZNuc=   8.0000000   1.0000000   1.0000000   8.0000000   1.0000000   1.0000000
 Leave Link  101 at Sat Aug 27 05:19:04 2022, MaxMem=   536870912 cpu:               0.3 elap:               0.1
 (Enter /usr/site/hpc/x86_64/glibc-2.17/broadwell/gaussian/g16_a.03/pgi-16.5/g16/l202.exe)
                          Input orientation:                          
 ---------------------------------------------------------------------
 Center     Atomic      Atomic             Coordinates (Angstroms)
 Number     Number       Type             X           Y           Z
 ---------------------------------------------------------------------
      1          8           0        0.000000   -0.009833    0.000000
      2          1           0       -0.799571   -0.580965    0.000000
      3          1           0        0.799571   -0.580965    0.000000
      4          8           0       -0.004917    3.218148    0.000000
      5          1           0        0.401967    4.112549    0.000000
      6          1           0       -0.982932    3.312978    0.000000
 ---------------------------------------------------------------------
                    Distance matrix (angstroms):
                    1          2          3          4          5
     1  O    0.000000
     2  H    0.982601   0.000000
     3  H    0.982601   1.599142   0.000000
     4  O    3.227985   3.881332   3.883357   0.000000
     5  H    4.141933   4.844870   4.710325   0.982603   0.000000
     6  H    3.465145   3.898258   4.282535   0.982602   1.599143
                    6
     6  H    0.000000
 Stoichiometry    H4O2
 Framework group  CS[SG(H4O2)]
 Deg. of freedom     9
 Full point group                 CS      NOp   2
 Largest Abelian subgroup         CS      NOp   2
 Largest concise Abelian subgroup C1      NOp   1
                         Standard orientation:                         
 ---------------------------------------------------------------------
 Center     Atomic      Atomic             Coordinates (Angstroms)
 Number     Number       Type             X           Y           Z
 ---------------------------------------------------------------------
      1          8           0        0.028568   -1.606384    0.000000
      2          1           0       -0.771872   -2.176298    0.000000
      3          1           0        0.827268   -2.178734    0.000000
      4          8           0        0.028568    1.621601    0.000000
      5          1           0        0.436814    2.515381    0.000000
      6          1           0       -0.949301    1.717920    0.000000
 ---------------------------------------------------------------------
 Rotational constants (GHZ):         209.9781130           4.9427427           4.8290696
 Leave Link  202 at Sat Aug 27 05:19:04 2022, MaxMem=   536870912 cpu:               0.1 elap:               0.0
 (Enter /usr/site/hpc/x86_64/glibc-2.17/broadwell/gaussian/g16_a.03/pgi-16.5/g16/l301.exe)
 Standard basis: CC-pVTZ (5D, 7F)
 Ernie: Thresh=  0.10000D-02 Tol=  0.10000D-05 Strict=F.
 Ernie:  6 primitive shells out of 84 were deleted.
 There are    92 symmetry adapted cartesian basis functions of A'  symmetry.
 There are    38 symmetry adapted cartesian basis functions of A"  symmetry.
 There are    80 symmetry adapted basis functions of A'  symmetry.
 There are    36 symmetry adapted basis functions of A"  symmetry.
   116 basis functions,   172 primitive gaussians,   130 cartesian basis functions
    10 alpha electrons       10 beta electrons
       nuclear repulsion energy        33.2926608222 Hartrees.
 IExCor=    0 DFT=F Ex=HF Corr=None ExCW=0 ScaHFX=  1.000000
 ScaDFX=  1.000000  1.000000  1.000000  1.000000 ScalE2=  1.000000  1.000000
 IRadAn=      5 IRanWt=     -1 IRanGd=            0 ICorTp=0 IEmpDi=  4
 NAtoms=    6 NActive=    6 NUniq=    6 SFac= 1.00D+00 NAtFMM=   60 NAOKFM=F Big=F
 Integral buffers will be    131072 words long.
 Raffenetti 1 integral format.
 Two-electron integral symmetry is turned on.
 Leave Link  301 at Sat Aug 27 05:19:04 2022, MaxMem=   536870912 cpu:               0.2 elap:               0.1
 (Enter /usr/site/hpc/x86_64/glibc-2.17/broadwell/gaussian/g16_a.03/pgi-16.5/g16/l302.exe)
 NPDir=0 NMtPBC=     1 NCelOv=     1 NCel=       1 NClECP=     1 NCelD=      1
         NCelK=      1 NCelE2=     1 NClLst=     1 CellRange=     0.0.
 One-electron integrals computed using PRISM.
 One-electron integral symmetry used in STVInt
 NBasis=   116 RedAO= T EigKep=  2.22D-03  NBF=    80    36
 NBsUse=   116 1.00D-06 EigRej= -1.00D+00 NBFU=    80    36
 Leave Link  302 at Sat Aug 27 05:19:04 2022, MaxMem=   536870912 cpu:               0.4 elap:               0.1
 (Enter /usr/site/hpc/x86_64/glibc-2.17/broadwell/gaussian/g16_a.03/pgi-16.5/g16/l303.exe)
 DipDrv:  MaxL=1.
 Leave Link  303 at Sat Aug 27 05:19:04 2022, MaxMem=   536870912 cpu:               0.1 elap:               0.0
 (Enter /usr/site/hpc/x86_64/glibc-2.17/broadwell/gaussian/g16_a.03/pgi-16.5/g16/l401.exe)
 ExpMin= 1.03D-01 ExpMax= 1.53D+04 ExpMxC= 5.22D+02 IAcc=3 IRadAn=         5 AccDes= 0.00D+00
 Harris functional with IExCor=  205 and IRadAn=       5 diagonalized for initial guess.
 HarFok:  IExCor=  205 AccDes= 0.00D+00 IRadAn=         5 IDoV= 1 UseB2=F ITyADJ=14
 ICtDFT=  3500011 ScaDFX=  1.000000  1.000000  1.000000  1.000000
 FoFCou: FMM=F IPFlag=           0 FMFlag=      100000 FMFlg1=           0
         NFxFlg=           0 DoJE=T BraDBF=F KetDBF=T FulRan=T
         wScrn=  0.000000 ICntrl=       500 IOpCl=  0 I1Cent=   200000004 NGrid=           0
         NMat0=    1 NMatS0=      1 NMatT0=    0 NMatD0=    1 NMtDS0=    0 NMtDT0=    0
 Petite list used in FoFCou.
 Harris En= -152.299692362917    
 JPrj=0 DoOrth=F DoCkMO=F.
 Initial guess orbital symmetries:
       Occupied  (A') (A') (A') (A') (A') (A') (A') (A') (A") (A")
       Virtual   (A') (A') (A') (A') (A') (A') (A') (A') (A') (A")
                 (A") (A') (A') (A') (A') (A") (A") (A") (A") (A')
                 (A') (A') (A') (A') (A') (A') (A') (A') (A") (A")
                 (A") (A") (A') (A') (A') (A') (A') (A') (A') (A')
                 (A') (A') (A") (A") (A') (A') (A") (A") (A") (A")
                 (A') (A') (A') (A') (A') (A") (A") (A') (A') (A')
                 (A') (A") (A') (A") (A") (A") (A') (A') (A') (A')
                 (A") (A") (A') (A') (A') (A') (A') (A') (A') (A')
                 (A") (A") (A') (A') (A") (A") (A") (A") (A') (A')
                 (A") (A") (A') (A') (A') (A') (A") (A") (A') (A')
                 (A') (A') (A') (A') (A') (A')
 The electronic state of the initial guess is 1-A'.
 Leave Link  401 at Sat Aug 27 05:19:04 2022, MaxMem=   536870912 cpu:               0.7 elap:               0.2
 (Enter /usr/site/hpc/x86_64/glibc-2.17/broadwell/gaussian/g16_a.03/pgi-16.5/g16/l502.exe)
 Keep R1 ints in memory in symmetry-blocked form, NReq=34823457.
 FoFCou: FMM=F IPFlag=           0 FMFlag=           0 FMFlg1=           0
         NFxFlg=           0 DoJE=F BraDBF=F KetDBF=F FulRan=T
         wScrn=  0.000000 ICntrl=       600 IOpCl=  0 I1Cent=           0 NGrid=           0
         NMat0=    1 NMatS0=   6786 NMatT0=    0 NMatD0=    1 NMtDS0=    0 NMtDT0=    0
 Petite list used in FoFCou.
 Closed shell SCF:
 Using DIIS extrapolation, IDIIS=  1040.
 NGot=   536870912 LenX=   525040673 LenY=   525023332
 Requested convergence on RMS density matrix=1.00D-08 within 128 cycles.
 Requested convergence on MAX density matrix=1.00D-06.
 Requested convergence on             energy=1.00D-06.
 No special actions if energy rises.

 Cycle   1  Pass 1  IDiag  1:
 E= -151.920053153923    
 DIIS: error= 6.63D-02 at cycle   1 NSaved=   1.
 NSaved= 1 IEnMin= 1 EnMin= -151.920053153923     IErMin= 1 ErrMin= 6.63D-02
 ErrMax= 6.63D-02  0.00D+00 EMaxC= 1.00D-01 BMatC= 4.03D-01 BMatP= 4.03D-01
 IDIUse=3 WtCom= 3.37D-01 WtEn= 6.63D-01
 Coeff-Com:  0.100D+01
 Coeff-En:   0.100D+01
 Coeff:      0.100D+01
 Gap=     0.501 Goal=   None    Shift=    0.000
 GapD=    0.501 DampG=2.000 DampE=0.500 DampFc=1.0000 IDamp=-1.
 RMSDP=2.68D-03 MaxDP=6.53D-02              OVMax= 1.30D-01

 Cycle   2  Pass 1  IDiag  1:
 E= -152.032614215097     Delta-E=       -0.112561061174 Rises=F Damp=F
 DIIS: error= 4.19D-02 at cycle   2 NSaved=   2.
 NSaved= 2 IEnMin= 2 EnMin= -152.032614215097     IErMin= 2 ErrMin= 4.19D-02
 ErrMax= 4.19D-02  0.00D+00 EMaxC= 1.00D-01 BMatC= 1.16D-01 BMatP= 4.03D-01
 IDIUse=3 WtCom= 5.81D-01 WtEn= 4.19D-01
 Coeff-Com:  0.322D+00 0.678D+00
 Coeff-En:   0.173D+00 0.827D+00
 Coeff:      0.260D+00 0.740D+00
 Gap=     0.649 Goal=   None    Shift=    0.000
 RMSDP=1.44D-03 MaxDP=3.94D-02 DE=-1.13D-01 OVMax= 5.83D-02

 Cycle   3  Pass 1  IDiag  1:
 E= -152.099742323851     Delta-E=       -0.067128108754 Rises=F Damp=F
 DIIS: error= 9.11D-03 at cycle   3 NSaved=   3.
 NSaved= 3 IEnMin= 3 EnMin= -152.099742323851     IErMin= 3 ErrMin= 9.11D-03
 ErrMax= 9.11D-03  0.00D+00 EMaxC= 1.00D-01 BMatC= 6.13D-03 BMatP= 1.16D-01
 IDIUse=3 WtCom= 9.09D-01 WtEn= 9.11D-02
 Coeff-Com: -0.311D-01 0.155D+00 0.876D+00
 Coeff-En:   0.000D+00 0.000D+00 0.100D+01
 Coeff:     -0.283D-01 0.141D+00 0.888D+00
 Gap=     0.621 Goal=   None    Shift=    0.000
 RMSDP=2.65D-04 MaxDP=5.75D-03 DE=-6.71D-02 OVMax= 1.38D-02

 Cycle   4  Pass 1  IDiag  1:
 E= -152.103596556848     Delta-E=       -0.003854232997 Rises=F Damp=F
 DIIS: error= 8.77D-04 at cycle   4 NSaved=   4.
 NSaved= 4 IEnMin= 4 EnMin= -152.103596556848     IErMin= 4 ErrMin= 8.77D-04
 ErrMax= 8.77D-04  0.00D+00 EMaxC= 1.00D-01 BMatC= 4.07D-05 BMatP= 6.13D-03
 IDIUse=3 WtCom= 9.91D-01 WtEn= 8.77D-03
 Coeff-Com:  0.674D-02-0.609D-01-0.236D+00 0.129D+01
 Coeff-En:   0.000D+00 0.000D+00 0.000D+00 0.100D+01
 Coeff:      0.668D-02-0.604D-01-0.234D+00 0.129D+01
 Gap=     0.624 Goal=   None    Shift=    0.000
 RMSDP=5.45D-05 MaxDP=1.05D-03 DE=-3.85D-03 OVMax= 2.62D-03

 Cycle   5  Pass 1  IDiag  1:
 E= -152.103651517897     Delta-E=       -0.000054961049 Rises=F Damp=F
 DIIS: error= 2.00D-04 at cycle   5 NSaved=   5.
 NSaved= 5 IEnMin= 5 EnMin= -152.103651517897     IErMin= 5 ErrMin= 2.00D-04
 ErrMax= 2.00D-04  0.00D+00 EMaxC= 1.00D-01 BMatC= 1.47D-06 BMatP= 4.07D-05
 IDIUse=3 WtCom= 9.98D-01 WtEn= 2.00D-03
 Coeff-Com:  0.732D-03-0.981D-03-0.862D-02-0.187D+00 0.120D+01
 Coeff-En:   0.000D+00 0.000D+00 0.000D+00 0.000D+00 0.100D+01
 Coeff:      0.731D-03-0.979D-03-0.861D-02-0.186D+00 0.120D+01
 Gap=     0.625 Goal=   None    Shift=    0.000
 RMSDP=1.41D-05 MaxDP=2.83D-04 DE=-5.50D-05 OVMax= 7.11D-04

 Cycle   6  Pass 1  IDiag  1:
 E= -152.103654522869     Delta-E=       -0.000003004971 Rises=F Damp=F
 DIIS: error= 3.39D-05 at cycle   6 NSaved=   6.
 NSaved= 6 IEnMin= 6 EnMin= -152.103654522869     IErMin= 6 ErrMin= 3.39D-05
 ErrMax= 3.39D-05  0.00D+00 EMaxC= 1.00D-01 BMatC= 4.35D-08 BMatP= 1.47D-06
 IDIUse=1 WtCom= 1.00D+00 WtEn= 0.00D+00
 Coeff-Com: -0.315D-03 0.192D-02 0.826D-02-0.814D-02-0.257D+00 0.125D+01
 Coeff:     -0.315D-03 0.192D-02 0.826D-02-0.814D-02-0.257D+00 0.125D+01
 Gap=     0.625 Goal=   None    Shift=    0.000
 RMSDP=3.42D-06 MaxDP=7.64D-05 DE=-3.00D-06 OVMax= 1.73D-04

 Cycle   7  Pass 1  IDiag  1:
 E= -152.103654642722     Delta-E=       -0.000000119853 Rises=F Damp=F
 DIIS: error= 5.93D-06 at cycle   7 NSaved=   7.
 NSaved= 7 IEnMin= 7 EnMin= -152.103654642722     IErMin= 7 ErrMin= 5.93D-06
 ErrMax= 5.93D-06  0.00D+00 EMaxC= 1.00D-01 BMatC= 2.33D-09 BMatP= 4.35D-08
 IDIUse=1 WtCom= 1.00D+00 WtEn= 0.00D+00
 Coeff-Com:  0.317D-04-0.431D-03-0.173D-02 0.157D-01-0.178D-01-0.231D+00
 Coeff-Com:  0.124D+01
 Coeff:      0.317D-04-0.431D-03-0.173D-02 0.157D-01-0.178D-01-0.231D+00
 Coeff:      0.124D+01
 Gap=     0.625 Goal=   None    Shift=    0.000
 RMSDP=5.47D-07 MaxDP=1.13D-05 DE=-1.20D-07 OVMax= 3.48D-05

 Cycle   8  Pass 1  IDiag  1:
 E= -152.103654647626     Delta-E=       -0.000000004904 Rises=F Damp=F
 DIIS: error= 1.63D-06 at cycle   8 NSaved=   8.
 NSaved= 8 IEnMin= 8 EnMin= -152.103654647626     IErMin= 8 ErrMin= 1.63D-06
 ErrMax= 1.63D-06  0.00D+00 EMaxC= 1.00D-01 BMatC= 1.14D-10 BMatP= 2.33D-09
 IDIUse=1 WtCom= 1.00D+00 WtEn= 0.00D+00
 Coeff-Com:  0.584D-05 0.434D-04 0.192D-03-0.523D-02 0.199D-01 0.152D-01
 Coeff-Com: -0.406D+00 0.138D+01
 Coeff:      0.584D-05 0.434D-04 0.192D-03-0.523D-02 0.199D-01 0.152D-01
 Coeff:     -0.406D+00 0.138D+01
 Gap=     0.625 Goal=   None    Shift=    0.000
 RMSDP=1.21D-07 MaxDP=2.61D-06 DE=-4.90D-09 OVMax= 6.79D-06

 Cycle   9  Pass 1  IDiag  1:
 E= -152.103654647888     Delta-E=       -0.000000000263 Rises=F Damp=F
 DIIS: error= 2.47D-07 at cycle   9 NSaved=   9.
 NSaved= 9 IEnMin= 9 EnMin= -152.103654647888     IErMin= 9 ErrMin= 2.47D-07
 ErrMax= 2.47D-07  0.00D+00 EMaxC= 1.00D-01 BMatC= 3.21D-12 BMatP= 1.14D-10
 IDIUse=1 WtCom= 1.00D+00 WtEn= 0.00D+00
 Coeff-Com: -0.588D-06 0.980D-05 0.355D-04-0.389D-03 0.114D-02 0.181D-02
 Coeff-Com: -0.147D-01-0.434D-01 0.106D+01
 Coeff:     -0.588D-06 0.980D-05 0.355D-04-0.389D-03 0.114D-02 0.181D-02
 Coeff:     -0.147D-01-0.434D-01 0.106D+01
 Gap=     0.625 Goal=   None    Shift=    0.000
 RMSDP=1.49D-08 MaxDP=3.70D-07 DE=-2.63D-10 OVMax= 9.22D-07

 Cycle  10  Pass 1  IDiag  1:
 E= -152.103654647894     Delta-E=       -0.000000000005 Rises=F Damp=F
 DIIS: error= 8.25D-08 at cycle  10 NSaved=  10.
 NSaved=10 IEnMin=10 EnMin= -152.103654647894     IErMin=10 ErrMin= 8.25D-08
 ErrMax= 8.25D-08  0.00D+00 EMaxC= 1.00D-01 BMatC= 6.50D-13 BMatP= 3.21D-12
 IDIUse=1 WtCom= 1.00D+00 WtEn= 0.00D+00
 Coeff-Com: -0.734D-06-0.263D-05-0.145D-04 0.478D-03-0.176D-02-0.206D-02
 Coeff-Com:  0.444D-01-0.174D+00 0.270D+00 0.862D+00
 Coeff:     -0.734D-06-0.263D-05-0.145D-04 0.478D-03-0.176D-02-0.206D-02
 Coeff:      0.444D-01-0.174D+00 0.270D+00 0.862D+00
 Gap=     0.625 Goal=   None    Shift=    0.000
 RMSDP=6.07D-09 MaxDP=1.71D-07 DE=-5.43D-12 OVMax= 3.29D-07

 SCF Done:  E(RHF) =  -152.103654648     A.U. after   10 cycles
            NFock= 10  Conv=0.61D-08     -V/T= 2.0019
 KE= 1.518094929591D+02 PE=-4.282877638484D+02 EE= 9.108195541920D+01
 Leave Link  502 at Sat Aug 27 05:19:06 2022, MaxMem=   536870912 cpu:               3.9 elap:               1.1
 (Enter /usr/site/hpc/x86_64/glibc-2.17/broadwell/gaussian/g16_a.03/pgi-16.5/g16/l801.exe)
 Windowed orbitals will be sorted by symmetry type.
 ExpMin= 1.03D-01 ExpMax= 1.53D+04 ExpMxC= 5.22D+02 IAcc=3 IRadAn=         5 AccDes= 0.00D+00
 HarFok:  IExCor=  205 AccDes= 0.00D+00 IRadAn=         5 IDoV=-2 UseB2=F ITyADJ=14
 ICtDFT= 12500011 ScaDFX=  1.000000  1.000000  1.000000  1.000000
 Largest valence mixing into a core orbital is  1.12D-04
 Largest core mixing into a valence orbital is  1.77D-05
 Range of M.O.s used for correlation:     3   116
 NBasis=   116 NAE=    10 NBE=    10 NFC=     2 NFV=     0
 NROrb=    114 NOA=     8 NOB=     8 NVA=   106 NVB=   106
 Leave Link  801 at Sat Aug 27 05:19:06 2022, MaxMem=   536870912 cpu:               0.3 elap:               0.1
 (Enter /usr/site/hpc/x86_64/glibc-2.17/broadwell/gaussian/g16_a.03/pgi-16.5/g16/l804.exe)
 Closed-shell transformation, MDV=   536870912 ITran=4 ISComp=2.
 Unit  1 TFree=        834515 TCopy=        406125.
 Semi-Direct transformation.
 ModeAB=           4 MOrb=             8 LenV=     536366953
 LASXX=      2873146 LTotXX=     2873146 LenRXX=     5831278
 LTotAB=     2958132 MaxLAS=     7132752 LenRXY=           0
 NonZer=     8704424 LenScr=    13107200 LnRSAI=     7132752
 LnScr1=    11010048 LExtra=           0 Total=     37081278
 MaxDsk=          -1 SrtSym=           T ITran=            4
 DoSDTr:  NPSUse=  4
 JobTyp=0 Pass  1:  I=   1 to   8.
 (rs|ai) integrals will be sorted in core.
 Complete sort for first half transformation.
 First half transformation complete.
 Complete sort for second half transformation.
 Second half transformation complete.
 Spin components of T(2) and E(2):
     alpha-alpha T2 =       0.1566707360D-01 E2=     -0.6398787812D-01
     alpha-beta  T2 =       0.9236373009D-01 E2=     -0.3990102068D+00
     beta-beta   T2 =       0.1566707360D-01 E2=     -0.6398787812D-01
 ANorm=    0.1060046168D+01
 E2 =    -0.5269859630D+00 EUMP2 =    -0.15263064061094D+03
 Leave Link  804 at Sat Aug 27 05:19:07 2022, MaxMem=   536870912 cpu:               3.8 elap:               1.0
 (Enter /usr/site/hpc/x86_64/glibc-2.17/broadwell/gaussian/g16_a.03/pgi-16.5/g16/l913.exe)
 CIDS:  MDV=   536870912.
 Frozen-core window:  NFC=   2 NFV=   0.
 IFCWin=0 IBDFC=1 NFBD=     0     0 NFCmp=     0     0 NFFFC=     0     0
 Using DD3R+UMP44R for 1st iteration.
 Using DD4RQ for 2nd and later iterations.
 Keep R2 and R3 ints in memory in symmetry-blocked form, NReq=35357534.
 FoFCou: FMM=F IPFlag=           0 FMFlag=           0 FMFlg1=           0
         NFxFlg=           0 DoJE=F BraDBF=F KetDBF=F FulRan=T
         wScrn=  0.000000 ICntrl=       600 IOpCl=  0 I1Cent=           0 NGrid=           0
         NMat0=    1 NMatS0=   6786 NMatT0=    0 NMatD0=    1 NMtDS0=    0 NMtDT0=    0
 Petite list used in FoFCou.
 CIDS: In Core Option IDoMem=           1.
 CCSD(T)
 =======
 Iterations=  50 Convergence= 0.100D-06
 Produce multiple copies of IABC intergrals
 Iteration Nr.   1
 **********************
 DD1Dir will call FoFMem   1 times, MxPair=        72
 NAB=    36 NAA=     0 NBB=     0.
 MP4(R+Q)=  0.76387276D-02
 Maximum subspace dimension=  5
 A-vector RMS=  1.7894128D-03 Max=  6.6157755D-03 conv= 1.00D-05.
 RLE energy=       -0.5266881226
 E3=       -0.74125859D-02        EUMP3=      -0.15263805320D+03
 E4(DQ)=   -0.15377679D-02        UMP4(DQ)=   -0.15263959096D+03
 E4(SDQ)=  -0.46647292D-02        UMP4(SDQ)=  -0.15264271793D+03
 VARIATIONAL ENERGIES WITH THE FIRST-ORDER WAVEFUNCTION:
 DE(Corr)= -0.52668796     E(Corr)=     -152.63034261    
 NORM(A)=   0.10603627D+01
 Iteration Nr.   2
 **********************
 DD1Dir will call FoFMem   1 times, MxPair=        72
 NAB=    36 NAA=     0 NBB=     0.
 A-vector RMS=  2.1172596D-04 Max=  1.2376311D-03 conv= 1.00D-05.
 RLE energy=       -0.5378542982
 DE(Corr)= -0.53670636     E(CORR)=     -152.64036100     Delta=-1.00D-02
 NORM(A)=   0.10641684D+01
 Iteration Nr.   3
 **********************
 DD1Dir will call FoFMem   1 times, MxPair=        72
 NAB=    36 NAA=     0 NBB=     0.
 A-vector RMS=  1.5250182D-04 Max=  1.3028774D-03 conv= 1.00D-05.
 RLE energy=       -0.5383578174
 DE(Corr)= -0.53776035     E(CORR)=     -152.64141499     Delta=-1.05D-03
 NORM(A)=   0.10648179D+01
 Iteration Nr.   4
 **********************
 DD1Dir will call FoFMem   1 times, MxPair=        72
 NAB=    36 NAA=     0 NBB=     0.
 A-vector RMS=  3.0041345D-05 Max=  1.7395160D-04 conv= 1.00D-05.
 RLE energy=       -0.5384398091
 DE(Corr)= -0.53840442     E(CORR)=     -152.64205907     Delta=-6.44D-04
 NORM(A)=   0.10649341D+01
 Iteration Nr.   5
 **********************
 DD1Dir will call FoFMem   1 times, MxPair=        72
 NAB=    36 NAA=     0 NBB=     0.
 A-vector RMS=  2.0959306D-05 Max=  2.4132205D-04 conv= 1.00D-05.
 RLE energy=       -0.5384508519
 DE(Corr)= -0.53844328     E(CORR)=     -152.64209793     Delta=-3.89D-05
 NORM(A)=   0.10649462D+01
 Iteration Nr.   6
 **********************
 DD1Dir will call FoFMem   1 times, MxPair=        72
 NAB=    36 NAA=     0 NBB=     0.
 A-vector RMS=  6.4272101D-06 Max=  6.8314279D-05 conv= 1.00D-05.
 RLE energy=       -0.5384413842
 DE(Corr)= -0.53844681     E(CORR)=     -152.64210146     Delta=-3.53D-06
 NORM(A)=   0.10649464D+01
 Iteration Nr.   7
 **********************
 DD1Dir will call FoFMem   1 times, MxPair=        72
 NAB=    36 NAA=     0 NBB=     0.
 A-vector RMS=  2.9557714D-06 Max=  3.4614669D-05 conv= 1.00D-05.
 RLE energy=       -0.5384469016
 DE(Corr)= -0.53844699     E(CORR)=     -152.64210163     Delta=-1.73D-07
 NORM(A)=   0.10649486D+01
 Iteration Nr.   8
 **********************
 DD1Dir will call FoFMem   1 times, MxPair=        72
 NAB=    36 NAA=     0 NBB=     0.
 A-vector RMS=  1.0047432D-06 Max=  1.2376788D-05 conv= 1.00D-05.
 RLE energy=       -0.5384462506
 DE(Corr)= -0.53844646     E(CORR)=     -152.64210111     Delta= 5.24D-07
 NORM(A)=   0.10649488D+01
 Iteration Nr.   9
 **********************
 DD1Dir will call FoFMem   1 times, MxPair=        72
 NAB=    36 NAA=     0 NBB=     0.
 A-vector RMS=  1.7652609D-07 Max=  1.7273325D-06 conv= 1.00D-05.
 RLE energy=       -0.5384465289
 DE(Corr)= -0.53844661     E(CORR)=     -152.64210126     Delta=-1.46D-07
 NORM(A)=   0.10649492D+01
 Iteration Nr.  10
 **********************
 DD1Dir will call FoFMem   1 times, MxPair=        72
 NAB=    36 NAA=     0 NBB=     0.
 A-vector RMS=  8.2152161D-08 Max=  9.5226011D-07 conv= 1.00D-05.
 RLE energy=       -0.5384467412
 DE(Corr)= -0.53844672     E(CORR)=     -152.64210137     Delta=-1.15D-07
 NORM(A)=   0.10649494D+01
 Iteration Nr.  11
 **********************
 DD1Dir will call FoFMem   1 times, MxPair=        72
 NAB=    36 NAA=     0 NBB=     0.
 A-vector RMS=  2.9195309D-08 Max=  3.4450580D-07 conv= 1.00D-05.
 RLE energy=       -0.5384467956
 DE(Corr)= -0.53844678     E(CORR)=     -152.64210143     Delta=-5.47D-08
 NORM(A)=   0.10649494D+01
 CI/CC converged in   11 iterations to DelEn=-5.47D-08 Conv= 1.00D-07 ErrA1= 2.92D-08 Conv= 1.00D-05
 Wavefunction amplitudes converged. E(Corr)=     -152.64210143    
 Largest amplitude= 2.55D-02
 IPart=  1 IA=    7   11.05% done.
 IPart=  3 IA=   13   21.46% done.
 IPart=  3 IA=   19   31.21% done.
 IPart=  1 IA=   25   40.32% done.
 IPart=  1 IA=   32   50.13% done.
 IPart=  1 IA=   40   60.27% done.
 IPart=  4 IA=   49   70.30% done.
 IPart=  4 IA=   60   80.58% done.
 IPart=  1 IA=   74   90.51% done.
 Time for triples=       46.08 seconds.
 T4(CCSD)= -0.16211198D-01
 T5(CCSD)=  0.41929301D-03
 CCSD(T)= -0.15265789333D+03
 Discarding MO integrals.
 Leave Link  913 at Sat Aug 27 05:19:24 2022, MaxMem=   536870912 cpu:              68.7 elap:              17.2
 (Enter /usr/site/hpc/x86_64/glibc-2.17/broadwell/gaussian/g16_a.03/pgi-16.5/g16/l601.exe)
 Copying SCF densities to generalized density rwf, IOpCl= 0 IROHF=0.

 **********************************************************************

            Population analysis using the SCF density.

 **********************************************************************

 Orbital symmetries:
       Occupied  (A') (A') (A') (A') (A') (A') (A') (A') (A") (A")
       Virtual   (A') (A') (A') (A') (A') (A') (A') (A') (A') (A')
                 (A") (A') (A') (A") (A") (A') (A") (A") (A") (A')
                 (A') (A') (A') (A') (A') (A') (A') (A') (A") (A")
                 (A") (A') (A") (A') (A') (A') (A') (A') (A') (A')
                 (A') (A') (A") (A") (A') (A') (A") (A") (A') (A')
                 (A") (A") (A') (A') (A') (A") (A") (A') (A") (A")
                 (A') (A') (A') (A') (A") (A") (A') (A') (A') (A')
                 (A") (A") (A') (A') (A') (A') (A') (A') (A') (A')
                 (A") (A") (A') (A') (A") (A") (A") (A") (A') (A')
                 (A") (A") (A') (A') (A') (A') (A") (A") (A') (A')
                 (A') (A') (A') (A') (A') (A')
 The electronic state is 1-A'.
 Alpha  occ. eigenvalues --  -20.54370 -20.54028  -1.31667  -1.31288  -0.69093
 Alpha  occ. eigenvalues --   -0.68706  -0.55514  -0.53911  -0.48800  -0.48342
 Alpha virt. eigenvalues --    0.14125   0.16455   0.20465   0.21863   0.52771
 Alpha virt. eigenvalues --    0.57361   0.58105   0.58687   0.64105   0.76947
 Alpha virt. eigenvalues --    0.78239   0.78684   0.79374   0.81950   0.85750
 Alpha virt. eigenvalues --    0.85791   0.86096   0.96428   1.01403   1.05124
 Alpha virt. eigenvalues --    1.13605   1.17425   1.19108   1.25594   1.52300
 Alpha virt. eigenvalues --    1.52720   1.53393   1.53935   2.01866   2.02358
 Alpha virt. eigenvalues --    2.07919   2.08243   2.08302   2.16375   2.17095
 Alpha virt. eigenvalues --    2.19927   2.29839   2.35216   2.62535   2.63160
 Alpha virt. eigenvalues --    2.93841   2.95190   3.40423   3.40786   3.51053
 Alpha virt. eigenvalues --    3.51370   3.54132   3.54479   3.60538   3.61002
 Alpha virt. eigenvalues --    3.79797   3.80140   3.85648   3.86423   3.89498
 Alpha virt. eigenvalues --    3.94597   3.94939   3.95000   4.02251   4.06558
 Alpha virt. eigenvalues --    4.09370   4.09815   4.16146   4.17469   4.31196
 Alpha virt. eigenvalues --    4.31554   4.40320   4.45002   4.46667   4.47863
 Alpha virt. eigenvalues --    4.67410   4.68281   4.81842   4.85270   5.05419
 Alpha virt. eigenvalues --    5.06366   5.25151   5.26558   5.55383   5.57840
 Alpha virt. eigenvalues --    5.99137   5.99479   6.41543   6.41908   6.87348
 Alpha virt. eigenvalues --    6.87705   6.90793   6.91148   6.95729   6.96143
 Alpha virt. eigenvalues --    7.00292   7.00785   7.08739   7.11075   7.15569
 Alpha virt. eigenvalues --    7.17438   7.19513   7.19878   7.48760   7.48928
 Alpha virt. eigenvalues --    7.71392   7.73702   8.16199   8.18169  12.48554
 Alpha virt. eigenvalues --   12.59004
          Condensed to atoms (all electrons):
               1          2          3          4          5          6
     1  O    7.816886   0.327278   0.334858   0.000786   0.000079   0.001501
     2  H    0.327278   0.467188  -0.031708   0.000273  -0.000017  -0.000161
     3  H    0.334858  -0.031708   0.451648   0.000396  -0.000021  -0.000108
     4  O    0.000786   0.000273   0.000396   7.815798   0.322695   0.340333
     5  H    0.000079  -0.000017  -0.000021   0.322695   0.474598  -0.032583
     6  H    0.001501  -0.000161  -0.000108   0.340333  -0.032583   0.446680
 Mulliken charges:
               1
     1  O   -0.481388
     2  H    0.237148
     3  H    0.244935
     4  O   -0.480282
     5  H    0.235250
     6  H    0.244337
 Sum of Mulliken charges =  -0.00000
 Mulliken charges with hydrogens summed into heavy atoms:
               1
     1  O    0.000695
     4  O   -0.000695
 Electronic spatial extent (au):  <R**2>=            241.3469
 Charge=             -0.0000 electrons
 Dipole moment (field-independent basis, Debye):
    X=             -0.9437    Y=             -0.2857    Z=              0.0000  Tot=              0.9860
 Quadrupole moment (field-independent basis, Debye-Ang):
   XX=             -8.3763   YY=              0.2390   ZZ=            -14.7106
   XY=             -0.8586   XZ=              0.0000   YZ=              0.0000
 Traceless Quadrupole moment (field-independent basis, Debye-Ang):
   XX=             -0.7604   YY=              7.8550   ZZ=             -7.0946
   XY=             -0.8586   XZ=              0.0000   YZ=              0.0000
 Octapole moment (field-independent basis, Debye-Ang**2):
  XXX=             -1.6734  YYY=              0.9199  ZZZ=              0.0000  XYY=              1.1355
  XXY=             -1.8511  XXZ=              0.0000  XZZ=             -0.1147  YZZ=             -0.0449
  YYZ=              0.0000  XYZ=              0.0000
 Hexadecapole moment (field-independent basis, Debye-Ang**3):
 XXXX=            -11.1566 YYYY=           -133.7639 ZZZZ=            -11.3384 XXXY=             -2.0668
 XXXZ=              0.0000 YYYX=              7.1786 YYYZ=              0.0000 ZZZX=              0.0000
 ZZZY=              0.0000 XXYY=            -22.1352 XXZZ=             -4.5495 YYZZ=            -46.2933
 XXYZ=              0.0000 YYXZ=              0.0000 ZZXY=              0.3811
 N-N= 3.329266082222D+01 E-N=-4.282877630707D+02  KE= 1.518094929591D+02
 Symmetry A'   KE= 1.427710631831D+02
 Symmetry A"   KE= 9.038429776024D+00
 Leave Link  601 at Sat Aug 27 05:19:24 2022, MaxMem=   536870912 cpu:               0.1 elap:               0.0
 (Enter /usr/site/hpc/x86_64/glibc-2.17/broadwell/gaussian/g16_a.03/pgi-16.5/g16/l9999.exe)
 1\1\GINC-N003\SP\RCCSD(T)-FC\CC-pVTZ\H4O2\C7441284\27-Aug-2022\0\\#p C
 CSD(T)/cc-pVTZ\\H2O_H2O_1533\\0,1\O,0,0.,-0.009833,0.\H,0,-0.799571,-0
 .580965,0.\H,0,0.799571,-0.580965,0.\O,0,-0.004917,3.218148,0.\H,0,0.4
 01967,4.112549,0.\H,0,-0.982932,3.312978,0.\\Version=ES64L-G16RevA.03\
 State=1-A'\HF=-152.1036546\MP2=-152.6306406\MP3=-152.6380532\MP4D=-152
 .6472297\MP4DQ=-152.639591\MP4SDQ=-152.6427179\CCSD=-152.6421014\CCSD(
 T)=-152.6578933\RMSD=6.068e-09\PG=CS [SG(H4O2)]\\@


 IF YOU BELIEVE CERTAIN WORDS, YOU BELIEVE THEIR HIDDEN ARGUMENTS.
 WHEN YOU BELIEVE SOMETHING IS RIGHT OR WRONG, TRUE OR FALSE, 
 YOU BELIEVE THE ASSUMPTIONS IN THE WORDS WHICH EXPRESS THE ARGUMENTS.
 SUCH ASSUMPTIONS ARE OFTEN FULL OF HOLES, BUT REMAIN MOST PRECIOUS 
 TO THE CONVINCED.

                 -- THE OPEN-ENDED PROOF FROM THE PANOPLIA PROPHETICA
                    CHILDREN OF DUNE BY FRANK HERBERT
 Job cpu time:       0 days  0 hours  1 minutes 18.8 seconds.
 Elapsed time:       0 days  0 hours  0 minutes 20.1 seconds.
 File lengths (MBytes):  RWF=    352 Int=      0 D2E=      0 Chk=      8 Scr=      8
 Normal termination of Gaussian 16 at Sat Aug 27 05:19:24 2022.
