 Entering Gaussian System, Link 0=g16
 Input=H2O_H2O_843.com
 Output=H2O_H2O_843.log
 Initial command:
 /usr/site/hpc/x86_64/glibc-2.17/broadwell/gaussian/g16_a.03/pgi-16.5/g16/l1.exe "/gpfs/gpfs1/scratch/c7441284/ForceFieldModel/FittingData/Gau-3779488.inp" -scrdir="/gpfs/gpfs1/scratch/c7441284/ForceFieldModel/FittingData/"
 Entering Link 1 = /usr/site/hpc/x86_64/glibc-2.17/broadwell/gaussian/g16_a.03/pgi-16.5/g16/l1.exe PID=   3779489.
  
 Copyright (c) 1988,1990,1992,1993,1995,1998,2003,2009,2016,
            Gaussian, Inc.  All Rights Reserved.
  
 This is part of the Gaussian(R) 16 program.  It is based on
 the Gaussian(R) 09 system (copyright 2009, Gaussian, Inc.),
 the Gaussian(R) 03 system (copyright 2003, Gaussian, Inc.),
 the Gaussian(R) 98 system (copyright 1998, Gaussian, Inc.),
 the Gaussian(R) 94 system (copyright 1995, Gaussian, Inc.),
 the Gaussian 92(TM) system (copyright 1992, Gaussian, Inc.),
 the Gaussian 90(TM) system (copyright 1990, Gaussian, Inc.),
 the Gaussian 88(TM) system (copyright 1988, Gaussian, Inc.),
 the Gaussian 86(TM) system (copyright 1986, Carnegie Mellon
 University), and the Gaussian 82(TM) system (copyright 1983,
 Carnegie Mellon University). Gaussian is a federally registered
 trademark of Gaussian, Inc.
  
 This software contains proprietary and confidential information,
 including trade secrets, belonging to Gaussian, Inc.
  
 This software is provided under written license and may be
 used, copied, transmitted, or stored only in accord with that
 written license.
  
 The following legend is applicable only to US Government
 contracts under FAR:
  
                    RESTRICTED RIGHTS LEGEND
  
 Use, reproduction and disclosure by the US Government is
 subject to restrictions as set forth in subparagraphs (a)
 and (c) of the Commercial Computer Software - Restricted
 Rights clause in FAR 52.227-19.
  
 Gaussian, Inc.
 340 Quinnipiac St., Bldg. 40, Wallingford CT 06492
  
  
 ---------------------------------------------------------------
 Warning -- This program may not be used in any manner that
 competes with the business of Gaussian, Inc. or will provide
 assistance to any competitor of Gaussian, Inc.  The licensee
 of this program is prohibited from giving any competitor of
 Gaussian, Inc. access to this program.  By using this program,
 the user acknowledges that Gaussian, Inc. is engaged in the
 business of creating and licensing software in the field of
 computational chemistry and represents and warrants to the
 licensee that it is not a competitor of Gaussian, Inc. and that
 it will not use this program in any manner prohibited above.
 ---------------------------------------------------------------
  

 Cite this work as:
 Gaussian 16, Revision A.03,
 M. J. Frisch, G. W. Trucks, H. B. Schlegel, G. E. Scuseria, 
 M. A. Robb, J. R. Cheeseman, G. Scalmani, V. Barone, 
 G. A. Petersson, H. Nakatsuji, X. Li, M. Caricato, A. V. Marenich, 
 J. Bloino, B. G. Janesko, R. Gomperts, B. Mennucci, H. P. Hratchian, 
 J. V. Ortiz, A. F. Izmaylov, J. L. Sonnenberg, D. Williams-Young, 
 F. Ding, F. Lipparini, F. Egidi, J. Goings, B. Peng, A. Petrone, 
 T. Henderson, D. Ranasinghe, V. G. Zakrzewski, J. Gao, N. Rega, 
 G. Zheng, W. Liang, M. Hada, M. Ehara, K. Toyota, R. Fukuda, 
 J. Hasegawa, M. Ishida, T. Nakajima, Y. Honda, O. Kitao, H. Nakai, 
 T. Vreven, K. Throssell, J. A. Montgomery, Jr., J. E. Peralta, 
 F. Ogliaro, M. J. Bearpark, J. J. Heyd, E. N. Brothers, K. N. Kudin, 
 V. N. Staroverov, T. A. Keith, R. Kobayashi, J. Normand, 
 K. Raghavachari, A. P. Rendell, J. C. Burant, S. S. Iyengar, 
 J. Tomasi, M. Cossi, J. M. Millam, M. Klene, C. Adamo, R. Cammi, 
 J. W. Ochterski, R. L. Martin, K. Morokuma, O. Farkas, 
 J. B. Foresman, and D. J. Fox, Gaussian, Inc., Wallingford CT, 2016.
 
 ******************************************
 Gaussian 16:  ES64L-G16RevA.03 25-Dec-2016
                26-Aug-2022 
 ******************************************
 %NProcShared=4
 Will use up to    4 processors via shared memory.
 %Mem=4GB
 %Chk=H2O_H2O_843.chk
 ------------------
 #p CCSD(T)/cc-pVTZ
 ------------------
 1/38=1,172=1/1;
 2/12=2,17=6,18=5,40=1/2;
 3/5=16,6=1,11=9,25=1,30=1/1,2,3;
 4//1;
 5/5=2,38=5/2;
 8/6=4,9=120000,10=1/1,4;
 9/5=7,14=2/13;
 6/7=2,8=2,9=2,10=2/1;
 99/5=1,9=1/99;
 Leave Link    1 at Fri Aug 26 20:29:39 2022, MaxMem=   536870912 cpu:               0.5 elap:               0.2
 (Enter /usr/site/hpc/x86_64/glibc-2.17/broadwell/gaussian/g16_a.03/pgi-16.5/g16/l101.exe)
 -----------
 H2O_H2O_843
 -----------
 Symbolic Z-matrix:
 Charge =  0 Multiplicity = 1
 O                     0.       -0.00983   0. 
 H                    -0.79957  -0.58097   0. 
 H                     0.79957  -0.58097   0. 
 O                    -0.00909   2.46883   0. 
 H                    -0.23076   3.4261    0. 
 H                    -0.84273   1.94868   0. 
 
 ITRead=  0  0  0  0  0  0
 MicOpt= -1 -1 -1 -1 -1 -1
 NAtoms=      6 NQM=        6 NQMF=       0 NMMI=      0 NMMIF=      0
                NMic=       0 NMicF=      0.
                    Isotopes and Nuclear Properties:
 (Nuclear quadrupole moments (NQMom) in fm**2, nuclear magnetic moments (NMagM)
  in nuclear magnetons)

  Atom         1           2           3           4           5           6
 IAtWgt=          16           1           1          16           1           1
 AtmWgt=  15.9949146   1.0078250   1.0078250  15.9949146   1.0078250   1.0078250
 NucSpn=           0           1           1           0           1           1
 AtZEff=  -0.0000000  -0.0000000  -0.0000000  -0.0000000  -0.0000000  -0.0000000
 NQMom=    0.0000000   0.0000000   0.0000000   0.0000000   0.0000000   0.0000000
 NMagM=    0.0000000   2.7928460   2.7928460   0.0000000   2.7928460   2.7928460
 AtZNuc=   8.0000000   1.0000000   1.0000000   8.0000000   1.0000000   1.0000000
 Leave Link  101 at Fri Aug 26 20:29:39 2022, MaxMem=   536870912 cpu:               0.4 elap:               0.1
 (Enter /usr/site/hpc/x86_64/glibc-2.17/broadwell/gaussian/g16_a.03/pgi-16.5/g16/l202.exe)
                          Input orientation:                          
 ---------------------------------------------------------------------
 Center     Atomic      Atomic             Coordinates (Angstroms)
 Number     Number       Type             X           Y           Z
 ---------------------------------------------------------------------
      1          8           0        0.000000   -0.009833    0.000000
      2          1           0       -0.799571   -0.580965    0.000000
      3          1           0        0.799571   -0.580965    0.000000
      4          8           0       -0.009085    2.468825    0.000000
      5          1           0       -0.230759    3.426095    0.000000
      6          1           0       -0.842725    1.948680    0.000000
 ---------------------------------------------------------------------
                    Distance matrix (angstroms):
                    1          2          3          4          5
     1  O    0.000000
     2  H    0.982601   0.000000
     3  H    0.982601   1.599142   0.000000
     4  O    2.478675   3.150569   3.155177   0.000000
     5  H    3.443668   4.047231   4.137404   0.982601   0.000000
     6  H    2.132125   2.530013   3.015997   0.982602   1.599143
                    6
     6  H    0.000000
 Stoichiometry    H4O2
 Framework group  CS[SG(H4O2)]
 Deg. of freedom     9
 Full point group                 CS      NOp   2
 Largest Abelian subgroup         CS      NOp   2
 Largest concise Abelian subgroup C1      NOp   1
                         Standard orientation:                         
 ---------------------------------------------------------------------
 Center     Atomic      Atomic             Coordinates (Angstroms)
 Number     Number       Type             X           Y           Z
 ---------------------------------------------------------------------
      1          8           0        0.052895   -1.204274    0.000000
      2          1           0       -0.748764   -1.772472    0.000000
      3          1           0        0.850367   -1.778333    0.000000
      4          8           0        0.052895    1.274401    0.000000
      5          1           0       -0.165269    2.232477    0.000000
      6          1           0       -0.782646    0.757315    0.000000
 ---------------------------------------------------------------------
 Rotational constants (GHZ):         254.2384371           8.2657995           8.0055239
 Leave Link  202 at Fri Aug 26 20:29:39 2022, MaxMem=   536870912 cpu:               0.1 elap:               0.0
 (Enter /usr/site/hpc/x86_64/glibc-2.17/broadwell/gaussian/g16_a.03/pgi-16.5/g16/l301.exe)
 Standard basis: CC-pVTZ (5D, 7F)
 Ernie: Thresh=  0.10000D-02 Tol=  0.10000D-05 Strict=F.
 Ernie:  6 primitive shells out of 84 were deleted.
 There are    92 symmetry adapted cartesian basis functions of A'  symmetry.
 There are    38 symmetry adapted cartesian basis functions of A"  symmetry.
 There are    80 symmetry adapted basis functions of A'  symmetry.
 There are    36 symmetry adapted basis functions of A"  symmetry.
   116 basis functions,   172 primitive gaussians,   130 cartesian basis functions
    10 alpha electrons       10 beta electrons
       nuclear repulsion energy        38.1023990209 Hartrees.
 IExCor=    0 DFT=F Ex=HF Corr=None ExCW=0 ScaHFX=  1.000000
 ScaDFX=  1.000000  1.000000  1.000000  1.000000 ScalE2=  1.000000  1.000000
 IRadAn=      5 IRanWt=     -1 IRanGd=            0 ICorTp=0 IEmpDi=  4
 NAtoms=    6 NActive=    6 NUniq=    6 SFac= 1.00D+00 NAtFMM=   60 NAOKFM=F Big=F
 Integral buffers will be    131072 words long.
 Raffenetti 1 integral format.
 Two-electron integral symmetry is turned on.
 Leave Link  301 at Fri Aug 26 20:29:39 2022, MaxMem=   536870912 cpu:               0.2 elap:               0.1
 (Enter /usr/site/hpc/x86_64/glibc-2.17/broadwell/gaussian/g16_a.03/pgi-16.5/g16/l302.exe)
 NPDir=0 NMtPBC=     1 NCelOv=     1 NCel=       1 NClECP=     1 NCelD=      1
         NCelK=      1 NCelE2=     1 NClLst=     1 CellRange=     0.0.
 One-electron integrals computed using PRISM.
 One-electron integral symmetry used in STVInt
 NBasis=   116 RedAO= T EigKep=  2.08D-03  NBF=    80    36
 NBsUse=   116 1.00D-06 EigRej= -1.00D+00 NBFU=    80    36
 Leave Link  302 at Fri Aug 26 20:29:39 2022, MaxMem=   536870912 cpu:               0.4 elap:               0.1
 (Enter /usr/site/hpc/x86_64/glibc-2.17/broadwell/gaussian/g16_a.03/pgi-16.5/g16/l303.exe)
 DipDrv:  MaxL=1.
 Leave Link  303 at Fri Aug 26 20:29:39 2022, MaxMem=   536870912 cpu:               0.1 elap:               0.0
 (Enter /usr/site/hpc/x86_64/glibc-2.17/broadwell/gaussian/g16_a.03/pgi-16.5/g16/l401.exe)
 ExpMin= 1.03D-01 ExpMax= 1.53D+04 ExpMxC= 5.22D+02 IAcc=3 IRadAn=         5 AccDes= 0.00D+00
 Harris functional with IExCor=  205 and IRadAn=       5 diagonalized for initial guess.
 HarFok:  IExCor=  205 AccDes= 0.00D+00 IRadAn=         5 IDoV= 1 UseB2=F ITyADJ=14
 ICtDFT=  3500011 ScaDFX=  1.000000  1.000000  1.000000  1.000000
 FoFCou: FMM=F IPFlag=           0 FMFlag=      100000 FMFlg1=           0
         NFxFlg=           0 DoJE=T BraDBF=F KetDBF=T FulRan=T
         wScrn=  0.000000 ICntrl=       500 IOpCl=  0 I1Cent=   200000004 NGrid=           0
         NMat0=    1 NMatS0=      1 NMatT0=    0 NMatD0=    1 NMtDS0=    0 NMtDT0=    0
 Petite list used in FoFCou.
 Harris En= -152.299963198952    
 JPrj=0 DoOrth=F DoCkMO=F.
 Initial guess orbital symmetries:
       Occupied  (A') (A') (A') (A') (A') (A') (A') (A') (A") (A")
       Virtual   (A') (A') (A') (A') (A') (A') (A') (A') (A') (A")
                 (A') (A") (A') (A') (A") (A") (A') (A") (A') (A")
                 (A') (A') (A') (A') (A') (A') (A') (A') (A") (A")
                 (A") (A") (A') (A') (A') (A') (A') (A') (A') (A')
                 (A') (A') (A") (A") (A') (A") (A') (A") (A") (A")
                 (A') (A') (A') (A') (A') (A") (A") (A') (A') (A')
                 (A") (A') (A") (A') (A") (A") (A') (A') (A') (A")
                 (A") (A') (A') (A') (A') (A') (A') (A') (A') (A')
                 (A") (A") (A') (A') (A") (A") (A") (A") (A') (A")
                 (A") (A') (A') (A') (A') (A') (A") (A") (A') (A')
                 (A') (A') (A') (A') (A') (A')
 The electronic state of the initial guess is 1-A'.
 Leave Link  401 at Fri Aug 26 20:29:39 2022, MaxMem=   536870912 cpu:               0.9 elap:               0.3
 (Enter /usr/site/hpc/x86_64/glibc-2.17/broadwell/gaussian/g16_a.03/pgi-16.5/g16/l502.exe)
 Keep R1 ints in memory in symmetry-blocked form, NReq=34823457.
 FoFCou: FMM=F IPFlag=           0 FMFlag=           0 FMFlg1=           0
         NFxFlg=           0 DoJE=F BraDBF=F KetDBF=F FulRan=T
         wScrn=  0.000000 ICntrl=       600 IOpCl=  0 I1Cent=           0 NGrid=           0
         NMat0=    1 NMatS0=   6786 NMatT0=    0 NMatD0=    1 NMtDS0=    0 NMtDT0=    0
 Petite list used in FoFCou.
 Closed shell SCF:
 Using DIIS extrapolation, IDIIS=  1040.
 NGot=   536870912 LenX=   525040673 LenY=   525023332
 Requested convergence on RMS density matrix=1.00D-08 within 128 cycles.
 Requested convergence on MAX density matrix=1.00D-06.
 Requested convergence on             energy=1.00D-06.
 No special actions if energy rises.

 Cycle   1  Pass 1  IDiag  1:
 E= -151.915951407894    
 DIIS: error= 6.45D-02 at cycle   1 NSaved=   1.
 NSaved= 1 IEnMin= 1 EnMin= -151.915951407894     IErMin= 1 ErrMin= 6.45D-02
 ErrMax= 6.45D-02  0.00D+00 EMaxC= 1.00D-01 BMatC= 4.01D-01 BMatP= 4.01D-01
 IDIUse=3 WtCom= 3.55D-01 WtEn= 6.45D-01
 Coeff-Com:  0.100D+01
 Coeff-En:   0.100D+01
 Coeff:      0.100D+01
 Gap=     0.488 Goal=   None    Shift=    0.000
 GapD=    0.488 DampG=2.000 DampE=0.500 DampFc=1.0000 IDamp=-1.
 RMSDP=2.90D-03 MaxDP=7.56D-02              OVMax= 1.29D-01

 Cycle   2  Pass 1  IDiag  1:
 E= -152.027775308737     Delta-E=       -0.111823900843 Rises=F Damp=F
 DIIS: error= 4.04D-02 at cycle   2 NSaved=   2.
 NSaved= 2 IEnMin= 2 EnMin= -152.027775308737     IErMin= 2 ErrMin= 4.04D-02
 ErrMax= 4.04D-02  0.00D+00 EMaxC= 1.00D-01 BMatC= 1.15D-01 BMatP= 4.01D-01
 IDIUse=3 WtCom= 5.96D-01 WtEn= 4.04D-01
 Coeff-Com:  0.321D+00 0.679D+00
 Coeff-En:   0.171D+00 0.829D+00
 Coeff:      0.261D+00 0.739D+00
 Gap=     0.629 Goal=   None    Shift=    0.000
 RMSDP=1.58D-03 MaxDP=4.49D-02 DE=-1.12D-01 OVMax= 6.20D-02

 Cycle   3  Pass 1  IDiag  1:
 E= -152.094610589474     Delta-E=       -0.066835280737 Rises=F Damp=F
 DIIS: error= 8.83D-03 at cycle   3 NSaved=   3.
 NSaved= 3 IEnMin= 3 EnMin= -152.094610589474     IErMin= 3 ErrMin= 8.83D-03
 ErrMax= 8.83D-03  0.00D+00 EMaxC= 1.00D-01 BMatC= 6.09D-03 BMatP= 1.15D-01
 IDIUse=3 WtCom= 9.12D-01 WtEn= 8.83D-02
 Coeff-Com: -0.317D-01 0.154D+00 0.877D+00
 Coeff-En:   0.000D+00 0.000D+00 0.100D+01
 Coeff:     -0.289D-01 0.141D+00 0.888D+00
 Gap=     0.600 Goal=   None    Shift=    0.000
 RMSDP=2.73D-04 MaxDP=6.71D-03 DE=-6.68D-02 OVMax= 1.35D-02

 Cycle   4  Pass 1  IDiag  1:
 E= -152.098453656335     Delta-E=       -0.003843066861 Rises=F Damp=F
 DIIS: error= 8.53D-04 at cycle   4 NSaved=   4.
 NSaved= 4 IEnMin= 4 EnMin= -152.098453656335     IErMin= 4 ErrMin= 8.53D-04
 ErrMax= 8.53D-04  0.00D+00 EMaxC= 1.00D-01 BMatC= 3.93D-05 BMatP= 6.09D-03
 IDIUse=3 WtCom= 9.91D-01 WtEn= 8.53D-03
 Coeff-Com:  0.721D-02-0.620D-01-0.247D+00 0.130D+01
 Coeff-En:   0.000D+00 0.000D+00 0.000D+00 0.100D+01
 Coeff:      0.715D-02-0.615D-01-0.245D+00 0.130D+01
 Gap=     0.604 Goal=   None    Shift=    0.000
 RMSDP=5.51D-05 MaxDP=1.10D-03 DE=-3.84D-03 OVMax= 3.00D-03

 Cycle   5  Pass 1  IDiag  1:
 E= -152.098509337092     Delta-E=       -0.000055680757 Rises=F Damp=F
 DIIS: error= 1.96D-04 at cycle   5 NSaved=   5.
 NSaved= 5 IEnMin= 5 EnMin= -152.098509337092     IErMin= 5 ErrMin= 1.96D-04
 ErrMax= 1.96D-04  0.00D+00 EMaxC= 1.00D-01 BMatC= 1.46D-06 BMatP= 3.93D-05
 IDIUse=3 WtCom= 9.98D-01 WtEn= 1.96D-03
 Coeff-Com:  0.636D-03-0.513D-03-0.513D-02-0.184D+00 0.119D+01
 Coeff-En:   0.000D+00 0.000D+00 0.000D+00 0.000D+00 0.100D+01
 Coeff:      0.634D-03-0.512D-03-0.512D-02-0.184D+00 0.119D+01
 Gap=     0.604 Goal=   None    Shift=    0.000
 RMSDP=1.42D-05 MaxDP=2.85D-04 DE=-5.57D-05 OVMax= 7.86D-04

 Cycle   6  Pass 1  IDiag  1:
 E= -152.098512219380     Delta-E=       -0.000002882288 Rises=F Damp=F
 DIIS: error= 3.32D-05 at cycle   6 NSaved=   6.
 NSaved= 6 IEnMin= 6 EnMin= -152.098512219380     IErMin= 6 ErrMin= 3.32D-05
 ErrMax= 3.32D-05  0.00D+00 EMaxC= 1.00D-01 BMatC= 5.01D-08 BMatP= 1.46D-06
 IDIUse=1 WtCom= 1.00D+00 WtEn= 0.00D+00
 Coeff-Com: -0.259D-03 0.198D-02 0.801D-02-0.342D-01-0.106D+00 0.113D+01
 Coeff:     -0.259D-03 0.198D-02 0.801D-02-0.342D-01-0.106D+00 0.113D+01
 Gap=     0.604 Goal=   None    Shift=    0.000
 RMSDP=3.56D-06 MaxDP=1.07D-04 DE=-2.88D-06 OVMax= 1.59D-04

 Cycle   7  Pass 1  IDiag  1:
 E= -152.098512334819     Delta-E=       -0.000000115439 Rises=F Damp=F
 DIIS: error= 8.26D-06 at cycle   7 NSaved=   7.
 NSaved= 7 IEnMin= 7 EnMin= -152.098512334819     IErMin= 7 ErrMin= 8.26D-06
 ErrMax= 8.26D-06  0.00D+00 EMaxC= 1.00D-01 BMatC= 7.71D-09 BMatP= 5.01D-08
 IDIUse=1 WtCom= 1.00D+00 WtEn= 0.00D+00
 Coeff-Com: -0.989D-04 0.377D-03 0.168D-02 0.109D-01-0.127D+00 0.256D+00
 Coeff-Com:  0.858D+00
 Coeff:     -0.989D-04 0.377D-03 0.168D-02 0.109D-01-0.127D+00 0.256D+00
 Coeff:      0.858D+00
 Gap=     0.604 Goal=   None    Shift=    0.000
 RMSDP=7.48D-07 MaxDP=2.16D-05 DE=-1.15D-07 OVMax= 4.07D-05

 Cycle   8  Pass 1  IDiag  1:
 E= -152.098512343885     Delta-E=       -0.000000009066 Rises=F Damp=F
 DIIS: error= 2.64D-06 at cycle   8 NSaved=   8.
 NSaved= 8 IEnMin= 8 EnMin= -152.098512343885     IErMin= 8 ErrMin= 2.64D-06
 ErrMax= 2.64D-06  0.00D+00 EMaxC= 1.00D-01 BMatC= 6.18D-10 BMatP= 7.71D-09
 IDIUse=1 WtCom= 1.00D+00 WtEn= 0.00D+00
 Coeff-Com:  0.245D-04-0.243D-03-0.970D-03 0.661D-02-0.148D-02-0.106D+00
 Coeff-Com:  0.703D-01 0.103D+01
 Coeff:      0.245D-04-0.243D-03-0.970D-03 0.661D-02-0.148D-02-0.106D+00
 Coeff:      0.703D-01 0.103D+01
 Gap=     0.604 Goal=   None    Shift=    0.000
 RMSDP=2.34D-07 MaxDP=5.61D-06 DE=-9.07D-09 OVMax= 1.41D-05

 Cycle   9  Pass 1  IDiag  1:
 E= -152.098512344887     Delta-E=       -0.000000001001 Rises=F Damp=F
 DIIS: error= 1.00D-06 at cycle   9 NSaved=   9.
 NSaved= 9 IEnMin= 9 EnMin= -152.098512344887     IErMin= 9 ErrMin= 1.00D-06
 ErrMax= 1.00D-06  0.00D+00 EMaxC= 1.00D-01 BMatC= 3.59D-11 BMatP= 6.18D-10
 IDIUse=1 WtCom= 1.00D+00 WtEn= 0.00D+00
 Coeff-Com:  0.308D-05 0.178D-04 0.823D-04-0.242D-02 0.107D-01 0.232D-02
 Coeff-Com: -0.797D-01-0.204D+00 0.127D+01
 Coeff:      0.308D-05 0.178D-04 0.823D-04-0.242D-02 0.107D-01 0.232D-02
 Coeff:     -0.797D-01-0.204D+00 0.127D+01
 Gap=     0.604 Goal=   None    Shift=    0.000
 RMSDP=6.93D-08 MaxDP=1.40D-06 DE=-1.00D-09 OVMax= 3.79D-06

 Cycle  10  Pass 1  IDiag  1:
 E= -152.098512344965     Delta-E=       -0.000000000078 Rises=F Damp=F
 DIIS: error= 1.38D-07 at cycle  10 NSaved=  10.
 NSaved=10 IEnMin=10 EnMin= -152.098512344965     IErMin=10 ErrMin= 1.38D-07
 ErrMax= 1.38D-07  0.00D+00 EMaxC= 1.00D-01 BMatC= 9.37D-13 BMatP= 3.59D-11
 IDIUse=1 WtCom= 1.00D+00 WtEn= 0.00D+00
 Coeff-Com: -0.105D-05 0.417D-05 0.130D-04 0.152D-03-0.110D-02 0.621D-03
 Coeff-Com:  0.112D-01 0.164D-01-0.258D+00 0.123D+01
 Coeff:     -0.105D-05 0.417D-05 0.130D-04 0.152D-03-0.110D-02 0.621D-03
 Coeff:      0.112D-01 0.164D-01-0.258D+00 0.123D+01
 Gap=     0.604 Goal=   None    Shift=    0.000
 RMSDP=1.07D-08 MaxDP=1.82D-07 DE=-7.82D-11 OVMax= 6.64D-07

 Cycle  11  Pass 1  IDiag  1:
 E= -152.098512344967     Delta-E=       -0.000000000003 Rises=F Damp=F
 DIIS: error= 2.39D-08 at cycle  11 NSaved=  11.
 NSaved=11 IEnMin=11 EnMin= -152.098512344967     IErMin=11 ErrMin= 2.39D-08
 ErrMax= 2.39D-08  0.00D+00 EMaxC= 1.00D-01 BMatC= 4.09D-14 BMatP= 9.37D-13
 IDIUse=1 WtCom= 1.00D+00 WtEn= 0.00D+00
 Coeff-Com:  0.293D-07-0.152D-05-0.648D-05 0.876D-04-0.280D-03-0.441D-03
 Coeff-Com:  0.223D-02 0.906D-02-0.303D-01-0.166D+00 0.119D+01
 Coeff:      0.293D-07-0.152D-05-0.648D-05 0.876D-04-0.280D-03-0.441D-03
 Coeff:      0.223D-02 0.906D-02-0.303D-01-0.166D+00 0.119D+01
 Gap=     0.604 Goal=   None    Shift=    0.000
 RMSDP=3.63D-09 MaxDP=1.15D-07 DE=-2.61D-12 OVMax= 1.71D-07

 SCF Done:  E(RHF) =  -152.098512345     A.U. after   11 cycles
            NFock= 11  Conv=0.36D-08     -V/T= 2.0015
 KE= 1.518632712810D+02 PE=-4.379580917158D+02 EE= 9.589390906898D+01
 Leave Link  502 at Fri Aug 26 20:29:41 2022, MaxMem=   536870912 cpu:               5.2 elap:               1.4
 (Enter /usr/site/hpc/x86_64/glibc-2.17/broadwell/gaussian/g16_a.03/pgi-16.5/g16/l801.exe)
 Windowed orbitals will be sorted by symmetry type.
 ExpMin= 1.03D-01 ExpMax= 1.53D+04 ExpMxC= 5.22D+02 IAcc=3 IRadAn=         5 AccDes= 0.00D+00
 HarFok:  IExCor=  205 AccDes= 0.00D+00 IRadAn=         5 IDoV=-2 UseB2=F ITyADJ=14
 ICtDFT= 12500011 ScaDFX=  1.000000  1.000000  1.000000  1.000000
 Largest valence mixing into a core orbital is  1.12D-04
 Largest core mixing into a valence orbital is  1.81D-05
 Range of M.O.s used for correlation:     3   116
 NBasis=   116 NAE=    10 NBE=    10 NFC=     2 NFV=     0
 NROrb=    114 NOA=     8 NOB=     8 NVA=   106 NVB=   106
 Leave Link  801 at Fri Aug 26 20:29:41 2022, MaxMem=   536870912 cpu:               0.4 elap:               0.1
 (Enter /usr/site/hpc/x86_64/glibc-2.17/broadwell/gaussian/g16_a.03/pgi-16.5/g16/l804.exe)
 Closed-shell transformation, MDV=   536870912 ITran=4 ISComp=2.
 Unit  1 TFree=        834515 TCopy=        406125.
 Semi-Direct transformation.
 ModeAB=           2 MOrb=             8 LenV=     536361991
 LASXX=      2873146 LTotXX=     2873146 LenRXX=     2873146
 LTotAB=     2958132 MaxLAS=     7765680 LenRXY=     7765680
 NonZer=     7842288 LenScr=    12058624 LnRSAI=           0
 LnScr1=           0 LExtra=           0 Total=     22697450
 MaxDsk=          -1 SrtSym=           F ITran=            4
 DoSDTr:  NPSUse=  4
 JobTyp=0 Pass  1:  I=   1 to   8.
 (rs|ai) integrals will be sorted in core.
 Complete sort for first half transformation.
 First half transformation complete.
 Complete sort for second half transformation.
 Second half transformation complete.
 Spin components of T(2) and E(2):
     alpha-alpha T2 =       0.1586410927D-01 E2=     -0.6463046121D-01
     alpha-beta  T2 =       0.9273255279D-01 E2=     -0.4004310295D+00
     beta-beta   T2 =       0.1586410927D-01 E2=     -0.6463046121D-01
 ANorm=    0.1060405946D+01
 E2 =    -0.5296919519D+00 EUMP2 =    -0.15262820429686D+03
 Leave Link  804 at Fri Aug 26 20:29:42 2022, MaxMem=   536870912 cpu:               5.6 elap:               1.4
 (Enter /usr/site/hpc/x86_64/glibc-2.17/broadwell/gaussian/g16_a.03/pgi-16.5/g16/l913.exe)
 CIDS:  MDV=   536870912.
 Frozen-core window:  NFC=   2 NFV=   0.
 IFCWin=0 IBDFC=1 NFBD=     0     0 NFCmp=     0     0 NFFFC=     0     0
 Using DD3R+UMP44R for 1st iteration.
 Using DD4RQ for 2nd and later iterations.
 Keep R2 and R3 ints in memory in symmetry-blocked form, NReq=35357534.
 FoFCou: FMM=F IPFlag=           0 FMFlag=           0 FMFlg1=           0
         NFxFlg=           0 DoJE=F BraDBF=F KetDBF=F FulRan=T
         wScrn=  0.000000 ICntrl=       600 IOpCl=  0 I1Cent=           0 NGrid=           0
         NMat0=    1 NMatS0=   6786 NMatT0=    0 NMatD0=    1 NMtDS0=    0 NMtDT0=    0
 Petite list used in FoFCou.
 CIDS: In Core Option IDoMem=           1.
 CCSD(T)
 =======
 Iterations=  50 Convergence= 0.100D-06
 Produce multiple copies of IABC intergrals
 Iteration Nr.   1
 **********************
 DD1Dir will call FoFMem   1 times, MxPair=        72
 NAB=    36 NAA=     0 NBB=     0.
 MP4(R+Q)=  0.78446242D-02
 Maximum subspace dimension=  5
 A-vector RMS=  1.8776986D-03 Max=  7.7337572D-03 conv= 1.00D-05.
 RLE energy=       -0.5287825027
 E3=       -0.70039457D-02        EUMP3=      -0.15263520824D+03
 E4(DQ)=   -0.13690658D-02        UMP4(DQ)=   -0.15263657731D+03
 E4(SDQ)=  -0.46034345D-02        UMP4(SDQ)=  -0.15263981168D+03
 VARIATIONAL ENERGIES WITH THE FIRST-ORDER WAVEFUNCTION:
 DE(Corr)= -0.52878095     E(Corr)=     -152.62729329    
 NORM(A)=   0.10605671D+01
 Iteration Nr.   2
 **********************
 DD1Dir will call FoFMem   1 times, MxPair=        72
 NAB=    36 NAA=     0 NBB=     0.
 A-vector RMS=  2.1014023D-04 Max=  1.3742216D-03 conv= 1.00D-05.
 RLE energy=       -0.5400439809
 DE(Corr)= -0.53893873     E(CORR)=     -152.63745108     Delta=-1.02D-02
 NORM(A)=   0.10644183D+01
 Iteration Nr.   3
 **********************
 DD1Dir will call FoFMem   1 times, MxPair=        72
 NAB=    36 NAA=     0 NBB=     0.
 A-vector RMS=  1.7928690D-04 Max=  1.4991971D-03 conv= 1.00D-05.
 RLE energy=       -0.5405529843
 DE(Corr)= -0.53994133     E(CORR)=     -152.63845367     Delta=-1.00D-03
 NORM(A)=   0.10650795D+01
 Iteration Nr.   4
 **********************
 DD1Dir will call FoFMem   1 times, MxPair=        72
 NAB=    36 NAA=     0 NBB=     0.
 A-vector RMS=  3.5873527D-05 Max=  1.9817677D-04 conv= 1.00D-05.
 RLE energy=       -0.5406315629
 DE(Corr)= -0.54059612     E(CORR)=     -152.63910846     Delta=-6.55D-04
 NORM(A)=   0.10652042D+01
 Iteration Nr.   5
 **********************
 DD1Dir will call FoFMem   1 times, MxPair=        72
 NAB=    36 NAA=     0 NBB=     0.
 A-vector RMS=  2.3391948D-05 Max=  2.4818672D-04 conv= 1.00D-05.
 RLE energy=       -0.5406472033
 DE(Corr)= -0.54063851     E(CORR)=     -152.63915085     Delta=-4.24D-05
 NORM(A)=   0.10652217D+01
 Iteration Nr.   6
 **********************
 DD1Dir will call FoFMem   1 times, MxPair=        72
 NAB=    36 NAA=     0 NBB=     0.
 A-vector RMS=  7.0990804D-06 Max=  6.6413114D-05 conv= 1.00D-05.
 RLE energy=       -0.5406381090
 DE(Corr)= -0.54064273     E(CORR)=     -152.63915508     Delta=-4.22D-06
 NORM(A)=   0.10652221D+01
 Iteration Nr.   7
 **********************
 DD1Dir will call FoFMem   1 times, MxPair=        72
 NAB=    36 NAA=     0 NBB=     0.
 A-vector RMS=  2.9424481D-06 Max=  3.0039966D-05 conv= 1.00D-05.
 RLE energy=       -0.5406416625
 DE(Corr)= -0.54064293     E(CORR)=     -152.63915527     Delta=-1.96D-07
 NORM(A)=   0.10652241D+01
 Iteration Nr.   8
 **********************
 DD1Dir will call FoFMem   1 times, MxPair=        72
 NAB=    36 NAA=     0 NBB=     0.
 A-vector RMS=  1.2085657D-06 Max=  1.2401028D-05 conv= 1.00D-05.
 RLE energy=       -0.5406420948
 DE(Corr)= -0.54064237     E(CORR)=     -152.63915472     Delta= 5.55D-07
 NORM(A)=   0.10652246D+01
 Iteration Nr.   9
 **********************
 DD1Dir will call FoFMem   1 times, MxPair=        72
 NAB=    36 NAA=     0 NBB=     0.
 A-vector RMS=  2.4337650D-07 Max=  2.4191012D-06 conv= 1.00D-05.
 RLE energy=       -0.5406423827
 DE(Corr)= -0.54064245     E(CORR)=     -152.63915479     Delta=-7.81D-08
 NORM(A)=   0.10652251D+01
 CI/CC converged in    9 iterations to DelEn=-7.81D-08 Conv= 1.00D-07 ErrA1= 2.43D-07 Conv= 1.00D-05
 Wavefunction amplitudes converged. E(Corr)=     -152.63915479    
 Largest amplitude= 2.82D-02
 IPart=  3 IA=    7   11.05% done.
 IPart=  2 IA=   13   21.46% done.
 IPart=  4 IA=   19   31.21% done.
 IPart=  2 IA=   25   40.32% done.
 IPart=  2 IA=   32   50.13% done.
 IPart=  4 IA=   40   60.27% done.
 IPart=  1 IA=   49   70.30% done.
 IPart=  3 IA=   60   80.58% done.
 IPart=  4 IA=   74   90.51% done.
 Time for triples=       66.90 seconds.
 T4(CCSD)= -0.16587138D-01
 T5(CCSD)=  0.44242919D-03
 CCSD(T)= -0.15265529950D+03
 Discarding MO integrals.
 Leave Link  913 at Fri Aug 26 20:30:07 2022, MaxMem=   536870912 cpu:              96.0 elap:              24.3
 (Enter /usr/site/hpc/x86_64/glibc-2.17/broadwell/gaussian/g16_a.03/pgi-16.5/g16/l601.exe)
 Copying SCF densities to generalized density rwf, IOpCl= 0 IROHF=0.

 **********************************************************************

            Population analysis using the SCF density.

 **********************************************************************

 Orbital symmetries:
       Occupied  (A') (A') (A') (A') (A') (A') (A') (A') (A") (A")
       Virtual   (A') (A') (A') (A') (A') (A') (A') (A') (A') (A")
                 (A') (A') (A") (A') (A") (A") (A') (A") (A') (A")
                 (A') (A') (A') (A') (A') (A') (A') (A') (A") (A")
                 (A") (A") (A') (A') (A') (A') (A') (A') (A') (A')
                 (A') (A') (A") (A") (A') (A") (A') (A") (A') (A')
                 (A") (A") (A') (A') (A") (A") (A') (A') (A") (A")
                 (A') (A') (A') (A') (A") (A") (A') (A') (A') (A')
                 (A") (A") (A') (A') (A') (A') (A') (A') (A') (A')
                 (A") (A") (A') (A') (A") (A") (A") (A") (A') (A")
                 (A") (A') (A') (A') (A") (A') (A") (A') (A') (A')
                 (A') (A') (A') (A') (A') (A')
 The electronic state is 1-A'.
 Alpha  occ. eigenvalues --  -20.55368 -20.52604  -1.33113  -1.29878  -0.70503
 Alpha  occ. eigenvalues --   -0.68027  -0.56078  -0.52678  -0.50205  -0.46896
 Alpha virt. eigenvalues --    0.13549   0.17751   0.19840   0.24390   0.52370
 Alpha virt. eigenvalues --    0.57079   0.59464   0.59997   0.71210   0.74560
 Alpha virt. eigenvalues --    0.77337   0.82884   0.82926   0.84486   0.84615
 Alpha virt. eigenvalues --    0.87352   0.92255   0.99381   1.04777   1.04950
 Alpha virt. eigenvalues --    1.15383   1.17604   1.35160   1.41873   1.51517
 Alpha virt. eigenvalues --    1.53205   1.55566   1.60646   1.99975   2.03031
 Alpha virt. eigenvalues --    2.06913   2.10581   2.12692   2.16894   2.21391
 Alpha virt. eigenvalues --    2.27973   2.32047   2.36957   2.61994   2.73780
 Alpha virt. eigenvalues --    2.93834   3.01601   3.39139   3.42376   3.49270
 Alpha virt. eigenvalues --    3.53010   3.53158   3.56499   3.59356   3.68378
 Alpha virt. eigenvalues --    3.78238   3.82023   3.85614   3.89637   3.93283
 Alpha virt. eigenvalues --    3.96215   3.96464   4.03165   4.04361   4.07786
 Alpha virt. eigenvalues --    4.08050   4.14459   4.18896   4.25771   4.29480
 Alpha virt. eigenvalues --    4.34267   4.44285   4.46055   4.50647   4.59058
 Alpha virt. eigenvalues --    4.66069   4.71423   4.85806   4.89809   5.04742
 Alpha virt. eigenvalues --    5.09814   5.26816   5.33906   5.56799   5.60104
 Alpha virt. eigenvalues --    5.97903   6.00814   6.40283   6.43894   6.86231
 Alpha virt. eigenvalues --    6.88859   6.89774   6.92640   6.94430   6.98913
 Alpha virt. eigenvalues --    7.02484   7.05213   7.08308   7.10354   7.18127
 Alpha virt. eigenvalues --    7.18911   7.21602   7.21719   7.46646   7.58554
 Alpha virt. eigenvalues --    7.72641   7.76206   8.16667   8.27634  12.59234
 Alpha virt. eigenvalues --   12.94317
          Condensed to atoms (all electrons):
               1          2          3          4          5          6
     1  O    7.844860   0.303307   0.330982  -0.028459   0.001021   0.015155
     2  H    0.303307   0.491001  -0.023038   0.001707  -0.000151  -0.002724
     3  H    0.330982  -0.023038   0.442644   0.002576  -0.000139  -0.001610
     4  O   -0.028459   0.001707   0.002576   7.858614   0.313115   0.331481
     5  H    0.001021  -0.000151  -0.000139   0.313115   0.499258  -0.027318
     6  H    0.015155  -0.002724  -0.001610   0.331481  -0.027318   0.431809
 Mulliken charges:
               1
     1  O   -0.466867
     2  H    0.229897
     3  H    0.248585
     4  O   -0.479035
     5  H    0.214214
     6  H    0.253206
 Sum of Mulliken charges =  -0.00000
 Mulliken charges with hydrogens summed into heavy atoms:
               1
     1  O    0.011614
     4  O   -0.011614
 Electronic spatial extent (au):  <R**2>=            158.3579
 Charge=             -0.0000 electrons
 Dipole moment (field-independent basis, Debye):
    X=             -1.6494    Y=             -1.4154    Z=              0.0000  Tot=              2.1734
 Quadrupole moment (field-independent basis, Debye-Ang):
   XX=             -9.6116   YY=             -4.0990   ZZ=            -14.7233
   XY=             -1.8559   XZ=              0.0000   YZ=              0.0000
 Traceless Quadrupole moment (field-independent basis, Debye-Ang):
   XX=             -0.1336   YY=              5.3789   ZZ=             -5.2453
   XY=             -1.8559   XZ=              0.0000   YZ=              0.0000
 Octapole moment (field-independent basis, Debye-Ang**2):
  XXX=             -0.9452  YYY=              0.4432  ZZZ=              0.0000  XYY=             -1.3756
  XXY=             -4.5057  XXZ=              0.0000  XZZ=             -0.1788  YZZ=             -0.2427
  YYZ=              0.0000  XYZ=              0.0000
 Hexadecapole moment (field-independent basis, Debye-Ang**3):
 XXXX=            -11.8350 YYYY=            -87.6993 ZZZZ=            -11.3841 XXXY=              0.1839
 XXXZ=              0.0000 YYYX=             -2.6749 YYYZ=              0.0000 ZZZX=              0.0000
 ZZZY=              0.0000 XXYY=            -18.3425 XXZZ=             -4.4522 YYZZ=            -29.2707
 XXYZ=              0.0000 YYXZ=              0.0000 ZZXY=              0.5796
 N-N= 3.810239902086D+01 E-N=-4.379580911802D+02  KE= 1.518632712810D+02
 Symmetry A'   KE= 1.428350309152D+02
 Symmetry A"   KE= 9.028240365775D+00
 Leave Link  601 at Fri Aug 26 20:30:07 2022, MaxMem=   536870912 cpu:               0.2 elap:               0.1
 (Enter /usr/site/hpc/x86_64/glibc-2.17/broadwell/gaussian/g16_a.03/pgi-16.5/g16/l9999.exe)
 1\1\GINC-N050\SP\RCCSD(T)-FC\CC-pVTZ\H4O2\C7441284\26-Aug-2022\0\\#p C
 CSD(T)/cc-pVTZ\\H2O_H2O_843\\0,1\O,0,0.,-0.009833,0.\H,0,-0.799571,-0.
 580965,0.\H,0,0.799571,-0.580965,0.\O,0,-0.009085,2.468825,0.\H,0,-0.2
 30759,3.426095,0.\H,0,-0.842725,1.94868,0.\\Version=ES64L-G16RevA.03\S
 tate=1-A'\HF=-152.0985123\MP2=-152.6282043\MP3=-152.6352082\MP4D=-152.
 6444219\MP4DQ=-152.6365773\MP4SDQ=-152.6398117\CCSD=-152.6391548\CCSD(
 T)=-152.6552995\RMSD=3.635e-09\PG=CS [SG(H4O2)]\\@


 THEREFORE SHALL EVIL COME UPON THEE...
 THOU SHALT NOT KNOW FROM WHENCE IT RISETH...
 AND MISCHIEF SHALL FALL UPON THEE...
 THOU SHALT NOT BE ABLE TO PUT IT OFF...
 AND DESOLATION SHALL COME UPON THEE SUDDENLY...
 WHICH THOU SHALT NOT KNOW...

                                         ISAIAH 47.11
 Job cpu time:       0 days  0 hours  1 minutes 50.2 seconds.
 Elapsed time:       0 days  0 hours  0 minutes 28.2 seconds.
 File lengths (MBytes):  RWF=    572 Int=      0 D2E=      0 Chk=      8 Scr=      8
 Normal termination of Gaussian 16 at Fri Aug 26 20:30:07 2022.
