 Entering Gaussian System, Link 0=g16
 Input=H2O_H2O_4214.com
 Output=H2O_H2O_4214.log
 Initial command:
 /usr/site/hpc/x86_64/glibc-2.17/broadwell/gaussian/g16_a.03/pgi-16.5/g16/l1.exe "/gpfs/gpfs1/scratch/c7441284/ForceFieldModel/FittingData/Gau-3655602.inp" -scrdir="/gpfs/gpfs1/scratch/c7441284/ForceFieldModel/FittingData/"
 Entering Link 1 = /usr/site/hpc/x86_64/glibc-2.17/broadwell/gaussian/g16_a.03/pgi-16.5/g16/l1.exe PID=   3655603.
  
 Copyright (c) 1988,1990,1992,1993,1995,1998,2003,2009,2016,
            Gaussian, Inc.  All Rights Reserved.
  
 This is part of the Gaussian(R) 16 program.  It is based on
 the Gaussian(R) 09 system (copyright 2009, Gaussian, Inc.),
 the Gaussian(R) 03 system (copyright 2003, Gaussian, Inc.),
 the Gaussian(R) 98 system (copyright 1998, Gaussian, Inc.),
 the Gaussian(R) 94 system (copyright 1995, Gaussian, Inc.),
 the Gaussian 92(TM) system (copyright 1992, Gaussian, Inc.),
 the Gaussian 90(TM) system (copyright 1990, Gaussian, Inc.),
 the Gaussian 88(TM) system (copyright 1988, Gaussian, Inc.),
 the Gaussian 86(TM) system (copyright 1986, Carnegie Mellon
 University), and the Gaussian 82(TM) system (copyright 1983,
 Carnegie Mellon University). Gaussian is a federally registered
 trademark of Gaussian, Inc.
  
 This software contains proprietary and confidential information,
 including trade secrets, belonging to Gaussian, Inc.
  
 This software is provided under written license and may be
 used, copied, transmitted, or stored only in accord with that
 written license.
  
 The following legend is applicable only to US Government
 contracts under FAR:
  
                    RESTRICTED RIGHTS LEGEND
  
 Use, reproduction and disclosure by the US Government is
 subject to restrictions as set forth in subparagraphs (a)
 and (c) of the Commercial Computer Software - Restricted
 Rights clause in FAR 52.227-19.
  
 Gaussian, Inc.
 340 Quinnipiac St., Bldg. 40, Wallingford CT 06492
  
  
 ---------------------------------------------------------------
 Warning -- This program may not be used in any manner that
 competes with the business of Gaussian, Inc. or will provide
 assistance to any competitor of Gaussian, Inc.  The licensee
 of this program is prohibited from giving any competitor of
 Gaussian, Inc. access to this program.  By using this program,
 the user acknowledges that Gaussian, Inc. is engaged in the
 business of creating and licensing software in the field of
 computational chemistry and represents and warrants to the
 licensee that it is not a competitor of Gaussian, Inc. and that
 it will not use this program in any manner prohibited above.
 ---------------------------------------------------------------
  

 Cite this work as:
 Gaussian 16, Revision A.03,
 M. J. Frisch, G. W. Trucks, H. B. Schlegel, G. E. Scuseria, 
 M. A. Robb, J. R. Cheeseman, G. Scalmani, V. Barone, 
 G. A. Petersson, H. Nakatsuji, X. Li, M. Caricato, A. V. Marenich, 
 J. Bloino, B. G. Janesko, R. Gomperts, B. Mennucci, H. P. Hratchian, 
 J. V. Ortiz, A. F. Izmaylov, J. L. Sonnenberg, D. Williams-Young, 
 F. Ding, F. Lipparini, F. Egidi, J. Goings, B. Peng, A. Petrone, 
 T. Henderson, D. Ranasinghe, V. G. Zakrzewski, J. Gao, N. Rega, 
 G. Zheng, W. Liang, M. Hada, M. Ehara, K. Toyota, R. Fukuda, 
 J. Hasegawa, M. Ishida, T. Nakajima, Y. Honda, O. Kitao, H. Nakai, 
 T. Vreven, K. Throssell, J. A. Montgomery, Jr., J. E. Peralta, 
 F. Ogliaro, M. J. Bearpark, J. J. Heyd, E. N. Brothers, K. N. Kudin, 
 V. N. Staroverov, T. A. Keith, R. Kobayashi, J. Normand, 
 K. Raghavachari, A. P. Rendell, J. C. Burant, S. S. Iyengar, 
 J. Tomasi, M. Cossi, J. M. Millam, M. Klene, C. Adamo, R. Cammi, 
 J. W. Ochterski, R. L. Martin, K. Morokuma, O. Farkas, 
 J. B. Foresman, and D. J. Fox, Gaussian, Inc., Wallingford CT, 2016.
 
 ******************************************
 Gaussian 16:  ES64L-G16RevA.03 25-Dec-2016
                27-Aug-2022 
 ******************************************
 %NProcShared=4
 Will use up to    4 processors via shared memory.
 %Mem=4GB
 %Chk=H2O_H2O_4214.chk
 ------------------
 #p CCSD(T)/cc-pVTZ
 ------------------
 1/38=1,172=1/1;
 2/12=2,17=6,18=5,40=1/2;
 3/5=16,6=1,11=9,25=1,30=1/1,2,3;
 4//1;
 5/5=2,38=5/2;
 8/6=4,9=120000,10=1/1,4;
 9/5=7,14=2/13;
 6/7=2,8=2,9=2,10=2/1;
 99/5=1,9=1/99;
 Leave Link    1 at Sat Aug 27 06:03:30 2022, MaxMem=   536870912 cpu:               5.5 elap:               1.8
 (Enter /usr/site/hpc/x86_64/glibc-2.17/broadwell/gaussian/g16_a.03/pgi-16.5/g16/l101.exe)
 ------------
 H2O_H2O_4214
 ------------
 Symbolic Z-matrix:
 Charge =  0 Multiplicity = 1
 O                     0.       -0.00983   0. 
 H                    -0.79957  -0.58097   0. 
 H                     0.79957  -0.58097   0. 
 O                    -0.0078    6.06094   0. 
 H                     0.02584   7.04297   0. 
 H                    -0.94766   5.77428   0. 
 
 ITRead=  0  0  0  0  0  0
 MicOpt= -1 -1 -1 -1 -1 -1
 NAtoms=      6 NQM=        6 NQMF=       0 NMMI=      0 NMMIF=      0
                NMic=       0 NMicF=      0.
                    Isotopes and Nuclear Properties:
 (Nuclear quadrupole moments (NQMom) in fm**2, nuclear magnetic moments (NMagM)
  in nuclear magnetons)

  Atom         1           2           3           4           5           6
 IAtWgt=          16           1           1          16           1           1
 AtmWgt=  15.9949146   1.0078250   1.0078250  15.9949146   1.0078250   1.0078250
 NucSpn=           0           1           1           0           1           1
 AtZEff=  -0.0000000  -0.0000000  -0.0000000  -0.0000000  -0.0000000  -0.0000000
 NQMom=    0.0000000   0.0000000   0.0000000   0.0000000   0.0000000   0.0000000
 NMagM=    0.0000000   2.7928460   2.7928460   0.0000000   2.7928460   2.7928460
 AtZNuc=   8.0000000   1.0000000   1.0000000   8.0000000   1.0000000   1.0000000
 Leave Link  101 at Sat Aug 27 06:03:30 2022, MaxMem=   536870912 cpu:               0.3 elap:               0.1
 (Enter /usr/site/hpc/x86_64/glibc-2.17/broadwell/gaussian/g16_a.03/pgi-16.5/g16/l202.exe)
                          Input orientation:                          
 ---------------------------------------------------------------------
 Center     Atomic      Atomic             Coordinates (Angstroms)
 Number     Number       Type             X           Y           Z
 ---------------------------------------------------------------------
      1          8           0        0.000000   -0.009833    0.000000
      2          1           0       -0.799571   -0.580965    0.000000
      3          1           0        0.799571   -0.580965    0.000000
      4          8           0       -0.007801    6.060943    0.000000
      5          1           0        0.025838    7.042969    0.000000
      6          1           0       -0.947659    5.774284    0.000000
 ---------------------------------------------------------------------
                    Distance matrix (angstroms):
                    1          2          3          4          5
     1  O    0.000000
     2  H    0.982601   0.000000
     3  H    0.982601   1.599142   0.000000
     4  O    6.070781   6.688934   6.690799   0.000000
     5  H    7.052849   7.668485   7.663095   0.982602   0.000000
     6  H    5.861234   6.356974   6.591055   0.982602   1.599143
                    6
     6  H    0.000000
 Stoichiometry    H4O2
 Framework group  CS[SG(H4O2)]
 Deg. of freedom     9
 Full point group                 CS      NOp   2
 Largest Abelian subgroup         CS      NOp   2
 Largest concise Abelian subgroup C1      NOp   1
                         Standard orientation:                         
 ---------------------------------------------------------------------
 Center     Atomic      Atomic             Coordinates (Angstroms)
 Number     Number       Type             X           Y           Z
 ---------------------------------------------------------------------
      1          8           0        0.045340   -3.013104    0.000000
      2          1           0       -0.754965   -3.583208    0.000000
      3          1           0        0.844176   -3.585263    0.000000
      4          8           0        0.045340    3.057677    0.000000
      5          1           0        0.080241    4.039659    0.000000
      6          1           0       -0.894886    2.772226    0.000000
 ---------------------------------------------------------------------
 Rotational constants (GHZ):         236.1826189           1.4654696           1.4564327
 Leave Link  202 at Sat Aug 27 06:03:31 2022, MaxMem=   536870912 cpu:               0.0 elap:               0.0
 (Enter /usr/site/hpc/x86_64/glibc-2.17/broadwell/gaussian/g16_a.03/pgi-16.5/g16/l301.exe)
 Standard basis: CC-pVTZ (5D, 7F)
 Ernie: Thresh=  0.10000D-02 Tol=  0.10000D-05 Strict=F.
 Ernie:  6 primitive shells out of 84 were deleted.
 There are    92 symmetry adapted cartesian basis functions of A'  symmetry.
 There are    38 symmetry adapted cartesian basis functions of A"  symmetry.
 There are    80 symmetry adapted basis functions of A'  symmetry.
 There are    36 symmetry adapted basis functions of A"  symmetry.
   116 basis functions,   172 primitive gaussians,   130 cartesian basis functions
    10 alpha electrons       10 beta electrons
       nuclear repulsion energy        26.3638065654 Hartrees.
 IExCor=    0 DFT=F Ex=HF Corr=None ExCW=0 ScaHFX=  1.000000
 ScaDFX=  1.000000  1.000000  1.000000  1.000000 ScalE2=  1.000000  1.000000
 IRadAn=      5 IRanWt=     -1 IRanGd=            0 ICorTp=0 IEmpDi=  4
 NAtoms=    6 NActive=    6 NUniq=    6 SFac= 1.00D+00 NAtFMM=   60 NAOKFM=F Big=F
 Integral buffers will be    131072 words long.
 Raffenetti 1 integral format.
 Two-electron integral symmetry is turned on.
 Leave Link  301 at Sat Aug 27 06:03:31 2022, MaxMem=   536870912 cpu:               0.2 elap:               0.1
 (Enter /usr/site/hpc/x86_64/glibc-2.17/broadwell/gaussian/g16_a.03/pgi-16.5/g16/l302.exe)
 NPDir=0 NMtPBC=     1 NCelOv=     1 NCel=       1 NClECP=     1 NCelD=      1
         NCelK=      1 NCelE2=     1 NClLst=     1 CellRange=     0.0.
 One-electron integrals computed using PRISM.
 One-electron integral symmetry used in STVInt
 NBasis=   116 RedAO= T EigKep=  2.69D-03  NBF=    80    36
 NBsUse=   116 1.00D-06 EigRej= -1.00D+00 NBFU=    80    36
 Leave Link  302 at Sat Aug 27 06:03:31 2022, MaxMem=   536870912 cpu:               0.4 elap:               0.1
 (Enter /usr/site/hpc/x86_64/glibc-2.17/broadwell/gaussian/g16_a.03/pgi-16.5/g16/l303.exe)
 DipDrv:  MaxL=1.
 Leave Link  303 at Sat Aug 27 06:03:31 2022, MaxMem=   536870912 cpu:               0.1 elap:               0.0
 (Enter /usr/site/hpc/x86_64/glibc-2.17/broadwell/gaussian/g16_a.03/pgi-16.5/g16/l401.exe)
 ExpMin= 1.03D-01 ExpMax= 1.53D+04 ExpMxC= 5.22D+02 IAcc=3 IRadAn=         5 AccDes= 0.00D+00
 Harris functional with IExCor=  205 and IRadAn=       5 diagonalized for initial guess.
 HarFok:  IExCor=  205 AccDes= 0.00D+00 IRadAn=         5 IDoV= 1 UseB2=F ITyADJ=14
 ICtDFT=  3500011 ScaDFX=  1.000000  1.000000  1.000000  1.000000
 FoFCou: FMM=F IPFlag=           0 FMFlag=      100000 FMFlg1=           0
         NFxFlg=           0 DoJE=T BraDBF=F KetDBF=T FulRan=T
         wScrn=  0.000000 ICntrl=       500 IOpCl=  0 I1Cent=   200000004 NGrid=           0
         NMat0=    1 NMatS0=      1 NMatT0=    0 NMatD0=    1 NMtDS0=    0 NMtDT0=    0
 Petite list used in FoFCou.
 Harris En= -152.298683617582    
 JPrj=0 DoOrth=F DoCkMO=F.
 Initial guess orbital symmetries:
       Occupied  (A') (A') (A') (A') (A') (A') (A') (A') (A") (A")
       Virtual   (A') (A') (A') (A') (A') (A') (A') (A') (A') (A')
                 (A") (A") (A') (A') (A') (A') (A") (A") (A") (A")
                 (A') (A') (A') (A') (A') (A') (A') (A') (A") (A")
                 (A") (A") (A') (A') (A') (A') (A') (A') (A') (A')
                 (A') (A') (A") (A") (A') (A') (A") (A") (A") (A")
                 (A') (A') (A') (A') (A') (A') (A") (A") (A') (A')
                 (A') (A') (A") (A") (A") (A") (A') (A') (A') (A')
                 (A") (A") (A') (A') (A') (A') (A') (A') (A') (A')
                 (A") (A") (A') (A') (A") (A") (A") (A") (A') (A')
                 (A") (A") (A') (A') (A') (A') (A") (A") (A') (A')
                 (A') (A') (A') (A') (A') (A')
 The electronic state of the initial guess is 1-A'.
 Leave Link  401 at Sat Aug 27 06:03:31 2022, MaxMem=   536870912 cpu:               0.7 elap:               0.2
 (Enter /usr/site/hpc/x86_64/glibc-2.17/broadwell/gaussian/g16_a.03/pgi-16.5/g16/l502.exe)
 Keep R1 ints in memory in symmetry-blocked form, NReq=34823457.
 FoFCou: FMM=F IPFlag=           0 FMFlag=           0 FMFlg1=           0
         NFxFlg=           0 DoJE=F BraDBF=F KetDBF=F FulRan=T
         wScrn=  0.000000 ICntrl=       600 IOpCl=  0 I1Cent=           0 NGrid=           0
         NMat0=    1 NMatS0=   6786 NMatT0=    0 NMatD0=    1 NMtDS0=    0 NMtDT0=    0
 Petite list used in FoFCou.
 Closed shell SCF:
 Using DIIS extrapolation, IDIIS=  1040.
 NGot=   536870912 LenX=   525040673 LenY=   525023332
 Requested convergence on RMS density matrix=1.00D-08 within 128 cycles.
 Requested convergence on MAX density matrix=1.00D-06.
 Requested convergence on             energy=1.00D-06.
 No special actions if energy rises.

 Cycle   1  Pass 1  IDiag  1:
 E= -151.926299763807    
 DIIS: error= 5.16D-02 at cycle   1 NSaved=   1.
 NSaved= 1 IEnMin= 1 EnMin= -151.926299763807     IErMin= 1 ErrMin= 5.16D-02
 ErrMax= 5.16D-02  0.00D+00 EMaxC= 1.00D-01 BMatC= 4.01D-01 BMatP= 4.01D-01
 IDIUse=3 WtCom= 4.84D-01 WtEn= 5.16D-01
 Coeff-Com:  0.100D+01
 Coeff-En:   0.100D+01
 Coeff:      0.100D+01
 Gap=     0.520 Goal=   None    Shift=    0.000
 GapD=    0.520 DampG=2.000 DampE=0.500 DampFc=1.0000 IDamp=-1.
 RMSDP=2.51D-03 MaxDP=6.63D-02              OVMax= 1.27D-01

 Cycle   2  Pass 1  IDiag  1:
 E= -152.038247409972     Delta-E=       -0.111947646165 Rises=F Damp=F
 DIIS: error= 3.55D-02 at cycle   2 NSaved=   2.
 NSaved= 2 IEnMin= 2 EnMin= -152.038247409972     IErMin= 2 ErrMin= 3.55D-02
 ErrMax= 3.55D-02  0.00D+00 EMaxC= 1.00D-01 BMatC= 1.13D-01 BMatP= 4.01D-01
 IDIUse=3 WtCom= 6.45D-01 WtEn= 3.55D-01
 Coeff-Com:  0.320D+00 0.680D+00
 Coeff-En:   0.167D+00 0.833D+00
 Coeff:      0.266D+00 0.734D+00
 Gap=     0.660 Goal=   None    Shift=    0.000
 RMSDP=1.31D-03 MaxDP=3.91D-02 DE=-1.12D-01 OVMax= 5.66D-02

 Cycle   3  Pass 1  IDiag  1:
 E= -152.103774982341     Delta-E=       -0.065527572369 Rises=F Damp=F
 DIIS: error= 7.98D-03 at cycle   3 NSaved=   3.
 NSaved= 3 IEnMin= 3 EnMin= -152.103774982341     IErMin= 3 ErrMin= 7.98D-03
 ErrMax= 7.98D-03  0.00D+00 EMaxC= 1.00D-01 BMatC= 5.23D-03 BMatP= 1.13D-01
 IDIUse=3 WtCom= 9.20D-01 WtEn= 7.98D-02
 Coeff-Com: -0.303D-01 0.144D+00 0.886D+00
 Coeff-En:   0.000D+00 0.000D+00 0.100D+01
 Coeff:     -0.279D-01 0.133D+00 0.895D+00
 Gap=     0.634 Goal=   None    Shift=    0.000
 RMSDP=2.28D-04 MaxDP=5.19D-03 DE=-6.55D-02 OVMax= 1.27D-02

 Cycle   4  Pass 1  IDiag  1:
 E= -152.107071562176     Delta-E=       -0.003296579835 Rises=F Damp=F
 DIIS: error= 7.55D-04 at cycle   4 NSaved=   4.
 NSaved= 4 IEnMin= 4 EnMin= -152.107071562176     IErMin= 4 ErrMin= 7.55D-04
 ErrMax= 7.55D-04  0.00D+00 EMaxC= 1.00D-01 BMatC= 3.25D-05 BMatP= 5.23D-03
 IDIUse=3 WtCom= 9.92D-01 WtEn= 7.55D-03
 Coeff-Com:  0.707D-02-0.583D-01-0.256D+00 0.131D+01
 Coeff-En:   0.000D+00 0.000D+00 0.000D+00 0.100D+01
 Coeff:      0.702D-02-0.578D-01-0.254D+00 0.130D+01
 Gap=     0.637 Goal=   None    Shift=    0.000
 RMSDP=5.17D-05 MaxDP=9.85D-04 DE=-3.30D-03 OVMax= 2.28D-03

 Cycle   5  Pass 1  IDiag  1:
 E= -152.107119747733     Delta-E=       -0.000048185557 Rises=F Damp=F
 DIIS: error= 1.80D-04 at cycle   5 NSaved=   5.
 NSaved= 5 IEnMin= 5 EnMin= -152.107119747733     IErMin= 5 ErrMin= 1.80D-04
 ErrMax= 1.80D-04  0.00D+00 EMaxC= 1.00D-01 BMatC= 1.29D-06 BMatP= 3.25D-05
 IDIUse=3 WtCom= 9.98D-01 WtEn= 1.80D-03
 Coeff-Com:  0.528D-03 0.146D-03-0.229D-02-0.210D+00 0.121D+01
 Coeff-En:   0.000D+00 0.000D+00 0.000D+00 0.000D+00 0.100D+01
 Coeff:      0.528D-03 0.146D-03-0.228D-02-0.209D+00 0.121D+01
 Gap=     0.638 Goal=   None    Shift=    0.000
 RMSDP=1.37D-05 MaxDP=2.81D-04 DE=-4.82D-05 OVMax= 6.72D-04

 Cycle   6  Pass 1  IDiag  1:
 E= -152.107122458383     Delta-E=       -0.000002710650 Rises=F Damp=F
 DIIS: error= 2.91D-05 at cycle   6 NSaved=   6.
 NSaved= 6 IEnMin= 6 EnMin= -152.107122458383     IErMin= 6 ErrMin= 2.91D-05
 ErrMax= 2.91D-05  0.00D+00 EMaxC= 1.00D-01 BMatC= 3.42D-08 BMatP= 1.29D-06
 IDIUse=1 WtCom= 1.00D+00 WtEn= 0.00D+00
 Coeff-Com: -0.284D-03 0.160D-02 0.736D-02-0.235D-02-0.260D+00 0.125D+01
 Coeff:     -0.284D-03 0.160D-02 0.736D-02-0.235D-02-0.260D+00 0.125D+01
 Gap=     0.638 Goal=   None    Shift=    0.000
 RMSDP=3.02D-06 MaxDP=6.59D-05 DE=-2.71D-06 OVMax= 1.54D-04

 Cycle   7  Pass 1  IDiag  1:
 E= -152.107122555385     Delta-E=       -0.000000097002 Rises=F Damp=F
 DIIS: error= 5.38D-06 at cycle   7 NSaved=   7.
 NSaved= 7 IEnMin= 7 EnMin= -152.107122555385     IErMin= 7 ErrMin= 5.38D-06
 ErrMax= 5.38D-06  0.00D+00 EMaxC= 1.00D-01 BMatC= 1.78D-09 BMatP= 3.42D-08
 IDIUse=1 WtCom= 1.00D+00 WtEn= 0.00D+00
 Coeff-Com:  0.351D-04-0.383D-03-0.178D-02 0.139D-01-0.118D-01-0.228D+00
 Coeff-Com:  0.123D+01
 Coeff:      0.351D-04-0.383D-03-0.178D-02 0.139D-01-0.118D-01-0.228D+00
 Coeff:      0.123D+01
 Gap=     0.638 Goal=   None    Shift=    0.000
 RMSDP=4.36D-07 MaxDP=9.20D-06 DE=-9.70D-08 OVMax= 3.00D-05

 Cycle   8  Pass 1  IDiag  1:
 E= -152.107122559137     Delta-E=       -0.000000003751 Rises=F Damp=F
 DIIS: error= 1.60D-06 at cycle   8 NSaved=   8.
 NSaved= 8 IEnMin= 8 EnMin= -152.107122559137     IErMin= 8 ErrMin= 1.60D-06
 ErrMax= 1.60D-06  0.00D+00 EMaxC= 1.00D-01 BMatC= 1.09D-10 BMatP= 1.78D-09
 IDIUse=1 WtCom= 1.00D+00 WtEn= 0.00D+00
 Coeff-Com:  0.835D-05-0.109D-04-0.476D-05-0.300D-02 0.174D-01-0.221D-01
 Coeff-Com: -0.231D+00 0.124D+01
 Coeff:      0.835D-05-0.109D-04-0.476D-05-0.300D-02 0.174D-01-0.221D-01
 Coeff:     -0.231D+00 0.124D+01
 Gap=     0.638 Goal=   None    Shift=    0.000
 RMSDP=1.06D-07 MaxDP=2.45D-06 DE=-3.75D-09 OVMax= 6.69D-06

 Cycle   9  Pass 1  IDiag  1:
 E= -152.107122559352     Delta-E=       -0.000000000216 Rises=F Damp=F
 DIIS: error= 4.22D-07 at cycle   9 NSaved=   9.
 NSaved= 9 IEnMin= 9 EnMin= -152.107122559352     IErMin= 9 ErrMin= 4.22D-07
 ErrMax= 4.22D-07  0.00D+00 EMaxC= 1.00D-01 BMatC= 1.68D-11 BMatP= 1.09D-10
 IDIUse=1 WtCom= 1.00D+00 WtEn= 0.00D+00
 Coeff-Com:  0.359D-07 0.283D-04 0.149D-03-0.226D-02 0.755D-02 0.937D-02
 Coeff-Com: -0.173D+00 0.406D+00 0.753D+00
 Coeff:      0.359D-07 0.283D-04 0.149D-03-0.226D-02 0.755D-02 0.937D-02
 Coeff:     -0.173D+00 0.406D+00 0.753D+00
 Gap=     0.638 Goal=   None    Shift=    0.000
 RMSDP=2.19D-08 MaxDP=4.87D-07 DE=-2.16D-10 OVMax= 1.46D-06

 Cycle  10  Pass 1  IDiag  1:
 E= -152.107122559368     Delta-E=       -0.000000000015 Rises=F Damp=F
 DIIS: error= 9.74D-08 at cycle  10 NSaved=  10.
 NSaved=10 IEnMin=10 EnMin= -152.107122559368     IErMin=10 ErrMin= 9.74D-08
 ErrMax= 9.74D-08  0.00D+00 EMaxC= 1.00D-01 BMatC= 4.85D-13 BMatP= 1.68D-11
 IDIUse=1 WtCom= 1.00D+00 WtEn= 0.00D+00
 Coeff-Com: -0.437D-06-0.456D-05-0.295D-04 0.573D-03-0.202D-02-0.224D-02
 Coeff-Com:  0.530D-01-0.170D+00-0.159D+00 0.128D+01
 Coeff:     -0.437D-06-0.456D-05-0.295D-04 0.573D-03-0.202D-02-0.224D-02
 Coeff:      0.530D-01-0.170D+00-0.159D+00 0.128D+01
 Gap=     0.638 Goal=   None    Shift=    0.000
 RMSDP=7.23D-09 MaxDP=2.09D-07 DE=-1.55D-11 OVMax= 4.40D-07

 SCF Done:  E(RHF) =  -152.107122559     A.U. after   10 cycles
            NFock= 10  Conv=0.72D-08     -V/T= 2.0020
 KE= 1.518049256036D+02 PE=-4.142077142493D+02 EE= 8.393185952090D+01
 Leave Link  502 at Sat Aug 27 06:03:32 2022, MaxMem=   536870912 cpu:               3.4 elap:               1.0
 (Enter /usr/site/hpc/x86_64/glibc-2.17/broadwell/gaussian/g16_a.03/pgi-16.5/g16/l801.exe)
 Windowed orbitals will be sorted by symmetry type.
 ExpMin= 1.03D-01 ExpMax= 1.53D+04 ExpMxC= 5.22D+02 IAcc=3 IRadAn=         5 AccDes= 0.00D+00
 HarFok:  IExCor=  205 AccDes= 0.00D+00 IRadAn=         5 IDoV=-2 UseB2=F ITyADJ=14
 ICtDFT= 12500011 ScaDFX=  1.000000  1.000000  1.000000  1.000000
 Largest valence mixing into a core orbital is  1.12D-04
 Largest core mixing into a valence orbital is  1.77D-05
 Range of M.O.s used for correlation:     3   116
 NBasis=   116 NAE=    10 NBE=    10 NFC=     2 NFV=     0
 NROrb=    114 NOA=     8 NOB=     8 NVA=   106 NVB=   106
 Leave Link  801 at Sat Aug 27 06:03:32 2022, MaxMem=   536870912 cpu:               0.3 elap:               0.1
 (Enter /usr/site/hpc/x86_64/glibc-2.17/broadwell/gaussian/g16_a.03/pgi-16.5/g16/l804.exe)
 Closed-shell transformation, MDV=   536870912 ITran=4 ISComp=2.
 Unit  1 TFree=        834515 TCopy=        406125.
 Semi-Direct transformation.
 ModeAB=           4 MOrb=             8 LenV=     536381263
 LASXX=      2873146 LTotXX=     2873146 LenRXX=     5831278
 LTotAB=     2958132 MaxLAS=     4886496 LenRXY=           0
 NonZer=     8704424 LenScr=    13107200 LnRSAI=     4886496
 LnScr1=     7340032 LExtra=           0 Total=     31165006
 MaxDsk=          -1 SrtSym=           T ITran=            4
 DoSDTr:  NPSUse=  4
 JobTyp=0 Pass  1:  I=   1 to   8.
 (rs|ai) integrals will be sorted in core.
 Complete sort for first half transformation.
 First half transformation complete.
 Complete sort for second half transformation.
 Second half transformation complete.
 Spin components of T(2) and E(2):
     alpha-alpha T2 =       0.1556114533D-01 E2=     -0.6379840552D-01
     alpha-beta  T2 =       0.9192556814D-01 E2=     -0.3983119318D+00
     beta-beta   T2 =       0.1556114533D-01 E2=     -0.6379840552D-01
 ANorm=    0.1059739524D+01
 E2 =    -0.5259087429D+00 EUMP2 =    -0.15263303130222D+03
 Leave Link  804 at Sat Aug 27 06:03:33 2022, MaxMem=   536870912 cpu:               4.5 elap:               1.3
 (Enter /usr/site/hpc/x86_64/glibc-2.17/broadwell/gaussian/g16_a.03/pgi-16.5/g16/l913.exe)
 CIDS:  MDV=   536870912.
 Frozen-core window:  NFC=   2 NFV=   0.
 IFCWin=0 IBDFC=1 NFBD=     0     0 NFCmp=     0     0 NFFFC=     0     0
 Using DD3R+UMP44R for 1st iteration.
 Using DD4RQ for 2nd and later iterations.
 Keep R2 and R3 ints in memory in symmetry-blocked form, NReq=35357534.
 FoFCou: FMM=F IPFlag=           0 FMFlag=           0 FMFlg1=           0
         NFxFlg=           0 DoJE=F BraDBF=F KetDBF=F FulRan=T
         wScrn=  0.000000 ICntrl=       600 IOpCl=  0 I1Cent=           0 NGrid=           0
         NMat0=    1 NMatS0=   6786 NMatT0=    0 NMatD0=    1 NMtDS0=    0 NMtDT0=    0
 Petite list used in FoFCou.
 CIDS: In Core Option IDoMem=           1.
 CCSD(T)
 =======
 Iterations=  50 Convergence= 0.100D-06
 Produce multiple copies of IABC intergrals
 Iteration Nr.   1
 **********************
 DD1Dir will call FoFMem   1 times, MxPair=        72
 NAB=    36 NAA=     0 NBB=     0.
 MP4(R+Q)=  0.75559449D-02
 Maximum subspace dimension=  5
 A-vector RMS=  1.7431431D-03 Max=  6.2067942D-03 conv= 1.00D-05.
 RLE energy=       -0.5258536665
 E3=       -0.75721634D-02        EUMP3=      -0.15264060347D+03
 E4(DQ)=   -0.15528230D-02        UMP4(DQ)=   -0.15264215629D+03
 E4(SDQ)=  -0.46104724D-02        UMP4(SDQ)=  -0.15264521394D+03
 VARIATIONAL ENERGIES WITH THE FIRST-ORDER WAVEFUNCTION:
 DE(Corr)= -0.52585367     E(Corr)=     -152.63297623    
 NORM(A)=   0.10601092D+01
 Iteration Nr.   2
 **********************
 DD1Dir will call FoFMem   1 times, MxPair=        72
 NAB=    36 NAA=     0 NBB=     0.
 A-vector RMS=  2.1222665D-04 Max=  2.3225040D-03 conv= 1.00D-05.
 RLE energy=       -0.5369196262
 DE(Corr)= -0.53575904     E(CORR)=     -152.64288160     Delta=-9.91D-03
 NORM(A)=   0.10638604D+01
 Iteration Nr.   3
 **********************
 DD1Dir will call FoFMem   1 times, MxPair=        72
 NAB=    36 NAA=     0 NBB=     0.
 A-vector RMS=  1.4147092D-04 Max=  9.0945807D-04 conv= 1.00D-05.
 RLE energy=       -0.5374157019
 DE(Corr)= -0.53682942     E(CORR)=     -152.64395198     Delta=-1.07D-03
 NORM(A)=   0.10644993D+01
 Iteration Nr.   4
 **********************
 DD1Dir will call FoFMem   1 times, MxPair=        72
 NAB=    36 NAA=     0 NBB=     0.
 A-vector RMS=  2.5873017D-05 Max=  1.4640868D-04 conv= 1.00D-05.
 RLE energy=       -0.5374989290
 DE(Corr)= -0.53746358     E(CORR)=     -152.64458614     Delta=-6.34D-04
 NORM(A)=   0.10646103D+01
 Iteration Nr.   5
 **********************
 DD1Dir will call FoFMem   1 times, MxPair=        72
 NAB=    36 NAA=     0 NBB=     0.
 A-vector RMS=  1.8834771D-05 Max=  1.6944141D-04 conv= 1.00D-05.
 RLE energy=       -0.5375073358
 DE(Corr)= -0.53750054     E(CORR)=     -152.64462310     Delta=-3.70D-05
 NORM(A)=   0.10646199D+01
 Iteration Nr.   6
 **********************
 DD1Dir will call FoFMem   1 times, MxPair=        72
 NAB=    36 NAA=     0 NBB=     0.
 A-vector RMS=  5.5489077D-06 Max=  4.3892333D-05 conv= 1.00D-05.
 RLE energy=       -0.5374981139
 DE(Corr)= -0.53750373     E(CORR)=     -152.64462629     Delta=-3.19D-06
 NORM(A)=   0.10646200D+01
 Iteration Nr.   7
 **********************
 DD1Dir will call FoFMem   1 times, MxPair=        72
 NAB=    36 NAA=     0 NBB=     0.
 A-vector RMS=  2.6648382D-06 Max=  2.4442666D-05 conv= 1.00D-05.
 RLE energy=       -0.5375049084
 DE(Corr)= -0.53750387     E(CORR)=     -152.64462643     Delta=-1.43D-07
 NORM(A)=   0.10646224D+01
 Iteration Nr.   8
 **********************
 DD1Dir will call FoFMem   1 times, MxPair=        72
 NAB=    36 NAA=     0 NBB=     0.
 A-vector RMS=  5.1176090D-07 Max=  4.3352744D-06 conv= 1.00D-05.
 RLE energy=       -0.5375032685
 DE(Corr)= -0.53750344     E(CORR)=     -152.64462600     Delta= 4.35D-07
 NORM(A)=   0.10646226D+01
 Iteration Nr.   9
 **********************
 DD1Dir will call FoFMem   1 times, MxPair=        72
 NAB=    36 NAA=     0 NBB=     0.
 A-vector RMS=  1.1039494D-07 Max=  8.6595432D-07 conv= 1.00D-05.
 RLE energy=       -0.5375037724
 DE(Corr)= -0.53750373     E(CORR)=     -152.64462629     Delta=-2.93D-07
 NORM(A)=   0.10646228D+01
 Iteration Nr.  10
 **********************
 DD1Dir will call FoFMem   1 times, MxPair=        72
 NAB=    36 NAA=     0 NBB=     0.
 A-vector RMS=  3.3981775D-08 Max=  2.7596304D-07 conv= 1.00D-05.
 RLE energy=       -0.5375037178
 DE(Corr)= -0.53750370     E(CORR)=     -152.64462626     Delta= 2.36D-08
 NORM(A)=   0.10646229D+01
 CI/CC converged in   10 iterations to DelEn= 2.36D-08 Conv= 1.00D-07 ErrA1= 3.40D-08 Conv= 1.00D-05
 Wavefunction amplitudes converged. E(Corr)=     -152.64462626    
 Largest amplitude= 4.79D-02
 IPart=  4 IA=    7   11.05% done.
 IPart=  4 IA=   13   21.46% done.
 IPart=  4 IA=   19   31.21% done.
 IPart=  3 IA=   25   40.32% done.
 IPart=  3 IA=   32   50.13% done.
 IPart=  2 IA=   40   60.27% done.
 IPart=  2 IA=   49   70.30% done.
 IPart=  4 IA=   60   80.58% done.
 IPart=  1 IA=   74   90.51% done.
 Time for triples=       47.06 seconds.
 T4(CCSD)= -0.16034593D-01
 T5(CCSD)=  0.40364763D-03
 CCSD(T)= -0.15266025721D+03
 Discarding MO integrals.
 Leave Link  913 at Sat Aug 27 06:03:51 2022, MaxMem=   536870912 cpu:              70.0 elap:              17.8
 (Enter /usr/site/hpc/x86_64/glibc-2.17/broadwell/gaussian/g16_a.03/pgi-16.5/g16/l601.exe)
 Copying SCF densities to generalized density rwf, IOpCl= 0 IROHF=0.

 **********************************************************************

            Population analysis using the SCF density.

 **********************************************************************

 Orbital symmetries:
       Occupied  (A') (A') (A') (A') (A') (A') (A') (A') (A") (A")
       Virtual   (A') (A') (A') (A') (A') (A') (A') (A') (A') (A')
                 (A") (A") (A') (A') (A') (A') (A") (A") (A") (A")
                 (A') (A') (A') (A') (A') (A') (A') (A') (A") (A")
                 (A") (A") (A') (A') (A') (A') (A') (A') (A') (A')
                 (A') (A') (A") (A") (A') (A') (A") (A") (A') (A')
                 (A") (A") (A') (A') (A') (A') (A") (A") (A") (A")
                 (A') (A') (A') (A') (A") (A") (A') (A') (A') (A')
                 (A") (A") (A') (A') (A') (A') (A') (A') (A') (A')
                 (A") (A") (A') (A') (A") (A") (A") (A") (A') (A')
                 (A") (A") (A') (A') (A') (A') (A") (A") (A') (A')
                 (A') (A') (A') (A') (A') (A')
 The electronic state is 1-A'.
 Alpha  occ. eigenvalues --  -20.55409 -20.55128  -1.32706  -1.32424  -0.70113
 Alpha  occ. eigenvalues --   -0.69825  -0.56140  -0.55858  -0.49816  -0.49535
 Alpha virt. eigenvalues --    0.14229   0.14537   0.20300   0.20604   0.54450
 Alpha virt. eigenvalues --    0.54753   0.57345   0.57628   0.68036   0.68393
 Alpha virt. eigenvalues --    0.79064   0.79341   0.80500   0.80802   0.82433
 Alpha virt. eigenvalues --    0.82706   0.84919   0.85199   0.97376   0.97651
 Alpha virt. eigenvalues --    1.14880   1.15205   1.17244   1.17536   1.51782
 Alpha virt. eigenvalues --    1.52046   1.52091   1.52363   2.00804   2.01084
 Alpha virt. eigenvalues --    2.06863   2.07149   2.09542   2.09841   2.14984
 Alpha virt. eigenvalues --    2.15272   2.25115   2.25424   2.61609   2.61894
 Alpha virt. eigenvalues --    2.92982   2.93272   3.39473   3.39757   3.50028
 Alpha virt. eigenvalues --    3.50312   3.53218   3.53500   3.59598   3.59883
 Alpha virt. eigenvalues --    3.78774   3.79055   3.85536   3.85822   3.87716
 Alpha virt. eigenvalues --    3.88000   3.93674   3.93959   4.03132   4.03413
 Alpha virt. eigenvalues --    4.08290   4.08572   4.15359   4.15645   4.30217
 Alpha virt. eigenvalues --    4.30499   4.40029   4.40316   4.45662   4.45948
 Alpha virt. eigenvalues --    4.66626   4.66907   4.80984   4.81268   5.04314
 Alpha virt. eigenvalues --    5.04598   5.24192   5.24475   5.54151   5.54437
 Alpha virt. eigenvalues --    5.98038   5.98319   6.40494   6.40775   6.86287
 Alpha virt. eigenvalues --    6.86570   6.89764   6.90047   6.94694   6.94978
 Alpha virt. eigenvalues --    6.99239   6.99520   7.07996   7.08284   7.12618
 Alpha virt. eigenvalues --    7.12898   7.18407   7.18690   7.47302   7.47589
 Alpha virt. eigenvalues --    7.70433   7.70718   8.15167   8.15450  12.49378
 Alpha virt. eigenvalues --   12.49662
          Condensed to atoms (all electrons):
               1          2          3          4          5          6
     1  O    7.815760   0.345093   0.346353  -0.000000  -0.000000   0.000000
     2  H    0.345093   0.439080  -0.036632   0.000000   0.000000  -0.000000
     3  H    0.346353  -0.036632   0.435531   0.000000   0.000000  -0.000000
     4  O   -0.000000   0.000000   0.000000   7.815830   0.344661   0.346498
     5  H   -0.000000   0.000000   0.000000   0.344661   0.440404  -0.036685
     6  H    0.000000  -0.000000  -0.000000   0.346498  -0.036685   0.434822
 Mulliken charges:
               1
     1  O   -0.507206
     2  H    0.252459
     3  H    0.254748
     4  O   -0.506988
     5  H    0.251621
     6  H    0.255366
 Sum of Mulliken charges =  -0.00000
 Mulliken charges with hydrogens summed into heavy atoms:
               1
     1  O    0.000001
     4  O   -0.000001
 Electronic spatial extent (au):  <R**2>=            722.7193
 Charge=             -0.0000 electrons
 Dipole moment (field-independent basis, Debye):
    X=             -1.5571    Y=             -0.7796    Z=              0.0000  Tot=              1.7414
 Quadrupole moment (field-independent basis, Debye-Ang):
   XX=             -9.0970   YY=              8.7445   ZZ=            -14.7114
   XY=             -3.9464   XZ=              0.0000   YZ=              0.0000
 Traceless Quadrupole moment (field-independent basis, Debye-Ang):
   XX=             -4.0757   YY=             13.7658   ZZ=             -9.6901
   XY=             -3.9464   XZ=              0.0000   YZ=              0.0000
 Octapole moment (field-independent basis, Debye-Ang**2):
  XXX=             -1.6615  YYY=             -8.5319  ZZZ=              0.0000  XYY=             -8.2818
  XXY=             -6.0180  XXZ=              0.0000  XZZ=             -0.2039  YZZ=             -0.1054
  YYZ=              0.0000  XYZ=              0.0000
 Hexadecapole moment (field-independent basis, Debye-Ang**3):
 XXXX=            -11.1497 YYYY=           -231.6921 ZZZZ=            -11.3347 XXXY=             -1.7382
 XXXZ=              0.0000 YYYX=            -16.9875 YYYZ=              0.0000 ZZZX=              0.0000
 ZZZY=              0.0000 XXYY=            -86.5989 XXZZ=             -4.4526 YYZZ=           -145.6051
 XXYZ=              0.0000 YYXZ=              0.0000 ZZXY=              1.3107
 N-N= 2.636380656543D+01 E-N=-4.142077129552D+02  KE= 1.518049256036D+02
 Symmetry A'   KE= 1.427673877574D+02
 Symmetry A"   KE= 9.037537846215D+00
 Leave Link  601 at Sat Aug 27 06:03:51 2022, MaxMem=   536870912 cpu:               0.5 elap:               0.2
 (Enter /usr/site/hpc/x86_64/glibc-2.17/broadwell/gaussian/g16_a.03/pgi-16.5/g16/l9999.exe)
 1\1\GINC-N003\SP\RCCSD(T)-FC\CC-pVTZ\H4O2\C7441284\27-Aug-2022\0\\#p C
 CSD(T)/cc-pVTZ\\H2O_H2O_4214\\0,1\O,0,0.,-0.009833,0.\H,0,-0.799571,-0
 .580965,0.\H,0,0.799571,-0.580965,0.\O,0,-0.007801,6.060943,0.\H,0,0.0
 25838,7.042969,0.\H,0,-0.947659,5.774284,0.\\Version=ES64L-G16RevA.03\
 State=1-A'\HF=-152.1071226\MP2=-152.6330313\MP3=-152.6406035\MP4D=-152
 .6497122\MP4DQ=-152.6421563\MP4SDQ=-152.6452139\CCSD=-152.6446263\CCSD
 (T)=-152.6602572\RMSD=7.231e-09\PG=CS [SG(H4O2)]\\@


 ROSE IS A RED
 TY COBB IS BLUE
 'CAUSE PETE JUST HIT
 NO. 4592.
 Job cpu time:       0 days  0 hours  1 minutes 26.0 seconds.
 Elapsed time:       0 days  0 hours  0 minutes 22.6 seconds.
 File lengths (MBytes):  RWF=    568 Int=      0 D2E=      0 Chk=      8 Scr=      8
 Normal termination of Gaussian 16 at Sat Aug 27 06:03:51 2022.
