 Entering Gaussian System, Link 0=g16
 Input=H2O_H2O_153.com
 Output=H2O_H2O_153.log
 Initial command:
 /usr/site/hpc/x86_64/glibc-2.17/broadwell/gaussian/g16_a.03/pgi-16.5/g16/l1.exe "/gpfs/gpfs1/scratch/c7441284/ForceFieldModel/FittingData/Gau-3445151.inp" -scrdir="/gpfs/gpfs1/scratch/c7441284/ForceFieldModel/FittingData/"
 Entering Link 1 = /usr/site/hpc/x86_64/glibc-2.17/broadwell/gaussian/g16_a.03/pgi-16.5/g16/l1.exe PID=   3445153.
  
 Copyright (c) 1988,1990,1992,1993,1995,1998,2003,2009,2016,
            Gaussian, Inc.  All Rights Reserved.
  
 This is part of the Gaussian(R) 16 program.  It is based on
 the Gaussian(R) 09 system (copyright 2009, Gaussian, Inc.),
 the Gaussian(R) 03 system (copyright 2003, Gaussian, Inc.),
 the Gaussian(R) 98 system (copyright 1998, Gaussian, Inc.),
 the Gaussian(R) 94 system (copyright 1995, Gaussian, Inc.),
 the Gaussian 92(TM) system (copyright 1992, Gaussian, Inc.),
 the Gaussian 90(TM) system (copyright 1990, Gaussian, Inc.),
 the Gaussian 88(TM) system (copyright 1988, Gaussian, Inc.),
 the Gaussian 86(TM) system (copyright 1986, Carnegie Mellon
 University), and the Gaussian 82(TM) system (copyright 1983,
 Carnegie Mellon University). Gaussian is a federally registered
 trademark of Gaussian, Inc.
  
 This software contains proprietary and confidential information,
 including trade secrets, belonging to Gaussian, Inc.
  
 This software is provided under written license and may be
 used, copied, transmitted, or stored only in accord with that
 written license.
  
 The following legend is applicable only to US Government
 contracts under FAR:
  
                    RESTRICTED RIGHTS LEGEND
  
 Use, reproduction and disclosure by the US Government is
 subject to restrictions as set forth in subparagraphs (a)
 and (c) of the Commercial Computer Software - Restricted
 Rights clause in FAR 52.227-19.
  
 Gaussian, Inc.
 340 Quinnipiac St., Bldg. 40, Wallingford CT 06492
  
  
 ---------------------------------------------------------------
 Warning -- This program may not be used in any manner that
 competes with the business of Gaussian, Inc. or will provide
 assistance to any competitor of Gaussian, Inc.  The licensee
 of this program is prohibited from giving any competitor of
 Gaussian, Inc. access to this program.  By using this program,
 the user acknowledges that Gaussian, Inc. is engaged in the
 business of creating and licensing software in the field of
 computational chemistry and represents and warrants to the
 licensee that it is not a competitor of Gaussian, Inc. and that
 it will not use this program in any manner prohibited above.
 ---------------------------------------------------------------
  

 Cite this work as:
 Gaussian 16, Revision A.03,
 M. J. Frisch, G. W. Trucks, H. B. Schlegel, G. E. Scuseria, 
 M. A. Robb, J. R. Cheeseman, G. Scalmani, V. Barone, 
 G. A. Petersson, H. Nakatsuji, X. Li, M. Caricato, A. V. Marenich, 
 J. Bloino, B. G. Janesko, R. Gomperts, B. Mennucci, H. P. Hratchian, 
 J. V. Ortiz, A. F. Izmaylov, J. L. Sonnenberg, D. Williams-Young, 
 F. Ding, F. Lipparini, F. Egidi, J. Goings, B. Peng, A. Petrone, 
 T. Henderson, D. Ranasinghe, V. G. Zakrzewski, J. Gao, N. Rega, 
 G. Zheng, W. Liang, M. Hada, M. Ehara, K. Toyota, R. Fukuda, 
 J. Hasegawa, M. Ishida, T. Nakajima, Y. Honda, O. Kitao, H. Nakai, 
 T. Vreven, K. Throssell, J. A. Montgomery, Jr., J. E. Peralta, 
 F. Ogliaro, M. J. Bearpark, J. J. Heyd, E. N. Brothers, K. N. Kudin, 
 V. N. Staroverov, T. A. Keith, R. Kobayashi, J. Normand, 
 K. Raghavachari, A. P. Rendell, J. C. Burant, S. S. Iyengar, 
 J. Tomasi, M. Cossi, J. M. Millam, M. Klene, C. Adamo, R. Cammi, 
 J. W. Ochterski, R. L. Martin, K. Morokuma, O. Farkas, 
 J. B. Foresman, and D. J. Fox, Gaussian, Inc., Wallingford CT, 2016.
 
 ******************************************
 Gaussian 16:  ES64L-G16RevA.03 25-Dec-2016
                26-Aug-2022 
 ******************************************
 %NProcShared=4
 Will use up to    4 processors via shared memory.
 %Mem=4GB
 %Chk=H2O_H2O_153.chk
 ------------------
 #p CCSD(T)/cc-pVTZ
 ------------------
 1/38=1,172=1/1;
 2/12=2,17=6,18=5,40=1/2;
 3/5=16,6=1,11=9,25=1,30=1/1,2,3;
 4//1;
 5/5=2,38=5/2;
 8/6=4,9=120000,10=1/1,4;
 9/5=7,14=2/13;
 6/7=2,8=2,9=2,10=2/1;
 99/5=1,9=1/99;
 Leave Link    1 at Fri Aug 26 13:23:31 2022, MaxMem=   536870912 cpu:               0.4 elap:               0.2
 (Enter /usr/site/hpc/x86_64/glibc-2.17/broadwell/gaussian/g16_a.03/pgi-16.5/g16/l101.exe)
 -----------
 H2O_H2O_153
 -----------
 Symbolic Z-matrix:
 Charge =  0 Multiplicity = 1
 O                     0.       -0.00983   0. 
 H                    -0.79957  -0.58097   0. 
 H                     0.79957  -0.58097   0. 
 O                    -0.00192   1.75673   0. 
 H                     0.67087   2.47287   0. 
 H                    -0.89755   2.1609    0. 
 
 ITRead=  0  0  0  0  0  0
 MicOpt= -1 -1 -1 -1 -1 -1
 NAtoms=      6 NQM=        6 NQMF=       0 NMMI=      0 NMMIF=      0
                NMic=       0 NMicF=      0.
                    Isotopes and Nuclear Properties:
 (Nuclear quadrupole moments (NQMom) in fm**2, nuclear magnetic moments (NMagM)
  in nuclear magnetons)

  Atom         1           2           3           4           5           6
 IAtWgt=          16           1           1          16           1           1
 AtmWgt=  15.9949146   1.0078250   1.0078250  15.9949146   1.0078250   1.0078250
 NucSpn=           0           1           1           0           1           1
 AtZEff=  -0.0000000  -0.0000000  -0.0000000  -0.0000000  -0.0000000  -0.0000000
 NQMom=    0.0000000   0.0000000   0.0000000   0.0000000   0.0000000   0.0000000
 NMagM=    0.0000000   2.7928460   2.7928460   0.0000000   2.7928460   2.7928460
 AtZNuc=   8.0000000   1.0000000   1.0000000   8.0000000   1.0000000   1.0000000
 Leave Link  101 at Fri Aug 26 13:23:31 2022, MaxMem=   536870912 cpu:               0.4 elap:               0.1
 (Enter /usr/site/hpc/x86_64/glibc-2.17/broadwell/gaussian/g16_a.03/pgi-16.5/g16/l202.exe)
                          Input orientation:                          
 ---------------------------------------------------------------------
 Center     Atomic      Atomic             Coordinates (Angstroms)
 Number     Number       Type             X           Y           Z
 ---------------------------------------------------------------------
      1          8           0        0.000000   -0.009833    0.000000
      2          1           0       -0.799571   -0.580965    0.000000
      3          1           0        0.799571   -0.580965    0.000000
      4          8           0       -0.001918    1.756727    0.000000
      5          1           0        0.670867    2.472873    0.000000
      6          1           0       -0.897548    2.160896    0.000000
 ---------------------------------------------------------------------
                    Distance matrix (angstroms):
                    1          2          3          4          5
     1  O    0.000000
     2  H    0.982601   0.000000
     3  H    0.982601   1.599142   0.000000
     4  O    1.766561   2.470031   2.471273   0.000000
     5  H    2.571749   3.389412   3.056549   0.982601   0.000000
     6  H    2.348969   2.743611   3.224595   0.982601   1.599142
                    6
     6  H    0.000000
 Stoichiometry    H4O2
 Framework group  CS[SG(H4O2)]
 Deg. of freedom     9
 Full point group                 CS      NOp   2
 Largest Abelian subgroup         CS      NOp   2
 Largest concise Abelian subgroup C1      NOp   1
                         Standard orientation:                         
 ---------------------------------------------------------------------
 Center     Atomic      Atomic             Coordinates (Angstroms)
 Number     Number       Type             X           Y           Z
 ---------------------------------------------------------------------
      1          8           0        0.011143   -0.882195    0.000000
      2          1           0       -0.789047   -1.452459    0.000000
      3          1           0        0.810094   -1.454195    0.000000
      4          8           0        0.011143    0.884366    0.000000
      5          1           0        0.684706    1.599781    0.000000
      6          1           0       -0.884047    1.289507    0.000000
 ---------------------------------------------------------------------
 Rotational constants (GHZ):         198.0392411          15.0991334          14.0294817
 Leave Link  202 at Fri Aug 26 13:23:31 2022, MaxMem=   536870912 cpu:               0.1 elap:               0.0
 (Enter /usr/site/hpc/x86_64/glibc-2.17/broadwell/gaussian/g16_a.03/pgi-16.5/g16/l301.exe)
 Standard basis: CC-pVTZ (5D, 7F)
 Ernie: Thresh=  0.10000D-02 Tol=  0.10000D-05 Strict=F.
 Ernie:  6 primitive shells out of 84 were deleted.
 There are    92 symmetry adapted cartesian basis functions of A'  symmetry.
 There are    38 symmetry adapted cartesian basis functions of A"  symmetry.
 There are    80 symmetry adapted basis functions of A'  symmetry.
 There are    36 symmetry adapted basis functions of A"  symmetry.
   116 basis functions,   172 primitive gaussians,   130 cartesian basis functions
    10 alpha electrons       10 beta electrons
       nuclear repulsion energy        44.6282482627 Hartrees.
 IExCor=    0 DFT=F Ex=HF Corr=None ExCW=0 ScaHFX=  1.000000
 ScaDFX=  1.000000  1.000000  1.000000  1.000000 ScalE2=  1.000000  1.000000
 IRadAn=      5 IRanWt=     -1 IRanGd=            0 ICorTp=0 IEmpDi=  4
 NAtoms=    6 NActive=    6 NUniq=    6 SFac= 1.00D+00 NAtFMM=   60 NAOKFM=F Big=F
 Integral buffers will be    131072 words long.
 Raffenetti 1 integral format.
 Two-electron integral symmetry is turned on.
 Leave Link  301 at Fri Aug 26 13:23:31 2022, MaxMem=   536870912 cpu:               0.3 elap:               0.1
 (Enter /usr/site/hpc/x86_64/glibc-2.17/broadwell/gaussian/g16_a.03/pgi-16.5/g16/l302.exe)
 NPDir=0 NMtPBC=     1 NCelOv=     1 NCel=       1 NClECP=     1 NCelD=      1
         NCelK=      1 NCelE2=     1 NClLst=     1 CellRange=     0.0.
 One-electron integrals computed using PRISM.
 One-electron integral symmetry used in STVInt
 NBasis=   116 RedAO= T EigKep=  1.82D-03  NBF=    80    36
 NBsUse=   116 1.00D-06 EigRej= -1.00D+00 NBFU=    80    36
 Leave Link  302 at Fri Aug 26 13:23:31 2022, MaxMem=   536870912 cpu:               0.6 elap:               0.2
 (Enter /usr/site/hpc/x86_64/glibc-2.17/broadwell/gaussian/g16_a.03/pgi-16.5/g16/l303.exe)
 DipDrv:  MaxL=1.
 Leave Link  303 at Fri Aug 26 13:23:31 2022, MaxMem=   536870912 cpu:               0.2 elap:               0.1
 (Enter /usr/site/hpc/x86_64/glibc-2.17/broadwell/gaussian/g16_a.03/pgi-16.5/g16/l401.exe)
 ExpMin= 1.03D-01 ExpMax= 1.53D+04 ExpMxC= 5.22D+02 IAcc=3 IRadAn=         5 AccDes= 0.00D+00
 Harris functional with IExCor=  205 and IRadAn=       5 diagonalized for initial guess.
 HarFok:  IExCor=  205 AccDes= 0.00D+00 IRadAn=         5 IDoV= 1 UseB2=F ITyADJ=14
 ICtDFT=  3500011 ScaDFX=  1.000000  1.000000  1.000000  1.000000
 FoFCou: FMM=F IPFlag=           0 FMFlag=      100000 FMFlg1=           0
         NFxFlg=           0 DoJE=T BraDBF=F KetDBF=T FulRan=T
         wScrn=  0.000000 ICntrl=       500 IOpCl=  0 I1Cent=   200000004 NGrid=           0
         NMat0=    1 NMatS0=      1 NMatT0=    0 NMatD0=    1 NMtDS0=    0 NMtDT0=    0
 Petite list used in FoFCou.
 Harris En= -152.222494890054    
 JPrj=0 DoOrth=F DoCkMO=F.
 Initial guess orbital symmetries:
       Occupied  (A') (A') (A') (A') (A') (A') (A') (A") (A") (A')
       Virtual   (A') (A') (A') (A') (A') (A') (A') (A') (A') (A")
                 (A") (A') (A') (A") (A") (A") (A') (A') (A') (A')
                 (A") (A') (A') (A') (A') (A') (A') (A") (A') (A')
                 (A") (A") (A") (A') (A') (A') (A') (A') (A') (A')
                 (A') (A') (A") (A") (A') (A") (A") (A") (A') (A')
                 (A') (A") (A') (A') (A') (A") (A') (A") (A") (A')
                 (A') (A') (A") (A") (A') (A') (A") (A') (A") (A")
                 (A') (A') (A') (A') (A') (A') (A') (A') (A') (A')
                 (A") (A") (A') (A') (A") (A") (A") (A") (A') (A")
                 (A') (A") (A') (A") (A") (A') (A') (A') (A') (A')
                 (A') (A') (A') (A') (A') (A')
 The electronic state of the initial guess is 1-A'.
 Leave Link  401 at Fri Aug 26 13:23:32 2022, MaxMem=   536870912 cpu:               1.3 elap:               0.3
 (Enter /usr/site/hpc/x86_64/glibc-2.17/broadwell/gaussian/g16_a.03/pgi-16.5/g16/l502.exe)
 Keep R1 ints in memory in symmetry-blocked form, NReq=34823457.
 FoFCou: FMM=F IPFlag=           0 FMFlag=           0 FMFlg1=           0
         NFxFlg=           0 DoJE=F BraDBF=F KetDBF=F FulRan=T
         wScrn=  0.000000 ICntrl=       600 IOpCl=  0 I1Cent=           0 NGrid=           0
         NMat0=    1 NMatS0=   6786 NMatT0=    0 NMatD0=    1 NMtDS0=    0 NMtDT0=    0
 Petite list used in FoFCou.
 Closed shell SCF:
 Using DIIS extrapolation, IDIIS=  1040.
 NGot=   536870912 LenX=   525040673 LenY=   525023332
 Requested convergence on RMS density matrix=1.00D-08 within 128 cycles.
 Requested convergence on MAX density matrix=1.00D-06.
 Requested convergence on             energy=1.00D-06.
 No special actions if energy rises.

 Cycle   1  Pass 1  IDiag  1:
 E= -151.765007002409    
 DIIS: error= 6.68D-02 at cycle   1 NSaved=   1.
 NSaved= 1 IEnMin= 1 EnMin= -151.765007002409     IErMin= 1 ErrMin= 6.68D-02
 ErrMax= 6.68D-02  0.00D+00 EMaxC= 1.00D-01 BMatC= 4.58D-01 BMatP= 4.58D-01
 IDIUse=3 WtCom= 3.32D-01 WtEn= 6.68D-01
 Coeff-Com:  0.100D+01
 Coeff-En:   0.100D+01
 Coeff:      0.100D+01
 Gap=     0.353 Goal=   None    Shift=    0.000
 GapD=    0.353 DampG=1.000 DampE=0.500 DampFc=0.5000 IDamp=-1.
 Damping current iteration by 5.00D-01
 RMSDP=6.42D-03 MaxDP=2.40D-01              OVMax= 2.02D-01

 Cycle   2  Pass 1  IDiag  1:
 E= -151.881432376642     Delta-E=       -0.116425374232 Rises=F Damp=T
 DIIS: error= 2.41D-02 at cycle   2 NSaved=   2.
 NSaved= 2 IEnMin= 2 EnMin= -151.881432376642     IErMin= 2 ErrMin= 2.41D-02
 ErrMax= 2.41D-02  0.00D+00 EMaxC= 1.00D-01 BMatC= 5.51D-02 BMatP= 4.58D-01
 IDIUse=3 WtCom= 7.59D-01 WtEn= 2.41D-01
 Coeff-Com: -0.260D+00 0.126D+01
 Coeff-En:   0.000D+00 0.100D+01
 Coeff:     -0.198D+00 0.120D+01
 Gap=     0.522 Goal=   None    Shift=    0.000
 RMSDP=8.66D-04 MaxDP=2.92D-02 DE=-1.16D-01 OVMax= 1.02D-01

 Cycle   3  Pass 1  IDiag  1:
 E= -151.985605831565     Delta-E=       -0.104173454923 Rises=F Damp=F
 DIIS: error= 4.32D-03 at cycle   3 NSaved=   3.
 NSaved= 3 IEnMin= 3 EnMin= -151.985605831565     IErMin= 3 ErrMin= 4.32D-03
 ErrMax= 4.32D-03  0.00D+00 EMaxC= 1.00D-01 BMatC= 1.07D-03 BMatP= 5.51D-02
 IDIUse=3 WtCom= 9.57D-01 WtEn= 4.32D-02
 Coeff-Com: -0.521D-01 0.375D-01 0.101D+01
 Coeff-En:   0.000D+00 0.000D+00 0.100D+01
 Coeff:     -0.499D-01 0.359D-01 0.101D+01
 Gap=     0.519 Goal=   None    Shift=    0.000
 RMSDP=1.40D-04 MaxDP=2.80D-03 DE=-1.04D-01 OVMax= 8.22D-03

 Cycle   4  Pass 1  IDiag  1:
 E= -151.986538005436     Delta-E=       -0.000932173871 Rises=F Damp=F
 DIIS: error= 7.04D-04 at cycle   4 NSaved=   4.
 NSaved= 4 IEnMin= 4 EnMin= -151.986538005436     IErMin= 4 ErrMin= 7.04D-04
 ErrMax= 7.04D-04  0.00D+00 EMaxC= 1.00D-01 BMatC= 3.07D-05 BMatP= 1.07D-03
 IDIUse=3 WtCom= 9.93D-01 WtEn= 7.04D-03
 Coeff-Com:  0.246D-01-0.300D-01-0.359D+00 0.136D+01
 Coeff-En:   0.000D+00 0.000D+00 0.000D+00 0.100D+01
 Coeff:      0.245D-01-0.298D-01-0.357D+00 0.136D+01
 Gap=     0.521 Goal=   None    Shift=    0.000
 RMSDP=8.78D-05 MaxDP=2.91D-03 DE=-9.32D-04 OVMax= 2.67D-03

 Cycle   5  Pass 1  IDiag  1:
 E= -151.986597895672     Delta-E=       -0.000059890236 Rises=F Damp=F
 DIIS: error= 1.58D-04 at cycle   5 NSaved=   5.
 NSaved= 5 IEnMin= 5 EnMin= -151.986597895672     IErMin= 5 ErrMin= 1.58D-04
 ErrMax= 1.58D-04  0.00D+00 EMaxC= 1.00D-01 BMatC= 1.02D-06 BMatP= 3.07D-05
 IDIUse=3 WtCom= 9.98D-01 WtEn= 1.58D-03
 Coeff-Com:  0.208D-02-0.174D-02-0.371D-01-0.291D-01 0.107D+01
 Coeff-En:   0.000D+00 0.000D+00 0.000D+00 0.000D+00 0.100D+01
 Coeff:      0.207D-02-0.174D-02-0.370D-01-0.291D-01 0.107D+01
 Gap=     0.521 Goal=   None    Shift=    0.000
 RMSDP=1.29D-05 MaxDP=2.65D-04 DE=-5.99D-05 OVMax= 4.91D-04

 Cycle   6  Pass 1  IDiag  1:
 E= -151.986599974136     Delta-E=       -0.000002078464 Rises=F Damp=F
 DIIS: error= 4.23D-05 at cycle   6 NSaved=   6.
 NSaved= 6 IEnMin= 6 EnMin= -151.986599974136     IErMin= 6 ErrMin= 4.23D-05
 ErrMax= 4.23D-05  0.00D+00 EMaxC= 1.00D-01 BMatC= 7.06D-08 BMatP= 1.02D-06
 IDIUse=1 WtCom= 1.00D+00 WtEn= 0.00D+00
 Coeff-Com: -0.163D-02 0.172D-02 0.282D-01-0.748D-01-0.167D+00 0.121D+01
 Coeff:     -0.163D-02 0.172D-02 0.282D-01-0.748D-01-0.167D+00 0.121D+01
 Gap=     0.521 Goal=   None    Shift=    0.000
 RMSDP=7.11D-06 MaxDP=2.16D-04 DE=-2.08D-06 OVMax= 2.24D-04

 Cycle   7  Pass 1  IDiag  1:
 E= -151.986600141075     Delta-E=       -0.000000166939 Rises=F Damp=F
 DIIS: error= 9.76D-06 at cycle   7 NSaved=   7.
 NSaved= 7 IEnMin= 7 EnMin= -151.986600141075     IErMin= 7 ErrMin= 9.76D-06
 ErrMax= 9.76D-06  0.00D+00 EMaxC= 1.00D-01 BMatC= 4.91D-09 BMatP= 7.06D-08
 IDIUse=1 WtCom= 1.00D+00 WtEn= 0.00D+00
 Coeff-Com:  0.165D-03-0.248D-03-0.190D-02 0.639D-02 0.257D-03-0.214D+00
 Coeff-Com:  0.121D+01
 Coeff:      0.165D-03-0.248D-03-0.190D-02 0.639D-02 0.257D-03-0.214D+00
 Coeff:      0.121D+01
 Gap=     0.521 Goal=   None    Shift=    0.000
 RMSDP=1.89D-06 MaxDP=5.79D-05 DE=-1.67D-07 OVMax= 7.48D-05

 Cycle   8  Pass 1  IDiag  1:
 E= -151.986600152767     Delta-E=       -0.000000011693 Rises=F Damp=F
 DIIS: error= 2.68D-06 at cycle   8 NSaved=   8.
 NSaved= 8 IEnMin= 8 EnMin= -151.986600152767     IErMin= 8 ErrMin= 2.68D-06
 ErrMax= 2.68D-06  0.00D+00 EMaxC= 1.00D-01 BMatC= 8.85D-10 BMatP= 4.91D-09
 IDIUse=1 WtCom= 1.00D+00 WtEn= 0.00D+00
 Coeff-Com:  0.211D-03-0.255D-03-0.316D-02 0.836D-02 0.193D-01-0.175D+00
 Coeff-Com:  0.313D+00 0.837D+00
 Coeff:      0.211D-03-0.255D-03-0.316D-02 0.836D-02 0.193D-01-0.175D+00
 Coeff:      0.313D+00 0.837D+00
 Gap=     0.521 Goal=   None    Shift=    0.000
 RMSDP=4.34D-07 MaxDP=1.23D-05 DE=-1.17D-08 OVMax= 2.12D-05

 Cycle   9  Pass 1  IDiag  1:
 E= -151.986600154109     Delta-E=       -0.000000001342 Rises=F Damp=F
 DIIS: error= 1.27D-06 at cycle   9 NSaved=   9.
 NSaved= 9 IEnMin= 9 EnMin= -151.986600154109     IErMin= 9 ErrMin= 1.27D-06
 ErrMax= 1.27D-06  0.00D+00 EMaxC= 1.00D-01 BMatC= 8.70D-11 BMatP= 8.85D-10
 IDIUse=1 WtCom= 1.00D+00 WtEn= 0.00D+00
 Coeff-Com: -0.346D-04 0.430D-04 0.565D-03-0.143D-02-0.238D-02 0.512D-01
 Coeff-Com: -0.214D+00-0.135D+00 0.130D+01
 Coeff:     -0.346D-04 0.430D-04 0.565D-03-0.143D-02-0.238D-02 0.512D-01
 Coeff:     -0.214D+00-0.135D+00 0.130D+01
 Gap=     0.521 Goal=   None    Shift=    0.000
 RMSDP=1.97D-07 MaxDP=4.19D-06 DE=-1.34D-09 OVMax= 1.18D-05

 Cycle  10  Pass 1  IDiag  1:
 E= -151.986600154362     Delta-E=       -0.000000000252 Rises=F Damp=F
 DIIS: error= 2.68D-07 at cycle  10 NSaved=  10.
 NSaved=10 IEnMin=10 EnMin= -151.986600154362     IErMin=10 ErrMin= 2.68D-07
 ErrMax= 2.68D-07  0.00D+00 EMaxC= 1.00D-01 BMatC= 3.95D-12 BMatP= 8.70D-11
 IDIUse=1 WtCom= 1.00D+00 WtEn= 0.00D+00
 Coeff-Com: -0.854D-05 0.101D-04 0.131D-03-0.318D-03-0.153D-02 0.853D-02
 Coeff-Com: -0.328D-02-0.543D-01-0.116D+00 0.117D+01
 Coeff:     -0.854D-05 0.101D-04 0.131D-03-0.318D-03-0.153D-02 0.853D-02
 Coeff:     -0.328D-02-0.543D-01-0.116D+00 0.117D+01
 Gap=     0.521 Goal=   None    Shift=    0.000
 RMSDP=3.28D-08 MaxDP=5.27D-07 DE=-2.52D-10 OVMax= 2.17D-06

 Cycle  11  Pass 1  IDiag  1:
 E= -151.986600154373     Delta-E=       -0.000000000011 Rises=F Damp=F
 DIIS: error= 5.10D-08 at cycle  11 NSaved=  11.
 NSaved=11 IEnMin=11 EnMin= -151.986600154373     IErMin=11 ErrMin= 5.10D-08
 ErrMax= 5.10D-08  0.00D+00 EMaxC= 1.00D-01 BMatC= 1.49D-13 BMatP= 3.95D-12
 IDIUse=1 WtCom= 1.00D+00 WtEn= 0.00D+00
 Coeff-Com:  0.269D-05-0.332D-05-0.439D-04 0.101D-03 0.127D-03-0.342D-02
 Coeff-Com:  0.149D-01 0.108D-01-0.797D-01-0.417D-01 0.110D+01
 Coeff:      0.269D-05-0.332D-05-0.439D-04 0.101D-03 0.127D-03-0.342D-02
 Coeff:      0.149D-01 0.108D-01-0.797D-01-0.417D-01 0.110D+01
 Gap=     0.521 Goal=   None    Shift=    0.000
 RMSDP=7.43D-09 MaxDP=1.97D-07 DE=-1.11D-11 OVMax= 2.87D-07

 SCF Done:  E(RHF) =  -151.986600154     A.U. after   11 cycles
            NFock= 11  Conv=0.74D-08     -V/T= 1.9972
 KE= 1.524182217081D+02 PE=-4.517164111528D+02 EE= 1.026833410276D+02
 Leave Link  502 at Fri Aug 26 13:23:33 2022, MaxMem=   536870912 cpu:               5.8 elap:               1.6
 (Enter /usr/site/hpc/x86_64/glibc-2.17/broadwell/gaussian/g16_a.03/pgi-16.5/g16/l801.exe)
 Windowed orbitals will be sorted by symmetry type.
 ExpMin= 1.03D-01 ExpMax= 1.53D+04 ExpMxC= 5.22D+02 IAcc=3 IRadAn=         5 AccDes= 0.00D+00
 HarFok:  IExCor=  205 AccDes= 0.00D+00 IRadAn=         5 IDoV=-2 UseB2=F ITyADJ=14
 ICtDFT= 12500011 ScaDFX=  1.000000  1.000000  1.000000  1.000000
 Largest valence mixing into a core orbital is  1.12D-04
 Largest core mixing into a valence orbital is  2.11D-05
 Range of M.O.s used for correlation:     3   116
 NBasis=   116 NAE=    10 NBE=    10 NFC=     2 NFV=     0
 NROrb=    114 NOA=     8 NOB=     8 NVA=   106 NVB=   106
 Leave Link  801 at Fri Aug 26 13:23:33 2022, MaxMem=   536870912 cpu:               0.7 elap:               0.2
 (Enter /usr/site/hpc/x86_64/glibc-2.17/broadwell/gaussian/g16_a.03/pgi-16.5/g16/l804.exe)
 Closed-shell transformation, MDV=   536870912 ITran=4 ISComp=2.
 Unit  1 TFree=        834515 TCopy=        406125.
 Semi-Direct transformation.
 ModeAB=           2 MOrb=             8 LenV=     536358602
 LASXX=      2873146 LTotXX=     2873146 LenRXX=     2873146
 LTotAB=     2958132 MaxLAS=     7765680 LenRXY=     7765680
 NonZer=     7994592 LenScr=    12058624 LnRSAI=           0
 LnScr1=           0 LExtra=           0 Total=     22697450
 MaxDsk=          -1 SrtSym=           F ITran=            4
 DoSDTr:  NPSUse=  4
 JobTyp=0 Pass  1:  I=   1 to   8.
 (rs|ai) integrals will be sorted in core.
 Complete sort for first half transformation.
 First half transformation complete.
 Complete sort for second half transformation.
 Second half transformation complete.
 Spin components of T(2) and E(2):
     alpha-alpha T2 =       0.1695343377D-01 E2=     -0.6752440181D-01
     alpha-beta  T2 =       0.9653827618D-01 E2=     -0.4082825367D+00
     beta-beta   T2 =       0.1695343377D-01 E2=     -0.6752440181D-01
 ANorm=    0.1063223939D+01
 E2 =    -0.5433313403D+00 EUMP2 =    -0.15252993149466D+03
 Leave Link  804 at Fri Aug 26 13:23:35 2022, MaxMem=   536870912 cpu:               6.8 elap:               1.8
 (Enter /usr/site/hpc/x86_64/glibc-2.17/broadwell/gaussian/g16_a.03/pgi-16.5/g16/l913.exe)
 CIDS:  MDV=   536870912.
 Frozen-core window:  NFC=   2 NFV=   0.
 IFCWin=0 IBDFC=1 NFBD=     0     0 NFCmp=     0     0 NFFFC=     0     0
 Using DD3R+UMP44R for 1st iteration.
 Using DD4RQ for 2nd and later iterations.
 Keep R2 and R3 ints in memory in symmetry-blocked form, NReq=35357534.
 FoFCou: FMM=F IPFlag=           0 FMFlag=           0 FMFlg1=           0
         NFxFlg=           0 DoJE=F BraDBF=F KetDBF=F FulRan=T
         wScrn=  0.000000 ICntrl=       600 IOpCl=  0 I1Cent=           0 NGrid=           0
         NMat0=    1 NMatS0=   6786 NMatT0=    0 NMatD0=    1 NMtDS0=    0 NMtDT0=    0
 Petite list used in FoFCou.
 CIDS: In Core Option IDoMem=           1.
 CCSD(T)
 =======
 Iterations=  50 Convergence= 0.100D-06
 Produce multiple copies of IABC intergrals
 Iteration Nr.   1
 **********************
 DD1Dir will call FoFMem   1 times, MxPair=        72
 NAB=    36 NAA=     0 NBB=     0.
 MP4(R+Q)=  0.86318031D-02
 Maximum subspace dimension=  5
 A-vector RMS=  2.4776045D-03 Max=  2.2315791D-02 conv= 1.00D-05.
 RLE energy=       -0.5381338408
 E3=       -0.34659890D-02        EUMP3=      -0.15253339748D+03
 E4(DQ)=   -0.15737300D-02        UMP4(DQ)=   -0.15253497121D+03
 E4(SDQ)=  -0.55525892D-02        UMP4(SDQ)=  -0.15253895007D+03
 VARIATIONAL ENERGIES WITH THE FIRST-ORDER WAVEFUNCTION:
 DE(Corr)= -0.53808365     E(Corr)=     -152.52468381    
 NORM(A)=   0.10624500D+01
 Iteration Nr.   2
 **********************
 DD1Dir will call FoFMem   1 times, MxPair=        72
 NAB=    36 NAA=     0 NBB=     0.
 A-vector RMS=  2.9182892D-04 Max=  4.6114811D-03 conv= 1.00D-05.
 RLE energy=       -0.5505137325
 DE(Corr)= -0.54969527     E(CORR)=     -152.53629543     Delta=-1.16D-02
 NORM(A)=   0.10668399D+01
 Iteration Nr.   3
 **********************
 DD1Dir will call FoFMem   1 times, MxPair=        72
 NAB=    36 NAA=     0 NBB=     0.
 A-vector RMS=  4.6062693D-04 Max=  6.1018996D-03 conv= 1.00D-05.
 RLE energy=       -0.5511854777
 DE(Corr)= -0.55037450     E(CORR)=     -152.53697466     Delta=-6.79D-04
 NORM(A)=   0.10678068D+01
 Iteration Nr.   4
 **********************
 DD1Dir will call FoFMem   1 times, MxPair=        72
 NAB=    36 NAA=     0 NBB=     0.
 A-vector RMS=  8.1025363D-05 Max=  1.0956258D-03 conv= 1.00D-05.
 RLE energy=       -0.5512677713
 DE(Corr)= -0.55119232     E(CORR)=     -152.53779247     Delta=-8.18D-04
 NORM(A)=   0.10680973D+01
 Iteration Nr.   5
 **********************
 DD1Dir will call FoFMem   1 times, MxPair=        72
 NAB=    36 NAA=     0 NBB=     0.
 A-vector RMS=  7.5006792D-05 Max=  1.0180967D-03 conv= 1.00D-05.
 RLE energy=       -0.5513130934
 DE(Corr)= -0.55128796     E(CORR)=     -152.53788812     Delta=-9.56D-05
 NORM(A)=   0.10682278D+01
 Iteration Nr.   6
 **********************
 DD1Dir will call FoFMem   1 times, MxPair=        72
 NAB=    36 NAA=     0 NBB=     0.
 A-vector RMS=  2.0861682D-05 Max=  2.3182094D-04 conv= 1.00D-05.
 RLE energy=       -0.5512922498
 DE(Corr)= -0.55130034     E(CORR)=     -152.53790049     Delta=-1.24D-05
 NORM(A)=   0.10682548D+01
 Iteration Nr.   7
 **********************
 DD1Dir will call FoFMem   1 times, MxPair=        72
 NAB=    36 NAA=     0 NBB=     0.
 A-vector RMS=  5.6931238D-06 Max=  6.6546975D-05 conv= 1.00D-05.
 RLE energy=       -0.5512943263
 DE(Corr)= -0.55130049     E(CORR)=     -152.53790064     Delta=-1.50D-07
 NORM(A)=   0.10682631D+01
 Iteration Nr.   8
 **********************
 DD1Dir will call FoFMem   1 times, MxPair=        72
 NAB=    36 NAA=     0 NBB=     0.
 A-vector RMS=  2.1712811D-06 Max=  2.5819108D-05 conv= 1.00D-05.
 RLE energy=       -0.5512981843
 DE(Corr)= -0.55129885     E(CORR)=     -152.53789901     Delta= 1.63D-06
 NORM(A)=   0.10682664D+01
 Iteration Nr.   9
 **********************
 DD1Dir will call FoFMem   1 times, MxPair=        72
 NAB=    36 NAA=     0 NBB=     0.
 A-vector RMS=  2.7616269D-07 Max=  1.7097480D-06 conv= 1.00D-05.
 RLE energy=       -0.5512988935
 DE(Corr)= -0.55129898     E(CORR)=     -152.53789913     Delta=-1.26D-07
 NORM(A)=   0.10682672D+01
 Iteration Nr.  10
 **********************
 DD1Dir will call FoFMem   1 times, MxPair=        72
 NAB=    36 NAA=     0 NBB=     0.
 A-vector RMS=  2.2169334D-07 Max=  2.9016681D-06 conv= 1.00D-05.
 RLE energy=       -0.5512992951
 DE(Corr)= -0.55129927     E(CORR)=     -152.53789942     Delta=-2.89D-07
 NORM(A)=   0.10682677D+01
 Iteration Nr.  11
 **********************
 DD1Dir will call FoFMem   1 times, MxPair=        72
 NAB=    36 NAA=     0 NBB=     0.
 A-vector RMS=  4.3363338D-08 Max=  4.1635120D-07 conv= 1.00D-05.
 RLE energy=       -0.5512994984
 DE(Corr)= -0.55129945     E(CORR)=     -152.53789960     Delta=-1.81D-07
 NORM(A)=   0.10682678D+01
 Iteration Nr.  12
 **********************
 DD1Dir will call FoFMem   1 times, MxPair=        72
 NAB=    36 NAA=     0 NBB=     0.
 A-vector RMS=  3.8315838D-08 Max=  5.0008255D-07 conv= 1.00D-05.
 RLE energy=       -0.5512995268
 DE(Corr)= -0.55129951     E(CORR)=     -152.53789966     Delta=-5.57D-08
 NORM(A)=   0.10682679D+01
 CI/CC converged in   12 iterations to DelEn=-5.57D-08 Conv= 1.00D-07 ErrA1= 3.83D-08 Conv= 1.00D-05
 Wavefunction amplitudes converged. E(Corr)=     -152.53789966    
 Largest amplitude= 3.05D-02
 IPart=  4 IA=    7   11.05% done.
 IPart=  3 IA=   13   21.46% done.
 IPart=  1 IA=   19   31.21% done.
 IPart=  2 IA=   25   40.32% done.
 IPart=  2 IA=   32   50.13% done.
 IPart=  4 IA=   40   60.27% done.
 IPart=  2 IA=   49   70.30% done.
 IPart=  1 IA=   60   80.58% done.
 IPart=  4 IA=   74   90.51% done.
 Time for triples=       76.28 seconds.
 T4(CCSD)= -0.18430089D-01
 T5(CCSD)=  0.65841682D-03
 CCSD(T)= -0.15255567133D+03
 Discarding MO integrals.
 Leave Link  913 at Fri Aug 26 13:24:08 2022, MaxMem=   536870912 cpu:             122.4 elap:              32.4
 (Enter /usr/site/hpc/x86_64/glibc-2.17/broadwell/gaussian/g16_a.03/pgi-16.5/g16/l601.exe)
 Copying SCF densities to generalized density rwf, IOpCl= 0 IROHF=0.

 **********************************************************************

            Population analysis using the SCF density.

 **********************************************************************

 Orbital symmetries:
       Occupied  (A') (A') (A') (A') (A') (A') (A') (A") (A") (A')
       Virtual   (A') (A') (A') (A') (A') (A') (A') (A') (A') (A")
                 (A') (A') (A") (A") (A") (A") (A') (A') (A') (A')
                 (A") (A') (A') (A') (A') (A') (A') (A') (A") (A')
                 (A") (A") (A') (A") (A') (A') (A') (A') (A') (A')
                 (A') (A') (A") (A") (A') (A") (A") (A') (A') (A')
                 (A") (A') (A") (A') (A") (A") (A') (A") (A') (A')
                 (A") (A') (A') (A") (A') (A') (A") (A') (A') (A")
                 (A") (A') (A') (A') (A') (A') (A') (A') (A') (A')
                 (A") (A") (A') (A') (A") (A") (A") (A") (A') (A")
                 (A') (A") (A") (A") (A') (A') (A') (A') (A') (A')
                 (A') (A') (A') (A') (A') (A')
 The electronic state is 1-A'.
 Alpha  occ. eigenvalues --  -20.51277 -20.51215  -1.34152  -1.27405  -0.69671
 Alpha  occ. eigenvalues --   -0.66370  -0.64380  -0.50900  -0.43677  -0.37529
 Alpha virt. eigenvalues --    0.14598   0.19151   0.20127   0.23059   0.50760
 Alpha virt. eigenvalues --    0.58865   0.59187   0.66895   0.68424   0.79108
 Alpha virt. eigenvalues --    0.80260   0.83865   0.84237   0.86293   0.87839
 Alpha virt. eigenvalues --    0.93969   0.98747   1.03253   1.09727   1.18444
 Alpha virt. eigenvalues --    1.23771   1.27575   1.34614   1.50077   1.51528
 Alpha virt. eigenvalues --    1.53506   1.60717   1.84391   1.88617   2.02782
 Alpha virt. eigenvalues --    2.02867   2.14377   2.15529   2.20604   2.22422
 Alpha virt. eigenvalues --    2.28746   2.46362   2.59860   2.65504   2.73716
 Alpha virt. eigenvalues --    2.90313   3.26791   3.38190   3.45490   3.50441
 Alpha virt. eigenvalues --    3.55733   3.56162   3.59722   3.61456   3.64484
 Alpha virt. eigenvalues --    3.73876   3.82539   3.92349   3.93099   3.95539
 Alpha virt. eigenvalues --    3.97569   3.99940   4.03710   4.07510   4.13264
 Alpha virt. eigenvalues --    4.18871   4.19033   4.23696   4.25413   4.31469
 Alpha virt. eigenvalues --    4.41160   4.42490   4.50125   4.66128   4.68695
 Alpha virt. eigenvalues --    4.77751   4.90357   4.92165   4.95502   5.04402
 Alpha virt. eigenvalues --    5.27344   5.42744   5.48725   5.57364   5.73667
 Alpha virt. eigenvalues --    5.88221   6.16119   6.32128   6.54552   6.85748
 Alpha virt. eigenvalues --    6.89239   6.92252   6.96043   6.97573   7.01182
 Alpha virt. eigenvalues --    7.05101   7.20655   7.22315   7.23081   7.23714
 Alpha virt. eigenvalues --    7.30652   7.35092   7.49246   7.60571   7.75122
 Alpha virt. eigenvalues --    7.85453   7.88691   8.24363   8.46654  12.56938
 Alpha virt. eigenvalues --   13.23799
          Condensed to atoms (all electrons):
               1          2          3          4          5          6
     1  O    8.270539   0.234384   0.236037  -0.426294   0.037011   0.035850
     2  H    0.234384   0.546827   0.006903   0.034453  -0.003111  -0.008122
     3  H    0.236037   0.006903   0.529622   0.038626  -0.006657  -0.003240
     4  O   -0.426294   0.034453   0.038626   8.267029   0.213799   0.252624
     5  H    0.037011  -0.003111  -0.006657   0.213799   0.582133   0.005538
     6  H    0.035850  -0.008122  -0.003240   0.252624   0.005538   0.508250
 Mulliken charges:
               1
     1  O   -0.387527
     2  H    0.188667
     3  H    0.198709
     4  O   -0.380236
     5  H    0.171287
     6  H    0.209100
 Sum of Mulliken charges =  -0.00000
 Mulliken charges with hydrogens summed into heavy atoms:
               1
     1  O   -0.000151
     4  O    0.000151
 Electronic spatial extent (au):  <R**2>=            106.6889
 Charge=             -0.0000 electrons
 Dipole moment (field-independent basis, Debye):
    X=             -0.3176    Y=             -0.0541    Z=              0.0000  Tot=              0.3222
 Quadrupole moment (field-independent basis, Debye-Ang):
   XX=             -8.4040   YY=             -7.6521   ZZ=            -14.7581
   XY=             -0.1235   XZ=              0.0000   YZ=              0.0000
 Traceless Quadrupole moment (field-independent basis, Debye-Ang):
   XX=              1.8674   YY=              2.6193   ZZ=             -4.4867
   XY=             -0.1235   XZ=              0.0000   YZ=              0.0000
 Octapole moment (field-independent basis, Debye-Ang**2):
  XXX=             -0.6825  YYY=              0.0903  ZZZ=              0.0000  XYY=              0.7535
  XXY=             -0.2171  XXZ=              0.0000  XZZ=             -0.0206  YZZ=             -0.0077
  YYZ=              0.0000  XYZ=              0.0000
 Hexadecapole moment (field-independent basis, Debye-Ang**3):
 XXXX=            -12.8859 YYYY=            -77.5907 ZZZZ=            -11.5837 XXXY=             -0.7928
 XXXZ=              0.0000 YYYX=              1.7874 YYYZ=              0.0000 ZZZX=              0.0000
 ZZZY=              0.0000 XXYY=             -8.5385 XXZZ=             -4.8407 YYZZ=            -19.1633
 XXYZ=              0.0000 YYXZ=              0.0000 ZZXY=              0.0442
 N-N= 4.462824826270D+01 E-N=-4.517164102516D+02  KE= 1.524182217081D+02
 Symmetry A'   KE= 1.433830712103D+02
 Symmetry A"   KE= 9.035150497795D+00
 Leave Link  601 at Fri Aug 26 13:24:08 2022, MaxMem=   536870912 cpu:               0.2 elap:               0.1
 (Enter /usr/site/hpc/x86_64/glibc-2.17/broadwell/gaussian/g16_a.03/pgi-16.5/g16/l9999.exe)
 1\1\GINC-N050\SP\RCCSD(T)-FC\CC-pVTZ\H4O2\C7441284\26-Aug-2022\0\\#p C
 CSD(T)/cc-pVTZ\\H2O_H2O_153\\0,1\O,0,0.,-0.009833,0.\H,0,-0.799571,-0.
 580965,0.\H,0,0.799571,-0.580965,0.\O,0,-0.001918,1.756727,0.\H,0,0.67
 0867,2.472873,0.\H,0,-0.897548,2.160896,0.\\Version=ES64L-G16RevA.03\S
 tate=1-A'\HF=-151.9866002\MP2=-152.5299315\MP3=-152.5333975\MP4D=-152.
 543603\MP4DQ=-152.5349712\MP4SDQ=-152.5389501\CCSD=-152.5378997\CCSD(T
 )=-152.5556713\RMSD=7.431e-09\PG=CS [SG(H4O2)]\\@


 ORIGINALITY CONSISTS NOT IN SAYING WHAT NO ONE HAS EVER SAID BEFORE, 
 BUT IN SAYING WHAT YOU THINK YOUR SELF.

                                    -- JAMES F. STEPHEN
 Job cpu time:       0 days  0 hours  2 minutes 19.4 seconds.
 Elapsed time:       0 days  0 hours  0 minutes 37.2 seconds.
 File lengths (MBytes):  RWF=    572 Int=      0 D2E=      0 Chk=      8 Scr=      8
 Normal termination of Gaussian 16 at Fri Aug 26 13:24:08 2022.
