 Entering Gaussian System, Link 0=g16
 Input=H2O_H2O_2054.com
 Output=H2O_H2O_2054.log
 Initial command:
 /usr/site/hpc/x86_64/glibc-2.17/broadwell/gaussian/g16_a.03/pgi-16.5/g16/l1.exe "/gpfs/gpfs1/scratch/c7441284/ForceFieldModel/FittingData/Gau-3737145.inp" -scrdir="/gpfs/gpfs1/scratch/c7441284/ForceFieldModel/FittingData/"
 Entering Link 1 = /usr/site/hpc/x86_64/glibc-2.17/broadwell/gaussian/g16_a.03/pgi-16.5/g16/l1.exe PID=   3737146.
  
 Copyright (c) 1988,1990,1992,1993,1995,1998,2003,2009,2016,
            Gaussian, Inc.  All Rights Reserved.
  
 This is part of the Gaussian(R) 16 program.  It is based on
 the Gaussian(R) 09 system (copyright 2009, Gaussian, Inc.),
 the Gaussian(R) 03 system (copyright 2003, Gaussian, Inc.),
 the Gaussian(R) 98 system (copyright 1998, Gaussian, Inc.),
 the Gaussian(R) 94 system (copyright 1995, Gaussian, Inc.),
 the Gaussian 92(TM) system (copyright 1992, Gaussian, Inc.),
 the Gaussian 90(TM) system (copyright 1990, Gaussian, Inc.),
 the Gaussian 88(TM) system (copyright 1988, Gaussian, Inc.),
 the Gaussian 86(TM) system (copyright 1986, Carnegie Mellon
 University), and the Gaussian 82(TM) system (copyright 1983,
 Carnegie Mellon University). Gaussian is a federally registered
 trademark of Gaussian, Inc.
  
 This software contains proprietary and confidential information,
 including trade secrets, belonging to Gaussian, Inc.
  
 This software is provided under written license and may be
 used, copied, transmitted, or stored only in accord with that
 written license.
  
 The following legend is applicable only to US Government
 contracts under FAR:
  
                    RESTRICTED RIGHTS LEGEND
  
 Use, reproduction and disclosure by the US Government is
 subject to restrictions as set forth in subparagraphs (a)
 and (c) of the Commercial Computer Software - Restricted
 Rights clause in FAR 52.227-19.
  
 Gaussian, Inc.
 340 Quinnipiac St., Bldg. 40, Wallingford CT 06492
  
  
 ---------------------------------------------------------------
 Warning -- This program may not be used in any manner that
 competes with the business of Gaussian, Inc. or will provide
 assistance to any competitor of Gaussian, Inc.  The licensee
 of this program is prohibited from giving any competitor of
 Gaussian, Inc. access to this program.  By using this program,
 the user acknowledges that Gaussian, Inc. is engaged in the
 business of creating and licensing software in the field of
 computational chemistry and represents and warrants to the
 licensee that it is not a competitor of Gaussian, Inc. and that
 it will not use this program in any manner prohibited above.
 ---------------------------------------------------------------
  

 Cite this work as:
 Gaussian 16, Revision A.03,
 M. J. Frisch, G. W. Trucks, H. B. Schlegel, G. E. Scuseria, 
 M. A. Robb, J. R. Cheeseman, G. Scalmani, V. Barone, 
 G. A. Petersson, H. Nakatsuji, X. Li, M. Caricato, A. V. Marenich, 
 J. Bloino, B. G. Janesko, R. Gomperts, B. Mennucci, H. P. Hratchian, 
 J. V. Ortiz, A. F. Izmaylov, J. L. Sonnenberg, D. Williams-Young, 
 F. Ding, F. Lipparini, F. Egidi, J. Goings, B. Peng, A. Petrone, 
 T. Henderson, D. Ranasinghe, V. G. Zakrzewski, J. Gao, N. Rega, 
 G. Zheng, W. Liang, M. Hada, M. Ehara, K. Toyota, R. Fukuda, 
 J. Hasegawa, M. Ishida, T. Nakajima, Y. Honda, O. Kitao, H. Nakai, 
 T. Vreven, K. Throssell, J. A. Montgomery, Jr., J. E. Peralta, 
 F. Ogliaro, M. J. Bearpark, J. J. Heyd, E. N. Brothers, K. N. Kudin, 
 V. N. Staroverov, T. A. Keith, R. Kobayashi, J. Normand, 
 K. Raghavachari, A. P. Rendell, J. C. Burant, S. S. Iyengar, 
 J. Tomasi, M. Cossi, J. M. Millam, M. Klene, C. Adamo, R. Cammi, 
 J. W. Ochterski, R. L. Martin, K. Morokuma, O. Farkas, 
 J. B. Foresman, and D. J. Fox, Gaussian, Inc., Wallingford CT, 2016.
 
 ******************************************
 Gaussian 16:  ES64L-G16RevA.03 25-Dec-2016
                27-Aug-2022 
 ******************************************
 %NProcShared=4
 Will use up to    4 processors via shared memory.
 %Mem=4GB
 %Chk=H2O_H2O_2054.chk
 ------------------
 #p CCSD(T)/cc-pVTZ
 ------------------
 1/38=1,172=1/1;
 2/12=2,17=6,18=5,40=1/2;
 3/5=16,6=1,11=9,25=1,30=1/1,2,3;
 4//1;
 5/5=2,38=5/2;
 8/6=4,9=120000,10=1/1,4;
 9/5=7,14=2/13;
 6/7=2,8=2,9=2,10=2/1;
 99/5=1,9=1/99;
 Leave Link    1 at Sat Aug 27 08:19:23 2022, MaxMem=   536870912 cpu:               0.4 elap:               0.1
 (Enter /usr/site/hpc/x86_64/glibc-2.17/broadwell/gaussian/g16_a.03/pgi-16.5/g16/l101.exe)
 ------------
 H2O_H2O_2054
 ------------
 Symbolic Z-matrix:
 Charge =  0 Multiplicity = 1
 O                     0.       -0.00983   0. 
 H                    -0.79957  -0.58097   0. 
 H                     0.79957  -0.58097   0. 
 O                    -0.00255   3.77756   0. 
 H                     0.62196   4.53617   0. 
 H                    -0.92269   4.12229   0. 
 
 ITRead=  0  0  0  0  0  0
 MicOpt= -1 -1 -1 -1 -1 -1
 NAtoms=      6 NQM=        6 NQMF=       0 NMMI=      0 NMMIF=      0
                NMic=       0 NMicF=      0.
                    Isotopes and Nuclear Properties:
 (Nuclear quadrupole moments (NQMom) in fm**2, nuclear magnetic moments (NMagM)
  in nuclear magnetons)

  Atom         1           2           3           4           5           6
 IAtWgt=          16           1           1          16           1           1
 AtmWgt=  15.9949146   1.0078250   1.0078250  15.9949146   1.0078250   1.0078250
 NucSpn=           0           1           1           0           1           1
 AtZEff=  -0.0000000  -0.0000000  -0.0000000  -0.0000000  -0.0000000  -0.0000000
 NQMom=    0.0000000   0.0000000   0.0000000   0.0000000   0.0000000   0.0000000
 NMagM=    0.0000000   2.7928460   2.7928460   0.0000000   2.7928460   2.7928460
 AtZNuc=   8.0000000   1.0000000   1.0000000   8.0000000   1.0000000   1.0000000
 Leave Link  101 at Sat Aug 27 08:19:23 2022, MaxMem=   536870912 cpu:               0.3 elap:               0.1
 (Enter /usr/site/hpc/x86_64/glibc-2.17/broadwell/gaussian/g16_a.03/pgi-16.5/g16/l202.exe)
                          Input orientation:                          
 ---------------------------------------------------------------------
 Center     Atomic      Atomic             Coordinates (Angstroms)
 Number     Number       Type             X           Y           Z
 ---------------------------------------------------------------------
      1          8           0        0.000000   -0.009833    0.000000
      2          1           0       -0.799571   -0.580965    0.000000
      3          1           0        0.799571   -0.580965    0.000000
      4          8           0       -0.002545    3.777559    0.000000
      5          1           0        0.621962    4.536174    0.000000
      6          1           0       -0.922692    4.122286    0.000000
 ---------------------------------------------------------------------
                    Distance matrix (angstroms):
                    1          2          3          4          5
     1  O    0.000000
     2  H    0.982601   0.000000
     3  H    0.982601   1.599142   0.000000
     4  O    3.787393   4.430799   4.431718   0.000000
     5  H    4.588357   5.310920   5.120220   0.982602   0.000000
     6  H    4.233883   4.704862   5.008668   0.982602   1.599143
                    6
     6  H    0.000000
 Stoichiometry    H4O2
 Framework group  CS[SG(H4O2)]
 Deg. of freedom     9
 Full point group                 CS      NOp   2
 Largest Abelian subgroup         CS      NOp   2
 Largest concise Abelian subgroup C1      NOp   1
                         Standard orientation:                         
 ---------------------------------------------------------------------
 Center     Atomic      Atomic             Coordinates (Angstroms)
 Number     Number       Type             X           Y           Z
 ---------------------------------------------------------------------
      1          8           0        0.014783   -1.891760    0.000000
      2          1           0       -0.785171   -2.462355    0.000000
      3          1           0        0.813970   -2.463429    0.000000
      4          8           0        0.014783    1.895633    0.000000
      5          1           0        0.639800    2.653828    0.000000
      6          1           0       -0.905132    2.240978    0.000000
 ---------------------------------------------------------------------
 Rotational constants (GHZ):         199.6332826           3.6330660           3.5681307
 Leave Link  202 at Sat Aug 27 08:19:23 2022, MaxMem=   536870912 cpu:               0.0 elap:               0.0
 (Enter /usr/site/hpc/x86_64/glibc-2.17/broadwell/gaussian/g16_a.03/pgi-16.5/g16/l301.exe)
 Standard basis: CC-pVTZ (5D, 7F)
 Ernie: Thresh=  0.10000D-02 Tol=  0.10000D-05 Strict=F.
 Ernie:  6 primitive shells out of 84 were deleted.
 There are    92 symmetry adapted cartesian basis functions of A'  symmetry.
 There are    38 symmetry adapted cartesian basis functions of A"  symmetry.
 There are    80 symmetry adapted basis functions of A'  symmetry.
 There are    36 symmetry adapted basis functions of A"  symmetry.
   116 basis functions,   172 primitive gaussians,   130 cartesian basis functions
    10 alpha electrons       10 beta electrons
       nuclear repulsion energy        31.0918138664 Hartrees.
 IExCor=    0 DFT=F Ex=HF Corr=None ExCW=0 ScaHFX=  1.000000
 ScaDFX=  1.000000  1.000000  1.000000  1.000000 ScalE2=  1.000000  1.000000
 IRadAn=      5 IRanWt=     -1 IRanGd=            0 ICorTp=0 IEmpDi=  4
 NAtoms=    6 NActive=    6 NUniq=    6 SFac= 1.00D+00 NAtFMM=   60 NAOKFM=F Big=F
 Integral buffers will be    131072 words long.
 Raffenetti 1 integral format.
 Two-electron integral symmetry is turned on.
 Leave Link  301 at Sat Aug 27 08:19:23 2022, MaxMem=   536870912 cpu:               0.2 elap:               0.1
 (Enter /usr/site/hpc/x86_64/glibc-2.17/broadwell/gaussian/g16_a.03/pgi-16.5/g16/l302.exe)
 NPDir=0 NMtPBC=     1 NCelOv=     1 NCel=       1 NClECP=     1 NCelD=      1
         NCelK=      1 NCelE2=     1 NClLst=     1 CellRange=     0.0.
 One-electron integrals computed using PRISM.
 One-electron integral symmetry used in STVInt
 NBasis=   116 RedAO= T EigKep=  2.41D-03  NBF=    80    36
 NBsUse=   116 1.00D-06 EigRej= -1.00D+00 NBFU=    80    36
 Leave Link  302 at Sat Aug 27 08:19:23 2022, MaxMem=   536870912 cpu:               0.4 elap:               0.1
 (Enter /usr/site/hpc/x86_64/glibc-2.17/broadwell/gaussian/g16_a.03/pgi-16.5/g16/l303.exe)
 DipDrv:  MaxL=1.
 Leave Link  303 at Sat Aug 27 08:19:24 2022, MaxMem=   536870912 cpu:               0.1 elap:               0.0
 (Enter /usr/site/hpc/x86_64/glibc-2.17/broadwell/gaussian/g16_a.03/pgi-16.5/g16/l401.exe)
 ExpMin= 1.03D-01 ExpMax= 1.53D+04 ExpMxC= 5.22D+02 IAcc=3 IRadAn=         5 AccDes= 0.00D+00
 Harris functional with IExCor=  205 and IRadAn=       5 diagonalized for initial guess.
 HarFok:  IExCor=  205 AccDes= 0.00D+00 IRadAn=         5 IDoV= 1 UseB2=F ITyADJ=14
 ICtDFT=  3500011 ScaDFX=  1.000000  1.000000  1.000000  1.000000
 FoFCou: FMM=F IPFlag=           0 FMFlag=      100000 FMFlg1=           0
         NFxFlg=           0 DoJE=T BraDBF=F KetDBF=T FulRan=T
         wScrn=  0.000000 ICntrl=       500 IOpCl=  0 I1Cent=   200000004 NGrid=           0
         NMat0=    1 NMatS0=      1 NMatT0=    0 NMatD0=    1 NMtDS0=    0 NMtDT0=    0
 Petite list used in FoFCou.
 Harris En= -152.299038335057    
 JPrj=0 DoOrth=F DoCkMO=F.
 Initial guess orbital symmetries:
       Occupied  (A') (A') (A') (A') (A') (A') (A') (A') (A") (A")
       Virtual   (A') (A') (A') (A') (A') (A') (A') (A') (A') (A")
                 (A') (A") (A') (A') (A') (A") (A") (A') (A") (A")
                 (A') (A') (A') (A') (A') (A') (A') (A') (A") (A")
                 (A") (A") (A') (A') (A') (A') (A') (A') (A') (A')
                 (A') (A') (A") (A") (A') (A') (A") (A") (A") (A")
                 (A') (A') (A') (A') (A') (A') (A") (A") (A') (A')
                 (A') (A') (A") (A") (A") (A") (A') (A') (A') (A')
                 (A") (A") (A') (A') (A') (A') (A') (A') (A') (A')
                 (A") (A") (A') (A') (A") (A") (A") (A") (A') (A')
                 (A") (A") (A') (A') (A') (A') (A") (A") (A') (A')
                 (A') (A') (A') (A') (A') (A')
 The electronic state of the initial guess is 1-A'.
 Leave Link  401 at Sat Aug 27 08:19:24 2022, MaxMem=   536870912 cpu:               0.7 elap:               0.2
 (Enter /usr/site/hpc/x86_64/glibc-2.17/broadwell/gaussian/g16_a.03/pgi-16.5/g16/l502.exe)
 Keep R1 ints in memory in symmetry-blocked form, NReq=34823457.
 FoFCou: FMM=F IPFlag=           0 FMFlag=           0 FMFlg1=           0
         NFxFlg=           0 DoJE=F BraDBF=F KetDBF=F FulRan=T
         wScrn=  0.000000 ICntrl=       600 IOpCl=  0 I1Cent=           0 NGrid=           0
         NMat0=    1 NMatS0=   6786 NMatT0=    0 NMatD0=    1 NMtDS0=    0 NMtDT0=    0
 Petite list used in FoFCou.
 Closed shell SCF:
 Using DIIS extrapolation, IDIIS=  1040.
 NGot=   536870912 LenX=   525040673 LenY=   525023332
 Requested convergence on RMS density matrix=1.00D-08 within 128 cycles.
 Requested convergence on MAX density matrix=1.00D-06.
 Requested convergence on             energy=1.00D-06.
 No special actions if energy rises.

 Cycle   1  Pass 1  IDiag  1:
 E= -151.921939581305    
 DIIS: error= 6.61D-02 at cycle   1 NSaved=   1.
 NSaved= 1 IEnMin= 1 EnMin= -151.921939581305     IErMin= 1 ErrMin= 6.61D-02
 ErrMax= 6.61D-02  0.00D+00 EMaxC= 1.00D-01 BMatC= 4.02D-01 BMatP= 4.02D-01
 IDIUse=3 WtCom= 3.39D-01 WtEn= 6.61D-01
 Coeff-Com:  0.100D+01
 Coeff-En:   0.100D+01
 Coeff:      0.100D+01
 Gap=     0.507 Goal=   None    Shift=    0.000
 GapD=    0.507 DampG=2.000 DampE=0.500 DampFc=1.0000 IDamp=-1.
 RMSDP=2.59D-03 MaxDP=6.55D-02              OVMax= 1.29D-01

 Cycle   2  Pass 1  IDiag  1:
 E= -152.034423839183     Delta-E=       -0.112484257878 Rises=F Damp=F
 DIIS: error= 4.18D-02 at cycle   2 NSaved=   2.
 NSaved= 2 IEnMin= 2 EnMin= -152.034423839183     IErMin= 2 ErrMin= 4.18D-02
 ErrMax= 4.18D-02  0.00D+00 EMaxC= 1.00D-01 BMatC= 1.15D-01 BMatP= 4.02D-01
 IDIUse=3 WtCom= 5.82D-01 WtEn= 4.18D-01
 Coeff-Com:  0.322D+00 0.678D+00
 Coeff-En:   0.171D+00 0.829D+00
 Coeff:      0.259D+00 0.741D+00
 Gap=     0.654 Goal=   None    Shift=    0.000
 RMSDP=1.39D-03 MaxDP=3.94D-02 DE=-1.12D-01 OVMax= 5.80D-02

 Cycle   3  Pass 1  IDiag  1:
 E= -152.100981513997     Delta-E=       -0.066557674814 Rises=F Damp=F
 DIIS: error= 9.03D-03 at cycle   3 NSaved=   3.
 NSaved= 3 IEnMin= 3 EnMin= -152.100981513997     IErMin= 3 ErrMin= 9.03D-03
 ErrMax= 9.03D-03  0.00D+00 EMaxC= 1.00D-01 BMatC= 6.07D-03 BMatP= 1.15D-01
 IDIUse=3 WtCom= 9.10D-01 WtEn= 9.03D-02
 Coeff-Com: -0.308D-01 0.155D+00 0.876D+00
 Coeff-En:   0.000D+00 0.000D+00 0.100D+01
 Coeff:     -0.281D-01 0.141D+00 0.887D+00
 Gap=     0.626 Goal=   None    Shift=    0.000
 RMSDP=2.55D-04 MaxDP=5.66D-03 DE=-6.66D-02 OVMax= 1.36D-02

 Cycle   4  Pass 1  IDiag  1:
 E= -152.104786395032     Delta-E=       -0.003804881036 Rises=F Damp=F
 DIIS: error= 8.72D-04 at cycle   4 NSaved=   4.
 NSaved= 4 IEnMin= 4 EnMin= -152.104786395032     IErMin= 4 ErrMin= 8.72D-04
 ErrMax= 8.72D-04  0.00D+00 EMaxC= 1.00D-01 BMatC= 3.96D-05 BMatP= 6.07D-03
 IDIUse=3 WtCom= 9.91D-01 WtEn= 8.72D-03
 Coeff-Com:  0.677D-02-0.610D-01-0.238D+00 0.129D+01
 Coeff-En:   0.000D+00 0.000D+00 0.000D+00 0.100D+01
 Coeff:      0.671D-02-0.605D-01-0.236D+00 0.129D+01
 Gap=     0.629 Goal=   None    Shift=    0.000
 RMSDP=5.41D-05 MaxDP=1.03D-03 DE=-3.80D-03 OVMax= 2.44D-03

 Cycle   5  Pass 1  IDiag  1:
 E= -152.104839894739     Delta-E=       -0.000053499706 Rises=F Damp=F
 DIIS: error= 1.98D-04 at cycle   5 NSaved=   5.
 NSaved= 5 IEnMin= 5 EnMin= -152.104839894739     IErMin= 5 ErrMin= 1.98D-04
 ErrMax= 1.98D-04  0.00D+00 EMaxC= 1.00D-01 BMatC= 1.43D-06 BMatP= 3.96D-05
 IDIUse=3 WtCom= 9.98D-01 WtEn= 1.98D-03
 Coeff-Com:  0.668D-03-0.488D-03-0.669D-02-0.199D+00 0.121D+01
 Coeff-En:   0.000D+00 0.000D+00 0.000D+00 0.000D+00 0.100D+01
 Coeff:      0.667D-03-0.487D-03-0.668D-02-0.198D+00 0.120D+01
 Gap=     0.630 Goal=   None    Shift=    0.000
 RMSDP=1.40D-05 MaxDP=2.85D-04 DE=-5.35D-05 OVMax= 7.01D-04

 Cycle   6  Pass 1  IDiag  1:
 E= -152.104842858253     Delta-E=       -0.000002963515 Rises=F Damp=F
 DIIS: error= 3.18D-05 at cycle   6 NSaved=   6.
 NSaved= 6 IEnMin= 6 EnMin= -152.104842858253     IErMin= 6 ErrMin= 3.18D-05
 ErrMax= 3.18D-05  0.00D+00 EMaxC= 1.00D-01 BMatC= 4.00D-08 BMatP= 1.43D-06
 IDIUse=1 WtCom= 1.00D+00 WtEn= 0.00D+00
 Coeff-Com: -0.301D-03 0.179D-02 0.774D-02-0.420D-02-0.261D+00 0.126D+01
 Coeff:     -0.301D-03 0.179D-02 0.774D-02-0.420D-02-0.261D+00 0.126D+01
 Gap=     0.630 Goal=   None    Shift=    0.000
 RMSDP=3.13D-06 MaxDP=6.98D-05 DE=-2.96D-06 OVMax= 1.65D-04

 Cycle   7  Pass 1  IDiag  1:
 E= -152.104842969328     Delta-E=       -0.000000111075 Rises=F Damp=F
 DIIS: error= 5.69D-06 at cycle   7 NSaved=   7.
 NSaved= 7 IEnMin= 7 EnMin= -152.104842969328     IErMin= 7 ErrMin= 5.69D-06
 ErrMax= 5.69D-06  0.00D+00 EMaxC= 1.00D-01 BMatC= 2.12D-09 BMatP= 4.00D-08
 IDIUse=1 WtCom= 1.00D+00 WtEn= 0.00D+00
 Coeff-Com:  0.322D-04-0.420D-03-0.169D-02 0.150D-01-0.151D-01-0.232D+00
 Coeff-Com:  0.123D+01
 Coeff:      0.322D-04-0.420D-03-0.169D-02 0.150D-01-0.151D-01-0.232D+00
 Coeff:      0.123D+01
 Gap=     0.630 Goal=   None    Shift=    0.000
 RMSDP=4.89D-07 MaxDP=1.08D-05 DE=-1.11D-07 OVMax= 3.20D-05

 Cycle   8  Pass 1  IDiag  1:
 E= -152.104842973780     Delta-E=       -0.000000004452 Rises=F Damp=F
 DIIS: error= 1.71D-06 at cycle   8 NSaved=   8.
 NSaved= 8 IEnMin= 8 EnMin= -152.104842973780     IErMin= 8 ErrMin= 1.71D-06
 ErrMax= 1.71D-06  0.00D+00 EMaxC= 1.00D-01 BMatC= 1.09D-10 BMatP= 2.12D-09
 IDIUse=1 WtCom= 1.00D+00 WtEn= 0.00D+00
 Coeff-Com:  0.594D-05 0.350D-04 0.157D-03-0.480D-02 0.193D-01 0.718D-02
 Coeff-Com: -0.370D+00 0.135D+01
 Coeff:      0.594D-05 0.350D-04 0.157D-03-0.480D-02 0.193D-01 0.718D-02
 Coeff:     -0.370D+00 0.135D+01
 Gap=     0.630 Goal=   None    Shift=    0.000
 RMSDP=1.16D-07 MaxDP=2.34D-06 DE=-4.45D-09 OVMax= 6.50D-06

 Cycle   9  Pass 1  IDiag  1:
 E= -152.104842974023     Delta-E=       -0.000000000243 Rises=F Damp=F
 DIIS: error= 2.76D-07 at cycle   9 NSaved=   9.
 NSaved= 9 IEnMin= 9 EnMin= -152.104842974023     IErMin= 9 ErrMin= 2.76D-07
 ErrMax= 2.76D-07  0.00D+00 EMaxC= 1.00D-01 BMatC= 7.26D-12 BMatP= 1.09D-10
 IDIUse=1 WtCom= 1.00D+00 WtEn= 0.00D+00
 Coeff-Com:  0.574D-06 0.234D-04 0.969D-04-0.181D-02 0.614D-02 0.728D-02
 Coeff-Com: -0.129D+00 0.325D+00 0.793D+00
 Coeff:      0.574D-06 0.234D-04 0.969D-04-0.181D-02 0.614D-02 0.728D-02
 Coeff:     -0.129D+00 0.325D+00 0.793D+00
 Gap=     0.630 Goal=   None    Shift=    0.000
 RMSDP=1.48D-08 MaxDP=3.71D-07 DE=-2.43D-10 OVMax= 9.92D-07

 Cycle  10  Pass 1  IDiag  1:
 E= -152.104842974031     Delta-E=       -0.000000000007 Rises=F Damp=F
 DIIS: error= 9.89D-08 at cycle  10 NSaved=  10.
 NSaved=10 IEnMin=10 EnMin= -152.104842974031     IErMin=10 ErrMin= 9.89D-08
 ErrMax= 9.89D-08  0.00D+00 EMaxC= 1.00D-01 BMatC= 7.08D-13 BMatP= 7.26D-12
 IDIUse=1 WtCom= 1.00D+00 WtEn= 0.00D+00
 Coeff-Com: -0.704D-06-0.428D-05-0.216D-04 0.586D-03-0.209D-02-0.245D-02
 Coeff-Com:  0.529D-01-0.195D+00 0.255D-01 0.112D+01
 Coeff:     -0.704D-06-0.428D-05-0.216D-04 0.586D-03-0.209D-02-0.245D-02
 Coeff:      0.529D-01-0.195D+00 0.255D-01 0.112D+01
 Gap=     0.630 Goal=   None    Shift=    0.000
 RMSDP=7.75D-09 MaxDP=2.21D-07 DE=-7.47D-12 OVMax= 4.62D-07

 SCF Done:  E(RHF) =  -152.104842974     A.U. after   10 cycles
            NFock= 10  Conv=0.78D-08     -V/T= 2.0020
 KE= 1.518065603795D+02 PE=-4.238269612528D+02 EE= 8.882374403295D+01
 Leave Link  502 at Sat Aug 27 08:19:25 2022, MaxMem=   536870912 cpu:               3.7 elap:               1.0
 (Enter /usr/site/hpc/x86_64/glibc-2.17/broadwell/gaussian/g16_a.03/pgi-16.5/g16/l801.exe)
 Windowed orbitals will be sorted by symmetry type.
 ExpMin= 1.03D-01 ExpMax= 1.53D+04 ExpMxC= 5.22D+02 IAcc=3 IRadAn=         5 AccDes= 0.00D+00
 HarFok:  IExCor=  205 AccDes= 0.00D+00 IRadAn=         5 IDoV=-2 UseB2=F ITyADJ=14
 ICtDFT= 12500011 ScaDFX=  1.000000  1.000000  1.000000  1.000000
 Largest valence mixing into a core orbital is  1.12D-04
 Largest core mixing into a valence orbital is  1.77D-05
 Range of M.O.s used for correlation:     3   116
 NBasis=   116 NAE=    10 NBE=    10 NFC=     2 NFV=     0
 NROrb=    114 NOA=     8 NOB=     8 NVA=   106 NVB=   106
 Leave Link  801 at Sat Aug 27 08:19:25 2022, MaxMem=   536870912 cpu:               0.3 elap:               0.1
 (Enter /usr/site/hpc/x86_64/glibc-2.17/broadwell/gaussian/g16_a.03/pgi-16.5/g16/l804.exe)
 Closed-shell transformation, MDV=   536870912 ITran=4 ISComp=2.
 Unit  1 TFree=        834515 TCopy=        406125.
 Semi-Direct transformation.
 ModeAB=           4 MOrb=             8 LenV=     536370680
 LASXX=      2873146 LTotXX=     2873146 LenRXX=     5831278
 LTotAB=     2958132 MaxLAS=     6446016 LenRXY=           0
 NonZer=     8704424 LenScr=    13107200 LnRSAI=     6446016
 LnScr1=     9961472 LExtra=           0 Total=     35345966
 MaxDsk=          -1 SrtSym=           T ITran=            4
 DoSDTr:  NPSUse=  4
 JobTyp=0 Pass  1:  I=   1 to   8.
 (rs|ai) integrals will be sorted in core.
 Complete sort for first half transformation.
 First half transformation complete.
 Complete sort for second half transformation.
 Second half transformation complete.
 Spin components of T(2) and E(2):
     alpha-alpha T2 =       0.1561336687D-01 E2=     -0.6387734571D-01
     alpha-beta  T2 =       0.9217267875D-01 E2=     -0.3986644753D+00
     beta-beta   T2 =       0.1561336687D-01 E2=     -0.6387734571D-01
 ANorm=    0.1059905379D+01
 E2 =    -0.5264191667D+00 EUMP2 =    -0.15263126214077D+03
 Leave Link  804 at Sat Aug 27 08:19:26 2022, MaxMem=   536870912 cpu:               3.5 elap:               0.9
 (Enter /usr/site/hpc/x86_64/glibc-2.17/broadwell/gaussian/g16_a.03/pgi-16.5/g16/l913.exe)
 CIDS:  MDV=   536870912.
 Frozen-core window:  NFC=   2 NFV=   0.
 IFCWin=0 IBDFC=1 NFBD=     0     0 NFCmp=     0     0 NFFFC=     0     0
 Using DD3R+UMP44R for 1st iteration.
 Using DD4RQ for 2nd and later iterations.
 Keep R2 and R3 ints in memory in symmetry-blocked form, NReq=35357534.
 FoFCou: FMM=F IPFlag=           0 FMFlag=           0 FMFlg1=           0
         NFxFlg=           0 DoJE=F BraDBF=F KetDBF=F FulRan=T
         wScrn=  0.000000 ICntrl=       600 IOpCl=  0 I1Cent=           0 NGrid=           0
         NMat0=    1 NMatS0=   6786 NMatT0=    0 NMatD0=    1 NMtDS0=    0 NMtDT0=    0
 Petite list used in FoFCou.
 CIDS: In Core Option IDoMem=           1.
 CCSD(T)
 =======
 Iterations=  50 Convergence= 0.100D-06
 Produce multiple copies of IABC intergrals
 Iteration Nr.   1
 **********************
 DD1Dir will call FoFMem   1 times, MxPair=        72
 NAB=    36 NAA=     0 NBB=     0.
 MP4(R+Q)=  0.75948498D-02
 Maximum subspace dimension=  5
 A-vector RMS=  1.7637857D-03 Max=  6.0067971D-03 conv= 1.00D-05.
 RLE energy=       -0.5262508662
 E3=       -0.74984170D-02        EUMP3=      -0.15263876056D+03
 E4(DQ)=   -0.15537716D-02        UMP4(DQ)=   -0.15264031433D+03
 E4(SDQ)=  -0.46453989D-02        UMP4(SDQ)=  -0.15264340596D+03
 VARIATIONAL ENERGIES WITH THE FIRST-ORDER WAVEFUNCTION:
 DE(Corr)= -0.52625082     E(Corr)=     -152.63109380    
 NORM(A)=   0.10602512D+01
 Iteration Nr.   2
 **********************
 DD1Dir will call FoFMem   1 times, MxPair=        72
 NAB=    36 NAA=     0 NBB=     0.
 A-vector RMS=  2.1210798D-04 Max=  1.2057208D-03 conv= 1.00D-05.
 RLE energy=       -0.5373719445
 DE(Corr)= -0.53621588     E(CORR)=     -152.64105885     Delta=-9.97D-03
 NORM(A)=   0.10640316D+01
 Iteration Nr.   3
 **********************
 DD1Dir will call FoFMem   1 times, MxPair=        72
 NAB=    36 NAA=     0 NBB=     0.
 A-vector RMS=  1.4575433D-04 Max=  1.1239755D-03 conv= 1.00D-05.
 RLE energy=       -0.5378718397
 DE(Corr)= -0.53727996     E(CORR)=     -152.64212293     Delta=-1.06D-03
 NORM(A)=   0.10646760D+01
 Iteration Nr.   4
 **********************
 DD1Dir will call FoFMem   1 times, MxPair=        72
 NAB=    36 NAA=     0 NBB=     0.
 A-vector RMS=  2.7736160D-05 Max=  1.4664244D-04 conv= 1.00D-05.
 RLE energy=       -0.5379546877
 DE(Corr)= -0.53791927     E(CORR)=     -152.64276224     Delta=-6.39D-04
 NORM(A)=   0.10647895D+01
 Iteration Nr.   5
 **********************
 DD1Dir will call FoFMem   1 times, MxPair=        72
 NAB=    36 NAA=     0 NBB=     0.
 A-vector RMS=  1.9727592D-05 Max=  2.1215726D-04 conv= 1.00D-05.
 RLE energy=       -0.5379642202
 DE(Corr)= -0.53795708     E(CORR)=     -152.64280005     Delta=-3.78D-05
 NORM(A)=   0.10648001D+01
 Iteration Nr.   6
 **********************
 DD1Dir will call FoFMem   1 times, MxPair=        72
 NAB=    36 NAA=     0 NBB=     0.
 A-vector RMS=  5.9648229D-06 Max=  5.9986116D-05 conv= 1.00D-05.
 RLE energy=       -0.5379547851
 DE(Corr)= -0.53796040     E(CORR)=     -152.64280338     Delta=-3.33D-06
 NORM(A)=   0.10648002D+01
 Iteration Nr.   7
 **********************
 DD1Dir will call FoFMem   1 times, MxPair=        72
 NAB=    36 NAA=     0 NBB=     0.
 A-vector RMS=  2.8178003D-06 Max=  3.2063274D-05 conv= 1.00D-05.
 RLE energy=       -0.5379611412
 DE(Corr)= -0.53796056     E(CORR)=     -152.64280353     Delta=-1.54D-07
 NORM(A)=   0.10648026D+01
 Iteration Nr.   8
 **********************
 DD1Dir will call FoFMem   1 times, MxPair=        72
 NAB=    36 NAA=     0 NBB=     0.
 A-vector RMS=  8.0640047D-07 Max=  1.0173066D-05 conv= 1.00D-05.
 RLE energy=       -0.5379598918
 DE(Corr)= -0.53796007     E(CORR)=     -152.64280305     Delta= 4.83D-07
 NORM(A)=   0.10648027D+01
 Iteration Nr.   9
 **********************
 DD1Dir will call FoFMem   1 times, MxPair=        72
 NAB=    36 NAA=     0 NBB=     0.
 A-vector RMS=  1.9497987D-07 Max=  2.3717556D-06 conv= 1.00D-05.
 RLE energy=       -0.5379601976
 DE(Corr)= -0.53796028     E(CORR)=     -152.64280325     Delta=-2.04D-07
 NORM(A)=   0.10648030D+01
 Iteration Nr.  10
 **********************
 DD1Dir will call FoFMem   1 times, MxPair=        72
 NAB=    36 NAA=     0 NBB=     0.
 A-vector RMS=  6.7372218D-08 Max=  5.9801732D-07 conv= 1.00D-05.
 RLE energy=       -0.5379603580
 DE(Corr)= -0.53796034     E(CORR)=     -152.64280331     Delta=-5.78D-08
 NORM(A)=   0.10648031D+01
 CI/CC converged in   10 iterations to DelEn=-5.78D-08 Conv= 1.00D-07 ErrA1= 6.74D-08 Conv= 1.00D-05
 Wavefunction amplitudes converged. E(Corr)=     -152.64280331    
 Largest amplitude= 2.48D-02
 IPart=  2 IA=    7   11.05% done.
 IPart=  2 IA=   13   21.46% done.
 IPart=  3 IA=   19   31.21% done.
 IPart=  3 IA=   25   40.32% done.
 IPart=  3 IA=   32   50.13% done.
 IPart=  4 IA=   40   60.27% done.
 IPart=  4 IA=   49   70.30% done.
 IPart=  3 IA=   60   80.58% done.
 IPart=  1 IA=   74   90.51% done.
 Time for triples=       48.15 seconds.
 T4(CCSD)= -0.16117413D-01
 T5(CCSD)=  0.41137399D-03
 CCSD(T)= -0.15265850935D+03
 Discarding MO integrals.
 Leave Link  913 at Sat Aug 27 08:19:43 2022, MaxMem=   536870912 cpu:              69.0 elap:              17.5
 (Enter /usr/site/hpc/x86_64/glibc-2.17/broadwell/gaussian/g16_a.03/pgi-16.5/g16/l601.exe)
 Copying SCF densities to generalized density rwf, IOpCl= 0 IROHF=0.

 **********************************************************************

            Population analysis using the SCF density.

 **********************************************************************

 Orbital symmetries:
       Occupied  (A') (A') (A') (A') (A') (A') (A') (A') (A") (A")
       Virtual   (A') (A') (A') (A') (A') (A') (A') (A') (A') (A')
                 (A") (A') (A") (A') (A') (A") (A") (A') (A") (A")
                 (A') (A') (A') (A') (A') (A') (A') (A') (A") (A")
                 (A') (A") (A") (A') (A') (A') (A') (A') (A') (A')
                 (A') (A') (A") (A") (A') (A') (A") (A") (A') (A')
                 (A") (A") (A') (A') (A') (A') (A") (A") (A") (A")
                 (A') (A') (A') (A') (A") (A") (A') (A') (A') (A')
                 (A") (A") (A') (A') (A') (A') (A') (A') (A') (A')
                 (A") (A") (A') (A') (A") (A") (A") (A") (A') (A')
                 (A") (A") (A') (A') (A') (A') (A") (A") (A') (A')
                 (A') (A') (A') (A') (A') (A')
 The electronic state is 1-A'.
 Alpha  occ. eigenvalues --  -20.54511 -20.54446  -1.31794  -1.31722  -0.69214
 Alpha  occ. eigenvalues --   -0.69140  -0.55340  -0.54770  -0.48906  -0.48802
 Alpha virt. eigenvalues --    0.14163   0.15825   0.20598   0.21261   0.53895
 Alpha virt. eigenvalues --    0.56502   0.57937   0.58257   0.61652   0.75387
 Alpha virt. eigenvalues --    0.79359   0.80195   0.80620   0.80974   0.82637
 Alpha virt. eigenvalues --    0.85670   0.85733   0.93670   0.97498   0.99167
 Alpha virt. eigenvalues --    1.14825   1.17107   1.17276   1.19710   1.52385
 Alpha virt. eigenvalues --    1.52739   1.52846   1.53017   2.01655   2.01957
 Alpha virt. eigenvalues --    2.07156   2.07786   2.07855   2.14001   2.15574
 Alpha virt. eigenvalues --    2.16720   2.23879   2.34558   2.62391   2.62649
 Alpha virt. eigenvalues --    2.93659   2.94214   3.40314   3.40381   3.50859
 Alpha virt. eigenvalues --    3.50938   3.54028   3.54093   3.60358   3.60567
 Alpha virt. eigenvalues --    3.79647   3.79746   3.85827   3.86726   3.87571
 Alpha virt. eigenvalues --    3.91347   3.94493   3.94560   4.03246   4.04790
 Alpha virt. eigenvalues --    4.09045   4.09341   4.16189   4.16369   4.31077
 Alpha virt. eigenvalues --    4.31142   4.40450   4.42189   4.46393   4.46678
 Alpha virt. eigenvalues --    4.67454   4.67621   4.80849   4.83278   5.05109
 Alpha virt. eigenvalues --    5.05737   5.24394   5.26082   5.54129   5.56472
 Alpha virt. eigenvalues --    5.98984   5.99048   6.41400   6.41472   6.87207
 Alpha virt. eigenvalues --    6.87274   6.90661   6.90728   6.95520   6.95727
 Alpha virt. eigenvalues --    7.00152   7.00311   7.08257   7.09678   7.12192
 Alpha virt. eigenvalues --    7.17094   7.19360   7.19428   7.48152   7.48655
 Alpha virt. eigenvalues --    7.70847   7.72268   8.15522   8.16931  12.48716
 Alpha virt. eigenvalues --   12.53373
          Condensed to atoms (all electrons):
               1          2          3          4          5          6
     1  O    7.813087   0.337469   0.339820   0.000701   0.000050   0.000151
     2  H    0.337469   0.452844  -0.034705   0.000073  -0.000006  -0.000020
     3  H    0.339820  -0.034705   0.447802   0.000082  -0.000008  -0.000012
     4  O    0.000701   0.000073   0.000082   7.812754   0.335895   0.341722
     5  H    0.000050  -0.000006  -0.000008   0.335895   0.455041  -0.034933
     6  H    0.000151  -0.000020  -0.000012   0.341722  -0.034933   0.445917
 Mulliken charges:
               1
     1  O   -0.491278
     2  H    0.244345
     3  H    0.247022
     4  O   -0.491226
     5  H    0.243962
     6  H    0.247175
 Sum of Mulliken charges =   0.00000
 Mulliken charges with hydrogens summed into heavy atoms:
               1
     1  O    0.000089
     4  O   -0.000089
 Electronic spatial extent (au):  <R**2>=            315.0205
 Charge=              0.0000 electrons
 Dipole moment (field-independent basis, Debye):
    X=             -0.4974    Y=             -0.0709    Z=              0.0000  Tot=              0.5025
 Quadrupole moment (field-independent basis, Debye-Ang):
   XX=             -7.9788   YY=              2.8525   ZZ=            -14.7094
   XY=             -0.5286   XZ=              0.0000   YZ=              0.0000
 Traceless Quadrupole moment (field-independent basis, Debye-Ang):
   XX=             -1.3669   YY=              9.4644   ZZ=             -8.0975
   XY=             -0.5286   XZ=              0.0000   YZ=              0.0000
 Octapole moment (field-independent basis, Debye-Ang**2):
  XXX=             -1.0549  YYY=              0.2316  ZZZ=              0.0000  XYY=              0.7097
  XXY=             -0.5553  XXZ=              0.0000  XZZ=             -0.0629  YZZ=             -0.0105
  YYZ=              0.0000  XYZ=              0.0000
 Hexadecapole moment (field-independent basis, Debye-Ang**3):
 XXXX=            -11.2827 YYYY=           -169.0943 ZZZZ=            -11.3318 XXXY=             -1.6973
 XXXZ=              0.0000 YYYX=              5.7939 YYYZ=              0.0000 ZZZX=              0.0000
 ZZZY=              0.0000 XXYY=            -25.2397 XXZZ=             -4.5718 YYZZ=            -61.4683
 XXYZ=              0.0000 YYXZ=              0.0000 ZZXY=              0.2351
 N-N= 3.109181386637D+01 E-N=-4.238269599238D+02  KE= 1.518065603795D+02
 Symmetry A'   KE= 1.427672090249D+02
 Symmetry A"   KE= 9.039351354528D+00
 Leave Link  601 at Sat Aug 27 08:19:43 2022, MaxMem=   536870912 cpu:               0.1 elap:               0.0
 (Enter /usr/site/hpc/x86_64/glibc-2.17/broadwell/gaussian/g16_a.03/pgi-16.5/g16/l9999.exe)
 1\1\GINC-N003\SP\RCCSD(T)-FC\CC-pVTZ\H4O2\C7441284\27-Aug-2022\0\\#p C
 CSD(T)/cc-pVTZ\\H2O_H2O_2054\\0,1\O,0,0.,-0.009833,0.\H,0,-0.799571,-0
 .580965,0.\H,0,0.799571,-0.580965,0.\O,0,-0.002545,3.777559,0.\H,0,0.6
 21962,4.536174,0.\H,0,-0.922692,4.122286,0.\\Version=ES64L-G16RevA.03\
 State=1-A'\HF=-152.104843\MP2=-152.6312621\MP3=-152.6387606\MP4D=-152.
 6479092\MP4DQ=-152.6403143\MP4SDQ=-152.643406\CCSD=-152.6428033\CCSD(T
 )=-152.6585093\RMSD=7.754e-09\PG=CS [SG(H4O2)]\\@


 ... FOR AFTERWARDS A MAN FINDS PLEASURE IN HIS PAINS,
 WHEN HE HAS SUFFERED LONG AND WANDERED FAR.

                                    -- HOMER
 Job cpu time:       0 days  0 hours  1 minutes 18.8 seconds.
 Elapsed time:       0 days  0 hours  0 minutes 20.2 seconds.
 File lengths (MBytes):  RWF=    340 Int=      0 D2E=      0 Chk=      8 Scr=      8
 Normal termination of Gaussian 16 at Sat Aug 27 08:19:43 2022.
