 Entering Gaussian System, Link 0=g16
 Input=H2O_H2O_3173.com
 Output=H2O_H2O_3173.log
 Initial command:
 /usr/site/hpc/x86_64/glibc-2.17/broadwell/gaussian/g16_a.03/pgi-16.5/g16/l1.exe "/gpfs/gpfs1/scratch/c7441284/ForceFieldModel/FittingData/Gau-3767184.inp" -scrdir="/gpfs/gpfs1/scratch/c7441284/ForceFieldModel/FittingData/"
 Entering Link 1 = /usr/site/hpc/x86_64/glibc-2.17/broadwell/gaussian/g16_a.03/pgi-16.5/g16/l1.exe PID=   3767185.
  
 Copyright (c) 1988,1990,1992,1993,1995,1998,2003,2009,2016,
            Gaussian, Inc.  All Rights Reserved.
  
 This is part of the Gaussian(R) 16 program.  It is based on
 the Gaussian(R) 09 system (copyright 2009, Gaussian, Inc.),
 the Gaussian(R) 03 system (copyright 2003, Gaussian, Inc.),
 the Gaussian(R) 98 system (copyright 1998, Gaussian, Inc.),
 the Gaussian(R) 94 system (copyright 1995, Gaussian, Inc.),
 the Gaussian 92(TM) system (copyright 1992, Gaussian, Inc.),
 the Gaussian 90(TM) system (copyright 1990, Gaussian, Inc.),
 the Gaussian 88(TM) system (copyright 1988, Gaussian, Inc.),
 the Gaussian 86(TM) system (copyright 1986, Carnegie Mellon
 University), and the Gaussian 82(TM) system (copyright 1983,
 Carnegie Mellon University). Gaussian is a federally registered
 trademark of Gaussian, Inc.
  
 This software contains proprietary and confidential information,
 including trade secrets, belonging to Gaussian, Inc.
  
 This software is provided under written license and may be
 used, copied, transmitted, or stored only in accord with that
 written license.
  
 The following legend is applicable only to US Government
 contracts under FAR:
  
                    RESTRICTED RIGHTS LEGEND
  
 Use, reproduction and disclosure by the US Government is
 subject to restrictions as set forth in subparagraphs (a)
 and (c) of the Commercial Computer Software - Restricted
 Rights clause in FAR 52.227-19.
  
 Gaussian, Inc.
 340 Quinnipiac St., Bldg. 40, Wallingford CT 06492
  
  
 ---------------------------------------------------------------
 Warning -- This program may not be used in any manner that
 competes with the business of Gaussian, Inc. or will provide
 assistance to any competitor of Gaussian, Inc.  The licensee
 of this program is prohibited from giving any competitor of
 Gaussian, Inc. access to this program.  By using this program,
 the user acknowledges that Gaussian, Inc. is engaged in the
 business of creating and licensing software in the field of
 computational chemistry and represents and warrants to the
 licensee that it is not a competitor of Gaussian, Inc. and that
 it will not use this program in any manner prohibited above.
 ---------------------------------------------------------------
  

 Cite this work as:
 Gaussian 16, Revision A.03,
 M. J. Frisch, G. W. Trucks, H. B. Schlegel, G. E. Scuseria, 
 M. A. Robb, J. R. Cheeseman, G. Scalmani, V. Barone, 
 G. A. Petersson, H. Nakatsuji, X. Li, M. Caricato, A. V. Marenich, 
 J. Bloino, B. G. Janesko, R. Gomperts, B. Mennucci, H. P. Hratchian, 
 J. V. Ortiz, A. F. Izmaylov, J. L. Sonnenberg, D. Williams-Young, 
 F. Ding, F. Lipparini, F. Egidi, J. Goings, B. Peng, A. Petrone, 
 T. Henderson, D. Ranasinghe, V. G. Zakrzewski, J. Gao, N. Rega, 
 G. Zheng, W. Liang, M. Hada, M. Ehara, K. Toyota, R. Fukuda, 
 J. Hasegawa, M. Ishida, T. Nakajima, Y. Honda, O. Kitao, H. Nakai, 
 T. Vreven, K. Throssell, J. A. Montgomery, Jr., J. E. Peralta, 
 F. Ogliaro, M. J. Bearpark, J. J. Heyd, E. N. Brothers, K. N. Kudin, 
 V. N. Staroverov, T. A. Keith, R. Kobayashi, J. Normand, 
 K. Raghavachari, A. P. Rendell, J. C. Burant, S. S. Iyengar, 
 J. Tomasi, M. Cossi, J. M. Millam, M. Klene, C. Adamo, R. Cammi, 
 J. W. Ochterski, R. L. Martin, K. Morokuma, O. Farkas, 
 J. B. Foresman, and D. J. Fox, Gaussian, Inc., Wallingford CT, 2016.
 
 ******************************************
 Gaussian 16:  ES64L-G16RevA.03 25-Dec-2016
                26-Aug-2022 
 ******************************************
 %NProcShared=4
 Will use up to    4 processors via shared memory.
 %Mem=4GB
 %Chk=H2O_H2O_3173.chk
 ------------------
 #p CCSD(T)/cc-pVTZ
 ------------------
 1/38=1,172=1/1;
 2/12=2,17=6,18=5,40=1/2;
 3/5=16,6=1,11=9,25=1,30=1/1,2,3;
 4//1;
 5/5=2,38=5/2;
 8/6=4,9=120000,10=1/1,4;
 9/5=7,14=2/13;
 6/7=2,8=2,9=2,10=2/1;
 99/5=1,9=1/99;
 Leave Link    1 at Fri Aug 26 20:05:37 2022, MaxMem=   536870912 cpu:               0.4 elap:               0.1
 (Enter /usr/site/hpc/x86_64/glibc-2.17/broadwell/gaussian/g16_a.03/pgi-16.5/g16/l101.exe)
 ------------
 H2O_H2O_3173
 ------------
 Symbolic Z-matrix:
 Charge =  0 Multiplicity = 1
 O                     0.       -0.00983   0. 
 H                    -0.79957  -0.58097   0. 
 H                     0.79957  -0.58097   0. 
 O                    -0.00981   4.93874   0. 
 H                    -0.52743   5.77396   0. 
 H                    -0.63202   4.17824   0. 
 
 ITRead=  0  0  0  0  0  0
 MicOpt= -1 -1 -1 -1 -1 -1
 NAtoms=      6 NQM=        6 NQMF=       0 NMMI=      0 NMMIF=      0
                NMic=       0 NMicF=      0.
                    Isotopes and Nuclear Properties:
 (Nuclear quadrupole moments (NQMom) in fm**2, nuclear magnetic moments (NMagM)
  in nuclear magnetons)

  Atom         1           2           3           4           5           6
 IAtWgt=          16           1           1          16           1           1
 AtmWgt=  15.9949146   1.0078250   1.0078250  15.9949146   1.0078250   1.0078250
 NucSpn=           0           1           1           0           1           1
 AtZEff=  -0.0000000  -0.0000000  -0.0000000  -0.0000000  -0.0000000  -0.0000000
 NQMom=    0.0000000   0.0000000   0.0000000   0.0000000   0.0000000   0.0000000
 NMagM=    0.0000000   2.7928460   2.7928460   0.0000000   2.7928460   2.7928460
 AtZNuc=   8.0000000   1.0000000   1.0000000   8.0000000   1.0000000   1.0000000
 Leave Link  101 at Fri Aug 26 20:05:37 2022, MaxMem=   536870912 cpu:               0.4 elap:               0.1
 (Enter /usr/site/hpc/x86_64/glibc-2.17/broadwell/gaussian/g16_a.03/pgi-16.5/g16/l202.exe)
                          Input orientation:                          
 ---------------------------------------------------------------------
 Center     Atomic      Atomic             Coordinates (Angstroms)
 Number     Number       Type             X           Y           Z
 ---------------------------------------------------------------------
      1          8           0        0.000000   -0.009833    0.000000
      2          1           0       -0.799571   -0.580965    0.000000
      3          1           0        0.799571   -0.580965    0.000000
      4          8           0       -0.009812    4.938744    0.000000
      5          1           0       -0.527427    5.773957    0.000000
      6          1           0       -0.632016    4.178238    0.000000
 ---------------------------------------------------------------------
                    Distance matrix (angstroms):
                    1          2          3          4          5
     1  O    0.000000
     2  H    0.982601   0.000000
     3  H    0.982601   1.599142   0.000000
     4  O    4.948587   5.575922   5.578735   0.000000
     5  H    5.807788   6.360746   6.491992   0.982602   0.000000
     6  H    4.235491   4.762152   4.969855   0.982602   1.599143
                    6
     6  H    0.000000
 Stoichiometry    H4O2
 Framework group  CS[SG(H4O2)]
 Deg. of freedom     9
 Full point group                 CS      NOp   2
 Largest Abelian subgroup         CS      NOp   2
 Largest concise Abelian subgroup C1      NOp   1
                         Standard orientation:                         
 ---------------------------------------------------------------------
 Center     Atomic      Atomic             Coordinates (Angstroms)
 Number     Number       Type             X           Y           Z
 ---------------------------------------------------------------------
      1          8           0        0.057097   -2.421029    0.000000
      2          1           0       -0.743605   -2.990574    0.000000
      3          1           0        0.855534   -2.993745    0.000000
      4          8           0        0.057097    2.527558    0.000000
      5          1           0       -0.458861    3.363796    0.000000
      6          1           0       -0.566614    1.768287    0.000000
 ---------------------------------------------------------------------
 Rotational constants (GHZ):         269.2637169           2.2112095           2.1931988
 Leave Link  202 at Fri Aug 26 20:05:37 2022, MaxMem=   536870912 cpu:               0.1 elap:               0.0
 (Enter /usr/site/hpc/x86_64/glibc-2.17/broadwell/gaussian/g16_a.03/pgi-16.5/g16/l301.exe)
 Standard basis: CC-pVTZ (5D, 7F)
 Ernie: Thresh=  0.10000D-02 Tol=  0.10000D-05 Strict=F.
 Ernie:  6 primitive shells out of 84 were deleted.
 There are    92 symmetry adapted cartesian basis functions of A'  symmetry.
 There are    38 symmetry adapted cartesian basis functions of A"  symmetry.
 There are    80 symmetry adapted basis functions of A'  symmetry.
 There are    36 symmetry adapted basis functions of A"  symmetry.
   116 basis functions,   172 primitive gaussians,   130 cartesian basis functions
    10 alpha electrons       10 beta electrons
       nuclear repulsion energy        28.3679895053 Hartrees.
 IExCor=    0 DFT=F Ex=HF Corr=None ExCW=0 ScaHFX=  1.000000
 ScaDFX=  1.000000  1.000000  1.000000  1.000000 ScalE2=  1.000000  1.000000
 IRadAn=      5 IRanWt=     -1 IRanGd=            0 ICorTp=0 IEmpDi=  4
 NAtoms=    6 NActive=    6 NUniq=    6 SFac= 1.00D+00 NAtFMM=   60 NAOKFM=F Big=F
 Integral buffers will be    131072 words long.
 Raffenetti 1 integral format.
 Two-electron integral symmetry is turned on.
 Leave Link  301 at Fri Aug 26 20:05:37 2022, MaxMem=   536870912 cpu:               0.3 elap:               0.1
 (Enter /usr/site/hpc/x86_64/glibc-2.17/broadwell/gaussian/g16_a.03/pgi-16.5/g16/l302.exe)
 NPDir=0 NMtPBC=     1 NCelOv=     1 NCel=       1 NClECP=     1 NCelD=      1
         NCelK=      1 NCelE2=     1 NClLst=     1 CellRange=     0.0.
 One-electron integrals computed using PRISM.
 One-electron integral symmetry used in STVInt
 NBasis=   116 RedAO= T EigKep=  2.62D-03  NBF=    80    36
 NBsUse=   116 1.00D-06 EigRej= -1.00D+00 NBFU=    80    36
 Leave Link  302 at Fri Aug 26 20:05:37 2022, MaxMem=   536870912 cpu:               0.4 elap:               0.1
 (Enter /usr/site/hpc/x86_64/glibc-2.17/broadwell/gaussian/g16_a.03/pgi-16.5/g16/l303.exe)
 DipDrv:  MaxL=1.
 Leave Link  303 at Fri Aug 26 20:05:37 2022, MaxMem=   536870912 cpu:               0.1 elap:               0.0
 (Enter /usr/site/hpc/x86_64/glibc-2.17/broadwell/gaussian/g16_a.03/pgi-16.5/g16/l401.exe)
 ExpMin= 1.03D-01 ExpMax= 1.53D+04 ExpMxC= 5.22D+02 IAcc=3 IRadAn=         5 AccDes= 0.00D+00
 Harris functional with IExCor=  205 and IRadAn=       5 diagonalized for initial guess.
 HarFok:  IExCor=  205 AccDes= 0.00D+00 IRadAn=         5 IDoV= 1 UseB2=F ITyADJ=14
 ICtDFT=  3500011 ScaDFX=  1.000000  1.000000  1.000000  1.000000
 FoFCou: FMM=F IPFlag=           0 FMFlag=      100000 FMFlg1=           0
         NFxFlg=           0 DoJE=T BraDBF=F KetDBF=T FulRan=T
         wScrn=  0.000000 ICntrl=       500 IOpCl=  0 I1Cent=   200000004 NGrid=           0
         NMat0=    1 NMatS0=      1 NMatT0=    0 NMatD0=    1 NMtDS0=    0 NMtDT0=    0
 Petite list used in FoFCou.
 Harris En= -152.298716210225    
 JPrj=0 DoOrth=F DoCkMO=F.
 Initial guess orbital symmetries:
       Occupied  (A') (A') (A') (A') (A') (A') (A') (A') (A") (A")
       Virtual   (A') (A') (A') (A') (A') (A') (A') (A') (A') (A')
                 (A") (A") (A') (A') (A') (A') (A") (A") (A") (A")
                 (A') (A') (A') (A') (A') (A') (A') (A') (A") (A")
                 (A") (A") (A') (A') (A') (A') (A') (A') (A') (A')
                 (A') (A') (A") (A") (A') (A') (A") (A") (A") (A")
                 (A') (A') (A') (A') (A') (A') (A") (A") (A') (A')
                 (A') (A') (A") (A") (A") (A") (A') (A') (A') (A')
                 (A") (A") (A') (A') (A') (A') (A') (A') (A') (A')
                 (A") (A") (A') (A') (A") (A") (A") (A") (A') (A')
                 (A") (A") (A') (A') (A') (A') (A") (A") (A') (A')
                 (A') (A') (A') (A') (A') (A')
 The electronic state of the initial guess is 1-A'.
 Leave Link  401 at Fri Aug 26 20:05:37 2022, MaxMem=   536870912 cpu:               0.9 elap:               0.2
 (Enter /usr/site/hpc/x86_64/glibc-2.17/broadwell/gaussian/g16_a.03/pgi-16.5/g16/l502.exe)
 Keep R1 ints in memory in symmetry-blocked form, NReq=34823457.
 FoFCou: FMM=F IPFlag=           0 FMFlag=           0 FMFlg1=           0
         NFxFlg=           0 DoJE=F BraDBF=F KetDBF=F FulRan=T
         wScrn=  0.000000 ICntrl=       600 IOpCl=  0 I1Cent=           0 NGrid=           0
         NMat0=    1 NMatS0=   6786 NMatT0=    0 NMatD0=    1 NMtDS0=    0 NMtDT0=    0
 Petite list used in FoFCou.
 Closed shell SCF:
 Using DIIS extrapolation, IDIIS=  1040.
 NGot=   536870912 LenX=   525040673 LenY=   525023332
 Requested convergence on RMS density matrix=1.00D-08 within 128 cycles.
 Requested convergence on MAX density matrix=1.00D-06.
 Requested convergence on             energy=1.00D-06.
 No special actions if energy rises.

 Cycle   1  Pass 1  IDiag  1:
 E= -151.927895955236    
 DIIS: error= 6.59D-02 at cycle   1 NSaved=   1.
 NSaved= 1 IEnMin= 1 EnMin= -151.927895955236     IErMin= 1 ErrMin= 6.59D-02
 ErrMax= 6.59D-02  0.00D+00 EMaxC= 1.00D-01 BMatC= 4.00D-01 BMatP= 4.00D-01
 IDIUse=3 WtCom= 3.41D-01 WtEn= 6.59D-01
 Coeff-Com:  0.100D+01
 Coeff-En:   0.100D+01
 Coeff:      0.100D+01
 Gap=     0.513 Goal=   None    Shift=    0.000
 GapD=    0.513 DampG=2.000 DampE=0.500 DampFc=1.0000 IDamp=-1.
 RMSDP=2.51D-03 MaxDP=6.67D-02              OVMax= 1.27D-01

 Cycle   2  Pass 1  IDiag  1:
 E= -152.039488382707     Delta-E=       -0.111592427471 Rises=F Damp=F
 DIIS: error= 4.15D-02 at cycle   2 NSaved=   2.
 NSaved= 2 IEnMin= 2 EnMin= -152.039488382707     IErMin= 2 ErrMin= 4.15D-02
 ErrMax= 4.15D-02  0.00D+00 EMaxC= 1.00D-01 BMatC= 1.13D-01 BMatP= 4.00D-01
 IDIUse=3 WtCom= 5.85D-01 WtEn= 4.15D-01
 Coeff-Com:  0.319D+00 0.681D+00
 Coeff-En:   0.167D+00 0.833D+00
 Coeff:      0.256D+00 0.744D+00
 Gap=     0.651 Goal=   None    Shift=    0.000
 RMSDP=1.33D-03 MaxDP=3.96D-02 DE=-1.12D-01 OVMax= 5.72D-02

 Cycle   3  Pass 1  IDiag  1:
 E= -152.104214282893     Delta-E=       -0.064725900187 Rises=F Damp=F
 DIIS: error= 8.98D-03 at cycle   3 NSaved=   3.
 NSaved= 3 IEnMin= 3 EnMin= -152.104214282893     IErMin= 3 ErrMin= 8.98D-03
 ErrMax= 8.98D-03  0.00D+00 EMaxC= 1.00D-01 BMatC= 5.97D-03 BMatP= 1.13D-01
 IDIUse=3 WtCom= 9.10D-01 WtEn= 8.98D-02
 Coeff-Com: -0.304D-01 0.155D+00 0.875D+00
 Coeff-En:   0.000D+00 0.000D+00 0.100D+01
 Coeff:     -0.277D-01 0.142D+00 0.886D+00
 Gap=     0.623 Goal=   None    Shift=    0.000
 RMSDP=2.44D-04 MaxDP=5.71D-03 DE=-6.47D-02 OVMax= 1.34D-02

 Cycle   4  Pass 1  IDiag  1:
 E= -152.107934690398     Delta-E=       -0.003720407505 Rises=F Damp=F
 DIIS: error= 8.55D-04 at cycle   4 NSaved=   4.
 NSaved= 4 IEnMin= 4 EnMin= -152.107934690398     IErMin= 4 ErrMin= 8.55D-04
 ErrMax= 8.55D-04  0.00D+00 EMaxC= 1.00D-01 BMatC= 3.73D-05 BMatP= 5.97D-03
 IDIUse=3 WtCom= 9.91D-01 WtEn= 8.55D-03
 Coeff-Com:  0.679D-02-0.611D-01-0.238D+00 0.129D+01
 Coeff-En:   0.000D+00 0.000D+00 0.000D+00 0.100D+01
 Coeff:      0.673D-02-0.606D-01-0.236D+00 0.129D+01
 Gap=     0.625 Goal=   None    Shift=    0.000
 RMSDP=5.17D-05 MaxDP=1.03D-03 DE=-3.72D-03 OVMax= 2.23D-03

 Cycle   5  Pass 1  IDiag  1:
 E= -152.107984695058     Delta-E=       -0.000050004660 Rises=F Damp=F
 DIIS: error= 1.94D-04 at cycle   5 NSaved=   5.
 NSaved= 5 IEnMin= 5 EnMin= -152.107984695058     IErMin= 5 ErrMin= 1.94D-04
 ErrMax= 1.94D-04  0.00D+00 EMaxC= 1.00D-01 BMatC= 1.35D-06 BMatP= 3.73D-05
 IDIUse=3 WtCom= 9.98D-01 WtEn= 1.94D-03
 Coeff-Com:  0.543D-03 0.446D-03-0.296D-02-0.221D+00 0.122D+01
 Coeff-En:   0.000D+00 0.000D+00 0.000D+00 0.000D+00 0.100D+01
 Coeff:      0.542D-03 0.445D-03-0.296D-02-0.221D+00 0.122D+01
 Gap=     0.626 Goal=   None    Shift=    0.000
 RMSDP=1.42D-05 MaxDP=2.94D-04 DE=-5.00D-05 OVMax= 6.86D-04

 Cycle   6  Pass 1  IDiag  1:
 E= -152.107987518944     Delta-E=       -0.000002823886 Rises=F Damp=F
 DIIS: error= 2.82D-05 at cycle   6 NSaved=   6.
 NSaved= 6 IEnMin= 6 EnMin= -152.107987518944     IErMin= 6 ErrMin= 2.82D-05
 ErrMax= 2.82D-05  0.00D+00 EMaxC= 1.00D-01 BMatC= 3.39D-08 BMatP= 1.35D-06
 IDIUse=1 WtCom= 1.00D+00 WtEn= 0.00D+00
 Coeff-Com: -0.265D-03 0.157D-02 0.671D-02-0.954D-03-0.246D+00 0.124D+01
 Coeff:     -0.265D-03 0.157D-02 0.671D-02-0.954D-03-0.246D+00 0.124D+01
 Gap=     0.626 Goal=   None    Shift=    0.000
 RMSDP=2.98D-06 MaxDP=6.73D-05 DE=-2.82D-06 OVMax= 1.55D-04

 Cycle   7  Pass 1  IDiag  1:
 E= -152.107987613632     Delta-E=       -0.000000094688 Rises=F Damp=F
 DIIS: error= 5.42D-06 at cycle   7 NSaved=   7.
 NSaved= 7 IEnMin= 7 EnMin= -152.107987613632     IErMin= 7 ErrMin= 5.42D-06
 ErrMax= 5.42D-06  0.00D+00 EMaxC= 1.00D-01 BMatC= 2.30D-09 BMatP= 3.39D-08
 IDIUse=1 WtCom= 1.00D+00 WtEn= 0.00D+00
 Coeff-Com: -0.137D-04-0.133D-03-0.437D-03 0.137D-01-0.560D-01-0.264D-01
 Coeff-Com:  0.107D+01
 Coeff:     -0.137D-04-0.133D-03-0.437D-03 0.137D-01-0.560D-01-0.264D-01
 Coeff:      0.107D+01
 Gap=     0.626 Goal=   None    Shift=    0.000
 RMSDP=4.23D-07 MaxDP=1.14D-05 DE=-9.47D-08 OVMax= 3.13D-05

 Cycle   8  Pass 1  IDiag  1:
 E= -152.107987617499     Delta-E=       -0.000000003867 Rises=F Damp=F
 DIIS: error= 1.86D-06 at cycle   8 NSaved=   8.
 NSaved= 8 IEnMin= 8 EnMin= -152.107987617499     IErMin= 8 ErrMin= 1.86D-06
 ErrMax= 1.86D-06  0.00D+00 EMaxC= 1.00D-01 BMatC= 3.73D-10 BMatP= 2.30D-09
 IDIUse=1 WtCom= 1.00D+00 WtEn= 0.00D+00
 Coeff-Com:  0.240D-04-0.196D-03-0.792D-03 0.338D-02 0.122D-01-0.130D+00
 Coeff-Com:  0.246D+00 0.869D+00
 Coeff:      0.240D-04-0.196D-03-0.792D-03 0.338D-02 0.122D-01-0.130D+00
 Coeff:      0.246D+00 0.869D+00
 Gap=     0.626 Goal=   None    Shift=    0.000
 RMSDP=1.23D-07 MaxDP=3.33D-06 DE=-3.87D-09 OVMax= 9.35D-06

 Cycle   9  Pass 1  IDiag  1:
 E= -152.107987617969     Delta-E=       -0.000000000470 Rises=F Damp=F
 DIIS: error= 8.65D-07 at cycle   9 NSaved=   9.
 NSaved= 9 IEnMin= 9 EnMin= -152.107987617969     IErMin= 9 ErrMin= 8.65D-07
 ErrMax= 8.65D-07  0.00D+00 EMaxC= 1.00D-01 BMatC= 2.84D-11 BMatP= 3.73D-10
 IDIUse=1 WtCom= 1.00D+00 WtEn= 0.00D+00
 Coeff-Com:  0.918D-06 0.302D-04 0.125D-03-0.246D-02 0.863D-02 0.805D-02
 Coeff-Com: -0.156D+00-0.343D-01 0.118D+01
 Coeff:      0.918D-06 0.302D-04 0.125D-03-0.246D-02 0.863D-02 0.805D-02
 Coeff:     -0.156D+00-0.343D-01 0.118D+01
 Gap=     0.626 Goal=   None    Shift=    0.000
 RMSDP=5.37D-08 MaxDP=1.10D-06 DE=-4.70D-10 OVMax= 3.05D-06

 Cycle  10  Pass 1  IDiag  1:
 E= -152.107987618020     Delta-E=       -0.000000000051 Rises=F Damp=F
 DIIS: error= 1.03D-07 at cycle  10 NSaved=  10.
 NSaved=10 IEnMin=10 EnMin= -152.107987618020     IErMin=10 ErrMin= 1.03D-07
 ErrMax= 1.03D-07  0.00D+00 EMaxC= 1.00D-01 BMatC= 4.51D-13 BMatP= 2.84D-11
 IDIUse=1 WtCom= 1.00D+00 WtEn= 0.00D+00
 Coeff-Com: -0.618D-06-0.366D-05-0.177D-04 0.518D-03-0.194D-02-0.138D-02
 Coeff-Com:  0.399D-01-0.524D-02-0.347D+00 0.132D+01
 Coeff:     -0.618D-06-0.366D-05-0.177D-04 0.518D-03-0.194D-02-0.138D-02
 Coeff:      0.399D-01-0.524D-02-0.347D+00 0.132D+01
 Gap=     0.626 Goal=   None    Shift=    0.000
 RMSDP=7.30D-09 MaxDP=1.93D-07 DE=-5.11D-11 OVMax= 4.28D-07

 SCF Done:  E(RHF) =  -152.107987618     A.U. after   10 cycles
            NFock= 10  Conv=0.73D-08     -V/T= 2.0020
 KE= 1.518034049556D+02 PE=-4.182037496329D+02 EE= 8.592436755396D+01
 Leave Link  502 at Fri Aug 26 20:05:39 2022, MaxMem=   536870912 cpu:               4.9 elap:               1.3
 (Enter /usr/site/hpc/x86_64/glibc-2.17/broadwell/gaussian/g16_a.03/pgi-16.5/g16/l801.exe)
 Windowed orbitals will be sorted by symmetry type.
 ExpMin= 1.03D-01 ExpMax= 1.53D+04 ExpMxC= 5.22D+02 IAcc=3 IRadAn=         5 AccDes= 0.00D+00
 HarFok:  IExCor=  205 AccDes= 0.00D+00 IRadAn=         5 IDoV=-2 UseB2=F ITyADJ=14
 ICtDFT= 12500011 ScaDFX=  1.000000  1.000000  1.000000  1.000000
 Largest valence mixing into a core orbital is  1.12D-04
 Largest core mixing into a valence orbital is  1.77D-05
 Range of M.O.s used for correlation:     3   116
 NBasis=   116 NAE=    10 NBE=    10 NFC=     2 NFV=     0
 NROrb=    114 NOA=     8 NOB=     8 NVA=   106 NVB=   106
 Leave Link  801 at Fri Aug 26 20:05:39 2022, MaxMem=   536870912 cpu:               0.4 elap:               0.1
 (Enter /usr/site/hpc/x86_64/glibc-2.17/broadwell/gaussian/g16_a.03/pgi-16.5/g16/l804.exe)
 Closed-shell transformation, MDV=   536870912 ITran=4 ISComp=2.
 Unit  1 TFree=        834515 TCopy=        406125.
 Semi-Direct transformation.
 ModeAB=           4 MOrb=             8 LenV=     536376291
 LASXX=      2873146 LTotXX=     2873146 LenRXX=     5831278
 LTotAB=     2958132 MaxLAS=     5535840 LenRXY=           0
 NonZer=     8704424 LenScr=    13107200 LnRSAI=     5535840
 LnScr1=     8388608 LExtra=           0 Total=     32862926
 MaxDsk=          -1 SrtSym=           T ITran=            4
 DoSDTr:  NPSUse=  4
 JobTyp=0 Pass  1:  I=   1 to   8.
 (rs|ai) integrals will be sorted in core.
 Complete sort for first half transformation.
 First half transformation complete.
 Complete sort for second half transformation.
 Second half transformation complete.
 Spin components of T(2) and E(2):
     alpha-alpha T2 =       0.1556263299D-01 E2=     -0.6381039534D-01
     alpha-beta  T2 =       0.9190145406D-01 E2=     -0.3982922862D+00
     beta-beta   T2 =       0.1556263299D-01 E2=     -0.6381039534D-01
 ANorm=    0.1059729550D+01
 E2 =    -0.5259130769D+00 EUMP2 =    -0.15263390069492D+03
 Leave Link  804 at Fri Aug 26 20:05:40 2022, MaxMem=   536870912 cpu:               5.4 elap:               1.5
 (Enter /usr/site/hpc/x86_64/glibc-2.17/broadwell/gaussian/g16_a.03/pgi-16.5/g16/l913.exe)
 CIDS:  MDV=   536870912.
 Frozen-core window:  NFC=   2 NFV=   0.
 IFCWin=0 IBDFC=1 NFBD=     0     0 NFCmp=     0     0 NFFFC=     0     0
 Using DD3R+UMP44R for 1st iteration.
 Using DD4RQ for 2nd and later iterations.
 Keep R2 and R3 ints in memory in symmetry-blocked form, NReq=35357534.
 FoFCou: FMM=F IPFlag=           0 FMFlag=           0 FMFlg1=           0
         NFxFlg=           0 DoJE=F BraDBF=F KetDBF=F FulRan=T
         wScrn=  0.000000 ICntrl=       600 IOpCl=  0 I1Cent=           0 NGrid=           0
         NMat0=    1 NMatS0=   6786 NMatT0=    0 NMatD0=    1 NMtDS0=    0 NMtDT0=    0
 Petite list used in FoFCou.
 CIDS: In Core Option IDoMem=           1.
 CCSD(T)
 =======
 Iterations=  50 Convergence= 0.100D-06
 Produce multiple copies of IABC intergrals
 Iteration Nr.   1
 **********************
 DD1Dir will call FoFMem   1 times, MxPair=        72
 NAB=    36 NAA=     0 NBB=     0.
 MP4(R+Q)=  0.75516550D-02
 Maximum subspace dimension=  5
 A-vector RMS=  1.7421484D-03 Max=  6.1959693D-03 conv= 1.00D-05.
 RLE energy=       -0.5258427038
 E3=       -0.75523619D-02        EUMP3=      -0.15264145306D+03
 E4(DQ)=   -0.15511914D-02        UMP4(DQ)=   -0.15264300425D+03
 E4(SDQ)=  -0.46060090D-02        UMP4(SDQ)=  -0.15264605907D+03
 VARIATIONAL ENERGIES WITH THE FIRST-ORDER WAVEFUNCTION:
 DE(Corr)= -0.52584270     E(Corr)=     -152.63383032    
 NORM(A)=   0.10600921D+01
 Iteration Nr.   2
 **********************
 DD1Dir will call FoFMem   1 times, MxPair=        72
 NAB=    36 NAA=     0 NBB=     0.
 A-vector RMS=  2.1247172D-04 Max=  2.3197724D-03 conv= 1.00D-05.
 RLE energy=       -0.5368995844
 DE(Corr)= -0.53574098     E(CORR)=     -152.64372860     Delta=-9.90D-03
 NORM(A)=   0.10638379D+01
 Iteration Nr.   3
 **********************
 DD1Dir will call FoFMem   1 times, MxPair=        72
 NAB=    36 NAA=     0 NBB=     0.
 A-vector RMS=  1.4095182D-04 Max=  8.2983294D-04 conv= 1.00D-05.
 RLE energy=       -0.5373951490
 DE(Corr)= -0.53680972     E(CORR)=     -152.64479734     Delta=-1.07D-03
 NORM(A)=   0.10644749D+01
 Iteration Nr.   4
 **********************
 DD1Dir will call FoFMem   1 times, MxPair=        72
 NAB=    36 NAA=     0 NBB=     0.
 A-vector RMS=  2.6220655D-05 Max=  1.3997831D-04 conv= 1.00D-05.
 RLE energy=       -0.5374781102
 DE(Corr)= -0.53744290     E(CORR)=     -152.64543052     Delta=-6.33D-04
 NORM(A)=   0.10645854D+01
 Iteration Nr.   5
 **********************
 DD1Dir will call FoFMem   1 times, MxPair=        72
 NAB=    36 NAA=     0 NBB=     0.
 A-vector RMS=  1.8636292D-05 Max=  1.5336107D-04 conv= 1.00D-05.
 RLE energy=       -0.5374865872
 DE(Corr)= -0.53747982     E(CORR)=     -152.64546744     Delta=-3.69D-05
 NORM(A)=   0.10645949D+01
 Iteration Nr.   6
 **********************
 DD1Dir will call FoFMem   1 times, MxPair=        72
 NAB=    36 NAA=     0 NBB=     0.
 A-vector RMS=  5.5680955D-06 Max=  4.3353360D-05 conv= 1.00D-05.
 RLE energy=       -0.5374775134
 DE(Corr)= -0.53748300     E(CORR)=     -152.64547062     Delta=-3.18D-06
 NORM(A)=   0.10645950D+01
 Iteration Nr.   7
 **********************
 DD1Dir will call FoFMem   1 times, MxPair=        72
 NAB=    36 NAA=     0 NBB=     0.
 A-vector RMS=  2.6496461D-06 Max=  2.2040001D-05 conv= 1.00D-05.
 RLE energy=       -0.5374840229
 DE(Corr)= -0.53748315     E(CORR)=     -152.64547077     Delta=-1.49D-07
 NORM(A)=   0.10645972D+01
 Iteration Nr.   8
 **********************
 DD1Dir will call FoFMem   1 times, MxPair=        72
 NAB=    36 NAA=     0 NBB=     0.
 A-vector RMS=  6.0553368D-07 Max=  5.3879712D-06 conv= 1.00D-05.
 RLE energy=       -0.5374825486
 DE(Corr)= -0.53748272     E(CORR)=     -152.64547033     Delta= 4.35D-07
 NORM(A)=   0.10645974D+01
 Iteration Nr.   9
 **********************
 DD1Dir will call FoFMem   1 times, MxPair=        72
 NAB=    36 NAA=     0 NBB=     0.
 A-vector RMS=  1.4728461D-07 Max=  1.3195591D-06 conv= 1.00D-05.
 RLE energy=       -0.5374829020
 DE(Corr)= -0.53748296     E(CORR)=     -152.64547058     Delta=-2.45D-07
 NORM(A)=   0.10645976D+01
 Iteration Nr.  10
 **********************
 DD1Dir will call FoFMem   1 times, MxPair=        72
 NAB=    36 NAA=     0 NBB=     0.
 A-vector RMS=  5.6344756D-08 Max=  5.6637965D-07 conv= 1.00D-05.
 RLE energy=       -0.5374830011
 DE(Corr)= -0.53748297     E(CORR)=     -152.64547059     Delta=-1.18D-08
 NORM(A)=   0.10645977D+01
 CI/CC converged in   10 iterations to DelEn=-1.18D-08 Conv= 1.00D-07 ErrA1= 5.63D-08 Conv= 1.00D-05
 Wavefunction amplitudes converged. E(Corr)=     -152.64547059    
 Largest amplitude= 4.79D-02
 IPart=  1 IA=    7   11.05% done.
 IPart=  3 IA=   13   21.46% done.
 IPart=  3 IA=   19   31.21% done.
 IPart=  3 IA=   25   40.32% done.
 IPart=  4 IA=   32   50.13% done.
 IPart=  4 IA=   40   60.27% done.
 IPart=  3 IA=   49   70.30% done.
 IPart=  4 IA=   60   80.58% done.
 IPart=  1 IA=   74   90.51% done.
 Time for triples=       69.52 seconds.
 T4(CCSD)= -0.16031520D-01
 T5(CCSD)=  0.40298256D-03
 CCSD(T)= -0.15266109913D+03
 Discarding MO integrals.
 Leave Link  913 at Fri Aug 26 20:06:08 2022, MaxMem=   536870912 cpu:             107.9 elap:              27.3
 (Enter /usr/site/hpc/x86_64/glibc-2.17/broadwell/gaussian/g16_a.03/pgi-16.5/g16/l601.exe)
 Copying SCF densities to generalized density rwf, IOpCl= 0 IROHF=0.

 **********************************************************************

            Population analysis using the SCF density.

 **********************************************************************

 Orbital symmetries:
       Occupied  (A') (A') (A') (A') (A') (A') (A') (A') (A") (A")
       Virtual   (A') (A') (A') (A') (A') (A') (A') (A') (A') (A')
                 (A") (A") (A') (A') (A') (A") (A') (A") (A") (A")
                 (A') (A') (A') (A') (A') (A') (A') (A') (A") (A")
                 (A") (A") (A') (A') (A') (A') (A') (A') (A') (A')
                 (A') (A') (A") (A") (A') (A') (A") (A") (A') (A')
                 (A") (A") (A') (A') (A') (A') (A") (A") (A") (A")
                 (A') (A') (A') (A') (A") (A") (A') (A') (A') (A')
                 (A") (A") (A') (A') (A') (A') (A') (A') (A') (A')
                 (A") (A") (A') (A') (A") (A") (A") (A") (A') (A')
                 (A") (A") (A') (A') (A') (A') (A") (A") (A') (A')
                 (A') (A') (A') (A') (A') (A')
 The electronic state is 1-A'.
 Alpha  occ. eigenvalues --  -20.55858 -20.54791  -1.33153  -1.32092  -0.70558
 Alpha  occ. eigenvalues --   -0.69479  -0.56622  -0.55549  -0.50268  -0.49211
 Alpha virt. eigenvalues --    0.13403   0.15203   0.19943   0.21309   0.53958
 Alpha virt. eigenvalues --    0.54884   0.56979   0.57897   0.66787   0.69838
 Alpha virt. eigenvalues --    0.78623   0.79646   0.79746   0.80294   0.82805
 Alpha virt. eigenvalues --    0.84535   0.84994   0.85577   0.96951   0.97982
 Alpha virt. eigenvalues --    1.14297   1.15910   1.16915   1.18004   1.51380
 Alpha virt. eigenvalues --    1.51688   1.52489   1.52997   2.00347   2.01404
 Alpha virt. eigenvalues --    2.06416   2.07483   2.09031   2.10252   2.14595
 Alpha virt. eigenvalues --    2.15609   2.24571   2.26558   2.61181   2.62424
 Alpha virt. eigenvalues --    2.92530   2.93975   3.39053   3.40118   3.49612
 Alpha virt. eigenvalues --    3.50684   3.52810   3.53864   3.59187   3.60288
 Alpha virt. eigenvalues --    3.78337   3.79397   3.85100   3.86138   3.87459
 Alpha virt. eigenvalues --    3.88464   3.93262   3.94331   4.02716   4.03773
 Alpha virt. eigenvalues --    4.07864   4.09049   4.14946   4.16099   4.29793
 Alpha virt. eigenvalues --    4.30854   4.39658   4.40674   4.45256   4.46337
 Alpha virt. eigenvalues --    4.66194   4.67248   4.80548   4.81697   5.03859
 Alpha virt. eigenvalues --    5.05107   5.23758   5.24831   5.53720   5.54775
 Alpha virt. eigenvalues --    5.97581   5.98646   6.40051   6.41114   6.85836
 Alpha virt. eigenvalues --    6.86906   6.89322   6.90388   6.94254   6.95328
 Alpha virt. eigenvalues --    6.98775   6.99843   7.07551   7.08631   7.12399
 Alpha virt. eigenvalues --    7.13228   7.17944   7.19017   7.46827   7.48023
 Alpha virt. eigenvalues --    7.69970   7.71050   8.14729   8.15841  12.48969
 Alpha virt. eigenvalues --   12.50247
          Condensed to atoms (all electrons):
               1          2          3          4          5          6
     1  O    7.819550   0.343993   0.347184  -0.000010  -0.000004   0.000400
     2  H    0.343993   0.438876  -0.036247   0.000001   0.000000  -0.000021
     3  H    0.347184  -0.036247   0.430908   0.000001   0.000000  -0.000016
     4  O   -0.000010   0.000001   0.000001   7.820440   0.344332   0.346272
     5  H   -0.000004   0.000000   0.000000   0.344332   0.442128  -0.036698
     6  H    0.000400  -0.000021  -0.000016   0.346272  -0.036698   0.429723
 Mulliken charges:
               1
     1  O   -0.511112
     2  H    0.253398
     3  H    0.258170
     4  O   -0.511035
     5  H    0.250241
     6  H    0.260338
 Sum of Mulliken charges =  -0.00000
 Mulliken charges with hydrogens summed into heavy atoms:
               1
     1  O    0.000456
     4  O   -0.000456
 Electronic spatial extent (au):  <R**2>=            490.0938
 Charge=             -0.0000 electrons
 Dipole moment (field-independent basis, Debye):
    X=             -1.9520    Y=             -1.8937    Z=              0.0000  Tot=              2.7196
 Quadrupole moment (field-independent basis, Debye-Ang):
   XX=             -9.8531   YY=              0.4353   ZZ=            -14.7142
   XY=             -4.9923   XZ=              0.0000   YZ=              0.0000
 Traceless Quadrupole moment (field-independent basis, Debye-Ang):
   XX=             -1.8091   YY=              8.4793   ZZ=             -6.6702
   XY=             -4.9923   XZ=              0.0000   YZ=              0.0000
 Octapole moment (field-independent basis, Debye-Ang**2):
  XXX=             -0.7260  YYY=            -19.8823  ZZZ=              0.0000  XYY=            -12.7136
  XXY=             -6.9037  XXZ=              0.0000  XZZ=             -0.2539  YZZ=             -0.2644
  YYZ=              0.0000  XYZ=              0.0000
 Hexadecapole moment (field-independent basis, Debye-Ang**3):
 XXXX=            -12.0789 YYYY=           -252.4669 ZZZZ=            -11.3405 XXXY=              1.3042
 XXXZ=              0.0000 YYYX=            -38.4999 YYYZ=              0.0000 ZZZX=              0.0000
 ZZZY=              0.0000 XXYY=            -59.8586 XXZZ=             -4.3850 YYZZ=            -97.5709
 XXYZ=              0.0000 YYXZ=              0.0000 ZZXY=              1.4218
 N-N= 2.836798950534D+01 E-N=-4.182037484111D+02  KE= 1.518034049556D+02
 Symmetry A'   KE= 1.427668246014D+02
 Symmetry A"   KE= 9.036580354156D+00
 Leave Link  601 at Fri Aug 26 20:06:08 2022, MaxMem=   536870912 cpu:               0.2 elap:               0.1
 (Enter /usr/site/hpc/x86_64/glibc-2.17/broadwell/gaussian/g16_a.03/pgi-16.5/g16/l9999.exe)
 1\1\GINC-N050\SP\RCCSD(T)-FC\CC-pVTZ\H4O2\C7441284\26-Aug-2022\0\\#p C
 CSD(T)/cc-pVTZ\\H2O_H2O_3173\\0,1\O,0,0.,-0.009833,0.\H,0,-0.799571,-0
 .580965,0.\H,0,0.799571,-0.580965,0.\O,0,-0.009812,4.938744,0.\H,0,-0.
 527427,5.773957,0.\H,0,-0.632016,4.178238,0.\\Version=ES64L-G16RevA.03
 \State=1-A'\HF=-152.1079876\MP2=-152.6339007\MP3=-152.6414531\MP4D=-15
 2.6505559\MP4DQ=-152.6430042\MP4SDQ=-152.6460591\CCSD=-152.6454706\CCS
 D(T)=-152.6610991\RMSD=7.300e-09\PG=CS [SG(H4O2)]\\@


 There was a great rattling of the words for the fewness of ideas.
                   -- Charles Baxter in Gryphon
 Job cpu time:       0 days  0 hours  2 minutes  1.6 seconds.
 Elapsed time:       0 days  0 hours  0 minutes 31.2 seconds.
 File lengths (MBytes):  RWF=    320 Int=      0 D2E=      0 Chk=      8 Scr=      8
 Normal termination of Gaussian 16 at Fri Aug 26 20:06:08 2022.
