 Entering Gaussian System, Link 0=g16
 Input=H2O_H2O_4734.com
 Output=H2O_H2O_4734.log
 Initial command:
 /usr/site/hpc/x86_64/glibc-2.17/broadwell/gaussian/g16_a.03/pgi-16.5/g16/l1.exe "/gpfs/gpfs1/scratch/c7441284/ForceFieldModel/FittingData/Gau-3762270.inp" -scrdir="/gpfs/gpfs1/scratch/c7441284/ForceFieldModel/FittingData/"
 Entering Link 1 = /usr/site/hpc/x86_64/glibc-2.17/broadwell/gaussian/g16_a.03/pgi-16.5/g16/l1.exe PID=   3762275.
  
 Copyright (c) 1988,1990,1992,1993,1995,1998,2003,2009,2016,
            Gaussian, Inc.  All Rights Reserved.
  
 This is part of the Gaussian(R) 16 program.  It is based on
 the Gaussian(R) 09 system (copyright 2009, Gaussian, Inc.),
 the Gaussian(R) 03 system (copyright 2003, Gaussian, Inc.),
 the Gaussian(R) 98 system (copyright 1998, Gaussian, Inc.),
 the Gaussian(R) 94 system (copyright 1995, Gaussian, Inc.),
 the Gaussian 92(TM) system (copyright 1992, Gaussian, Inc.),
 the Gaussian 90(TM) system (copyright 1990, Gaussian, Inc.),
 the Gaussian 88(TM) system (copyright 1988, Gaussian, Inc.),
 the Gaussian 86(TM) system (copyright 1986, Carnegie Mellon
 University), and the Gaussian 82(TM) system (copyright 1983,
 Carnegie Mellon University). Gaussian is a federally registered
 trademark of Gaussian, Inc.
  
 This software contains proprietary and confidential information,
 including trade secrets, belonging to Gaussian, Inc.
  
 This software is provided under written license and may be
 used, copied, transmitted, or stored only in accord with that
 written license.
  
 The following legend is applicable only to US Government
 contracts under FAR:
  
                    RESTRICTED RIGHTS LEGEND
  
 Use, reproduction and disclosure by the US Government is
 subject to restrictions as set forth in subparagraphs (a)
 and (c) of the Commercial Computer Software - Restricted
 Rights clause in FAR 52.227-19.
  
 Gaussian, Inc.
 340 Quinnipiac St., Bldg. 40, Wallingford CT 06492
  
  
 ---------------------------------------------------------------
 Warning -- This program may not be used in any manner that
 competes with the business of Gaussian, Inc. or will provide
 assistance to any competitor of Gaussian, Inc.  The licensee
 of this program is prohibited from giving any competitor of
 Gaussian, Inc. access to this program.  By using this program,
 the user acknowledges that Gaussian, Inc. is engaged in the
 business of creating and licensing software in the field of
 computational chemistry and represents and warrants to the
 licensee that it is not a competitor of Gaussian, Inc. and that
 it will not use this program in any manner prohibited above.
 ---------------------------------------------------------------
  

 Cite this work as:
 Gaussian 16, Revision A.03,
 M. J. Frisch, G. W. Trucks, H. B. Schlegel, G. E. Scuseria, 
 M. A. Robb, J. R. Cheeseman, G. Scalmani, V. Barone, 
 G. A. Petersson, H. Nakatsuji, X. Li, M. Caricato, A. V. Marenich, 
 J. Bloino, B. G. Janesko, R. Gomperts, B. Mennucci, H. P. Hratchian, 
 J. V. Ortiz, A. F. Izmaylov, J. L. Sonnenberg, D. Williams-Young, 
 F. Ding, F. Lipparini, F. Egidi, J. Goings, B. Peng, A. Petrone, 
 T. Henderson, D. Ranasinghe, V. G. Zakrzewski, J. Gao, N. Rega, 
 G. Zheng, W. Liang, M. Hada, M. Ehara, K. Toyota, R. Fukuda, 
 J. Hasegawa, M. Ishida, T. Nakajima, Y. Honda, O. Kitao, H. Nakai, 
 T. Vreven, K. Throssell, J. A. Montgomery, Jr., J. E. Peralta, 
 F. Ogliaro, M. J. Bearpark, J. J. Heyd, E. N. Brothers, K. N. Kudin, 
 V. N. Staroverov, T. A. Keith, R. Kobayashi, J. Normand, 
 K. Raghavachari, A. P. Rendell, J. C. Burant, S. S. Iyengar, 
 J. Tomasi, M. Cossi, J. M. Millam, M. Klene, C. Adamo, R. Cammi, 
 J. W. Ochterski, R. L. Martin, K. Morokuma, O. Farkas, 
 J. B. Foresman, and D. J. Fox, Gaussian, Inc., Wallingford CT, 2016.
 
 ******************************************
 Gaussian 16:  ES64L-G16RevA.03 25-Dec-2016
                27-Aug-2022 
 ******************************************
 %NProcShared=4
 Will use up to    4 processors via shared memory.
 %Mem=4GB
 %Chk=H2O_H2O_4734.chk
 ------------------
 #p CCSD(T)/cc-pVTZ
 ------------------
 1/38=1,172=1/1;
 2/12=2,17=6,18=5,40=1/2;
 3/5=16,6=1,11=9,25=1,30=1/1,2,3;
 4//1;
 5/5=2,38=5/2;
 8/6=4,9=120000,10=1/1,4;
 9/5=7,14=2/13;
 6/7=2,8=2,9=2,10=2/1;
 99/5=1,9=1/99;
 Leave Link    1 at Sat Aug 27 09:02:01 2022, MaxMem=   536870912 cpu:               8.6 elap:               2.8
 (Enter /usr/site/hpc/x86_64/glibc-2.17/broadwell/gaussian/g16_a.03/pgi-16.5/g16/l101.exe)
 ------------
 H2O_H2O_4734
 ------------
 Symbolic Z-matrix:
 Charge =  0 Multiplicity = 1
 O                     0.       -0.00983   0. 
 H                    -0.79957  -0.58097   0. 
 H                     0.79957  -0.58097   0. 
 O                    -0.00546   6.62156   0. 
 H                     0.34205   7.54066   0. 
 H                    -0.98759   6.65222   0. 
 
 ITRead=  0  0  0  0  0  0
 MicOpt= -1 -1 -1 -1 -1 -1
 NAtoms=      6 NQM=        6 NQMF=       0 NMMI=      0 NMMIF=      0
                NMic=       0 NMicF=      0.
                    Isotopes and Nuclear Properties:
 (Nuclear quadrupole moments (NQMom) in fm**2, nuclear magnetic moments (NMagM)
  in nuclear magnetons)

  Atom         1           2           3           4           5           6
 IAtWgt=          16           1           1          16           1           1
 AtmWgt=  15.9949146   1.0078250   1.0078250  15.9949146   1.0078250   1.0078250
 NucSpn=           0           1           1           0           1           1
 AtZEff=  -0.0000000  -0.0000000  -0.0000000  -0.0000000  -0.0000000  -0.0000000
 NQMom=    0.0000000   0.0000000   0.0000000   0.0000000   0.0000000   0.0000000
 NMagM=    0.0000000   2.7928460   2.7928460   0.0000000   2.7928460   2.7928460
 AtZNuc=   8.0000000   1.0000000   1.0000000   8.0000000   1.0000000   1.0000000
 Leave Link  101 at Sat Aug 27 09:02:02 2022, MaxMem=   536870912 cpu:               0.3 elap:               0.8
 (Enter /usr/site/hpc/x86_64/glibc-2.17/broadwell/gaussian/g16_a.03/pgi-16.5/g16/l202.exe)
                          Input orientation:                          
 ---------------------------------------------------------------------
 Center     Atomic      Atomic             Coordinates (Angstroms)
 Number     Number       Type             X           Y           Z
 ---------------------------------------------------------------------
      1          8           0        0.000000   -0.009833    0.000000
      2          1           0       -0.799571   -0.580965    0.000000
      3          1           0        0.799571   -0.580965    0.000000
      4          8           0       -0.005463    6.621561    0.000000
      5          1           0        0.342052    7.540658    0.000000
      6          1           0       -0.987586    6.652222    0.000000
 ---------------------------------------------------------------------
                    Distance matrix (angstroms):
                    1          2          3          4          5
     1  O    0.000000
     2  H    0.982601   0.000000
     3  H    0.982601   1.599142   0.000000
     4  O    6.631396   7.246171   7.247376   0.000000
     5  H    7.558235   8.201467   8.134500   0.982602   0.000000
     6  H    6.734857   7.235630   7.450700   0.982601   1.599142
                    6
     6  H    0.000000
 Stoichiometry    H4O2
 Framework group  CS[SG(H4O2)]
 Deg. of freedom     9
 Full point group                 CS      NOp   2
 Largest Abelian subgroup         CS      NOp   2
 Largest concise Abelian subgroup C1      NOp   1
                         Standard orientation:                         
 ---------------------------------------------------------------------
 Center     Atomic      Atomic             Coordinates (Angstroms)
 Number     Number       Type             X           Y           Z
 ---------------------------------------------------------------------
      1          8           0        0.031738   -3.306099    0.000000
      2          1           0       -0.768303   -3.876572    0.000000
      3          1           0        0.830839   -3.877889    0.000000
      4          8           0        0.031738    3.325297    0.000000
      5          1           0        0.380010    4.244108    0.000000
      6          1           0       -0.950359    3.356767    0.000000
 ---------------------------------------------------------------------
 Rotational constants (GHZ):         213.8343690           1.2281011           1.2210881
 Leave Link  202 at Sat Aug 27 09:02:02 2022, MaxMem=   536870912 cpu:               0.0 elap:               0.0
 (Enter /usr/site/hpc/x86_64/glibc-2.17/broadwell/gaussian/g16_a.03/pgi-16.5/g16/l301.exe)
 Standard basis: CC-pVTZ (5D, 7F)
 Ernie: Thresh=  0.10000D-02 Tol=  0.10000D-05 Strict=F.
 Ernie:  6 primitive shells out of 84 were deleted.
 There are    92 symmetry adapted cartesian basis functions of A'  symmetry.
 There are    38 symmetry adapted cartesian basis functions of A"  symmetry.
 There are    80 symmetry adapted basis functions of A'  symmetry.
 There are    36 symmetry adapted basis functions of A"  symmetry.
   116 basis functions,   172 primitive gaussians,   130 cartesian basis functions
    10 alpha electrons       10 beta electrons
       nuclear repulsion energy        25.6332388709 Hartrees.
 IExCor=    0 DFT=F Ex=HF Corr=None ExCW=0 ScaHFX=  1.000000
 ScaDFX=  1.000000  1.000000  1.000000  1.000000 ScalE2=  1.000000  1.000000
 IRadAn=      5 IRanWt=     -1 IRanGd=            0 ICorTp=0 IEmpDi=  4
 NAtoms=    6 NActive=    6 NUniq=    6 SFac= 1.00D+00 NAtFMM=   60 NAOKFM=F Big=F
 Integral buffers will be    131072 words long.
 Raffenetti 1 integral format.
 Two-electron integral symmetry is turned on.
 Leave Link  301 at Sat Aug 27 09:02:02 2022, MaxMem=   536870912 cpu:               0.2 elap:               0.1
 (Enter /usr/site/hpc/x86_64/glibc-2.17/broadwell/gaussian/g16_a.03/pgi-16.5/g16/l302.exe)
 NPDir=0 NMtPBC=     1 NCelOv=     1 NCel=       1 NClECP=     1 NCelD=      1
         NCelK=      1 NCelE2=     1 NClLst=     1 CellRange=     0.0.
 One-electron integrals computed using PRISM.
 One-electron integral symmetry used in STVInt
 NBasis=   116 RedAO= T EigKep=  2.69D-03  NBF=    80    36
 NBsUse=   116 1.00D-06 EigRej= -1.00D+00 NBFU=    80    36
 Leave Link  302 at Sat Aug 27 09:02:02 2022, MaxMem=   536870912 cpu:               0.4 elap:               0.1
 (Enter /usr/site/hpc/x86_64/glibc-2.17/broadwell/gaussian/g16_a.03/pgi-16.5/g16/l303.exe)
 DipDrv:  MaxL=1.
 Leave Link  303 at Sat Aug 27 09:02:02 2022, MaxMem=   536870912 cpu:               0.1 elap:               0.0
 (Enter /usr/site/hpc/x86_64/glibc-2.17/broadwell/gaussian/g16_a.03/pgi-16.5/g16/l401.exe)
 ExpMin= 1.03D-01 ExpMax= 1.53D+04 ExpMxC= 5.22D+02 IAcc=3 IRadAn=         5 AccDes= 0.00D+00
 Harris functional with IExCor=  205 and IRadAn=       5 diagonalized for initial guess.
 HarFok:  IExCor=  205 AccDes= 0.00D+00 IRadAn=         5 IDoV= 1 UseB2=F ITyADJ=14
 ICtDFT=  3500011 ScaDFX=  1.000000  1.000000  1.000000  1.000000
 FoFCou: FMM=F IPFlag=           0 FMFlag=      100000 FMFlg1=           0
         NFxFlg=           0 DoJE=T BraDBF=F KetDBF=T FulRan=T
         wScrn=  0.000000 ICntrl=       500 IOpCl=  0 I1Cent=   200000004 NGrid=           0
         NMat0=    1 NMatS0=      1 NMatT0=    0 NMatD0=    1 NMtDS0=    0 NMtDT0=    0
 Petite list used in FoFCou.
 Harris En= -152.298685764127    
 JPrj=0 DoOrth=F DoCkMO=F.
 Initial guess orbital symmetries:
       Occupied  (A') (A') (A') (A') (A') (A') (A') (A') (A") (A")
       Virtual   (A') (A') (A') (A') (A') (A') (A') (A') (A') (A')
                 (A") (A") (A') (A') (A') (A') (A") (A") (A") (A")
                 (A') (A') (A') (A') (A') (A') (A') (A') (A") (A")
                 (A") (A") (A') (A') (A') (A') (A') (A') (A') (A')
                 (A') (A') (A") (A") (A') (A') (A") (A") (A") (A")
                 (A') (A') (A') (A') (A') (A') (A") (A") (A') (A')
                 (A') (A') (A") (A") (A") (A") (A') (A') (A') (A')
                 (A") (A") (A') (A') (A') (A') (A') (A') (A') (A')
                 (A") (A") (A') (A') (A") (A") (A") (A") (A') (A')
                 (A") (A") (A') (A') (A') (A') (A") (A") (A') (A')
                 (A') (A') (A') (A') (A') (A')
 The electronic state of the initial guess is 1-A'.
 Leave Link  401 at Sat Aug 27 09:02:02 2022, MaxMem=   536870912 cpu:               0.7 elap:               0.2
 (Enter /usr/site/hpc/x86_64/glibc-2.17/broadwell/gaussian/g16_a.03/pgi-16.5/g16/l502.exe)
 Keep R1 ints in memory in symmetry-blocked form, NReq=34823457.
 FoFCou: FMM=F IPFlag=           0 FMFlag=           0 FMFlg1=           0
         NFxFlg=           0 DoJE=F BraDBF=F KetDBF=F FulRan=T
         wScrn=  0.000000 ICntrl=       600 IOpCl=  0 I1Cent=           0 NGrid=           0
         NMat0=    1 NMatS0=   6786 NMatT0=    0 NMatD0=    1 NMtDS0=    0 NMtDT0=    0
 Petite list used in FoFCou.
 Closed shell SCF:
 Using DIIS extrapolation, IDIIS=  1040.
 NGot=   536870912 LenX=   525040673 LenY=   525023332
 Requested convergence on RMS density matrix=1.00D-08 within 128 cycles.
 Requested convergence on MAX density matrix=1.00D-06.
 Requested convergence on             energy=1.00D-06.
 No special actions if energy rises.

 Cycle   1  Pass 1  IDiag  1:
 E= -151.926154987423    
 DIIS: error= 6.29D-02 at cycle   1 NSaved=   1.
 NSaved= 1 IEnMin= 1 EnMin= -151.926154987423     IErMin= 1 ErrMin= 6.29D-02
 ErrMax= 6.29D-02  0.00D+00 EMaxC= 1.00D-01 BMatC= 4.01D-01 BMatP= 4.01D-01
 IDIUse=3 WtCom= 3.71D-01 WtEn= 6.29D-01
 Coeff-Com:  0.100D+01
 Coeff-En:   0.100D+01
 Coeff:      0.100D+01
 Gap=     0.521 Goal=   None    Shift=    0.000
 GapD=    0.521 DampG=2.000 DampE=0.500 DampFc=1.0000 IDamp=-1.
 RMSDP=2.51D-03 MaxDP=6.63D-02              OVMax= 1.27D-01

 Cycle   2  Pass 1  IDiag  1:
 E= -152.038129973830     Delta-E=       -0.111974986406 Rises=F Damp=F
 DIIS: error= 3.96D-02 at cycle   2 NSaved=   2.
 NSaved= 2 IEnMin= 2 EnMin= -152.038129973830     IErMin= 2 ErrMin= 3.96D-02
 ErrMax= 3.96D-02  0.00D+00 EMaxC= 1.00D-01 BMatC= 1.13D-01 BMatP= 4.01D-01
 IDIUse=3 WtCom= 6.04D-01 WtEn= 3.96D-01
 Coeff-Com:  0.320D+00 0.680D+00
 Coeff-En:   0.167D+00 0.833D+00
 Coeff:      0.259D+00 0.741D+00
 Gap=     0.663 Goal=   None    Shift=    0.000
 RMSDP=1.32D-03 MaxDP=3.94D-02 DE=-1.12D-01 OVMax= 5.71D-02

 Cycle   3  Pass 1  IDiag  1:
 E= -152.103386080446     Delta-E=       -0.065256106616 Rises=F Damp=F
 DIIS: error= 8.37D-03 at cycle   3 NSaved=   3.
 NSaved= 3 IEnMin= 3 EnMin= -152.103386080446     IErMin= 3 ErrMin= 8.37D-03
 ErrMax= 8.37D-03  0.00D+00 EMaxC= 1.00D-01 BMatC= 5.74D-03 BMatP= 1.13D-01
 IDIUse=3 WtCom= 9.16D-01 WtEn= 8.37D-02
 Coeff-Com: -0.304D-01 0.152D+00 0.879D+00
 Coeff-En:   0.000D+00 0.000D+00 0.100D+01
 Coeff:     -0.279D-01 0.139D+00 0.889D+00
 Gap=     0.636 Goal=   None    Shift=    0.000
 RMSDP=2.39D-04 MaxDP=5.51D-03 DE=-6.53D-02 OVMax= 1.32D-02

 Cycle   4  Pass 1  IDiag  1:
 E= -152.106980617548     Delta-E=       -0.003594537103 Rises=F Damp=F
 DIIS: error= 7.83D-04 at cycle   4 NSaved=   4.
 NSaved= 4 IEnMin= 4 EnMin= -152.106980617548     IErMin= 4 ErrMin= 7.83D-04
 ErrMax= 7.83D-04  0.00D+00 EMaxC= 1.00D-01 BMatC= 3.49D-05 BMatP= 5.74D-03
 IDIUse=3 WtCom= 9.92D-01 WtEn= 7.83D-03
 Coeff-Com:  0.689D-02-0.600D-01-0.246D+00 0.130D+01
 Coeff-En:   0.000D+00 0.000D+00 0.000D+00 0.100D+01
 Coeff:      0.684D-02-0.596D-01-0.244D+00 0.130D+01
 Gap=     0.639 Goal=   None    Shift=    0.000
 RMSDP=5.18D-05 MaxDP=1.01D-03 DE=-3.59D-03 OVMax= 2.26D-03

 Cycle   5  Pass 1  IDiag  1:
 E= -152.107030004461     Delta-E=       -0.000049386913 Rises=F Damp=F
 DIIS: error= 1.85D-04 at cycle   5 NSaved=   5.
 NSaved= 5 IEnMin= 5 EnMin= -152.107030004461     IErMin= 5 ErrMin= 1.85D-04
 ErrMax= 1.85D-04  0.00D+00 EMaxC= 1.00D-01 BMatC= 1.35D-06 BMatP= 3.49D-05
 IDIUse=3 WtCom= 9.98D-01 WtEn= 1.85D-03
 Coeff-Com:  0.548D-03 0.214D-03-0.283D-02-0.215D+00 0.122D+01
 Coeff-En:   0.000D+00 0.000D+00 0.000D+00 0.000D+00 0.100D+01
 Coeff:      0.547D-03 0.213D-03-0.283D-02-0.214D+00 0.122D+01
 Gap=     0.639 Goal=   None    Shift=    0.000
 RMSDP=1.40D-05 MaxDP=2.86D-04 DE=-4.94D-05 OVMax= 6.82D-04

 Cycle   6  Pass 1  IDiag  1:
 E= -152.107032808135     Delta-E=       -0.000002803674 Rises=F Damp=F
 DIIS: error= 2.89D-05 at cycle   6 NSaved=   6.
 NSaved= 6 IEnMin= 6 EnMin= -152.107032808135     IErMin= 6 ErrMin= 2.89D-05
 ErrMax= 2.89D-05  0.00D+00 EMaxC= 1.00D-01 BMatC= 3.44D-08 BMatP= 1.35D-06
 IDIUse=1 WtCom= 1.00D+00 WtEn= 0.00D+00
 Coeff-Com: -0.279D-03 0.160D-02 0.702D-02-0.911D-04-0.261D+00 0.125D+01
 Coeff:     -0.279D-03 0.160D-02 0.702D-02-0.911D-04-0.261D+00 0.125D+01
 Gap=     0.639 Goal=   None    Shift=    0.000
 RMSDP=3.02D-06 MaxDP=6.54D-05 DE=-2.80D-06 OVMax= 1.54D-04

 Cycle   7  Pass 1  IDiag  1:
 E= -152.107032905621     Delta-E=       -0.000000097486 Rises=F Damp=F
 DIIS: error= 5.32D-06 at cycle   7 NSaved=   7.
 NSaved= 7 IEnMin= 7 EnMin= -152.107032905621     IErMin= 7 ErrMin= 5.32D-06
 ErrMax= 5.32D-06  0.00D+00 EMaxC= 1.00D-01 BMatC= 1.78D-09 BMatP= 3.44D-08
 IDIUse=1 WtCom= 1.00D+00 WtEn= 0.00D+00
 Coeff-Com:  0.335D-04-0.395D-03-0.169D-02 0.138D-01-0.116D-01-0.232D+00
 Coeff-Com:  0.123D+01
 Coeff:      0.335D-04-0.395D-03-0.169D-02 0.138D-01-0.116D-01-0.232D+00
 Coeff:      0.123D+01
 Gap=     0.640 Goal=   None    Shift=    0.000
 RMSDP=4.40D-07 MaxDP=9.52D-06 DE=-9.75D-08 OVMax= 2.96D-05

 Cycle   8  Pass 1  IDiag  1:
 E= -152.107032909417     Delta-E=       -0.000000003795 Rises=F Damp=F
 DIIS: error= 1.61D-06 at cycle   8 NSaved=   8.
 NSaved= 8 IEnMin= 8 EnMin= -152.107032909417     IErMin= 8 ErrMin= 1.61D-06
 ErrMax= 1.61D-06  0.00D+00 EMaxC= 1.00D-01 BMatC= 9.56D-11 BMatP= 1.78D-09
 IDIUse=1 WtCom= 1.00D+00 WtEn= 0.00D+00
 Coeff-Com:  0.399D-05 0.448D-04 0.225D-03-0.505D-02 0.193D-01 0.950D-02
 Coeff-Com: -0.397D+00 0.137D+01
 Coeff:      0.399D-05 0.448D-04 0.225D-03-0.505D-02 0.193D-01 0.950D-02
 Coeff:     -0.397D+00 0.137D+01
 Gap=     0.640 Goal=   None    Shift=    0.000
 RMSDP=1.13D-07 MaxDP=2.42D-06 DE=-3.80D-09 OVMax= 6.60D-06

 Cycle   9  Pass 1  IDiag  1:
 E= -152.107032909635     Delta-E=       -0.000000000218 Rises=F Damp=F
 DIIS: error= 3.03D-07 at cycle   9 NSaved=   9.
 NSaved= 9 IEnMin= 9 EnMin= -152.107032909635     IErMin= 9 ErrMin= 3.03D-07
 ErrMax= 3.03D-07  0.00D+00 EMaxC= 1.00D-01 BMatC= 4.36D-12 BMatP= 9.56D-11
 IDIUse=1 WtCom= 1.00D+00 WtEn= 0.00D+00
 Coeff-Com:  0.225D-07 0.198D-04 0.892D-04-0.144D-02 0.483D-02 0.565D-02
 Coeff-Com: -0.104D+00 0.253D+00 0.842D+00
 Coeff:      0.225D-07 0.198D-04 0.892D-04-0.144D-02 0.483D-02 0.565D-02
 Coeff:     -0.104D+00 0.253D+00 0.842D+00
 Gap=     0.640 Goal=   None    Shift=    0.000
 RMSDP=1.25D-08 MaxDP=3.48D-07 DE=-2.18D-10 OVMax= 8.36D-07

 Cycle  10  Pass 1  IDiag  1:
 E= -152.107032909640     Delta-E=       -0.000000000005 Rises=F Damp=F
 DIIS: error= 1.26D-07 at cycle  10 NSaved=  10.
 NSaved=10 IEnMin=10 EnMin= -152.107032909640     IErMin=10 ErrMin= 1.26D-07
 ErrMax= 1.26D-07  0.00D+00 EMaxC= 1.00D-01 BMatC= 5.88D-13 BMatP= 4.36D-12
 IDIUse=1 WtCom= 1.00D+00 WtEn= 0.00D+00
 Coeff-Com: -0.534D-06-0.453D-05-0.252D-04 0.572D-03-0.205D-02-0.205D-02
 Coeff-Com:  0.524D-01-0.193D+00 0.108D+00 0.104D+01
 Coeff:     -0.534D-06-0.453D-05-0.252D-04 0.572D-03-0.205D-02-0.205D-02
 Coeff:      0.524D-01-0.193D+00 0.108D+00 0.104D+01
 Gap=     0.640 Goal=   None    Shift=    0.000
 RMSDP=6.09D-09 MaxDP=1.97D-07 DE=-5.14D-12 OVMax= 3.92D-07

 SCF Done:  E(RHF) =  -152.107032910     A.U. after   10 cycles
            NFock= 10  Conv=0.61D-08     -V/T= 2.0020
 KE= 1.518050322569D+02 PE=-4.127455925257D+02 EE= 8.320028848827D+01
 Leave Link  502 at Sat Aug 27 09:02:03 2022, MaxMem=   536870912 cpu:               3.4 elap:               0.9
 (Enter /usr/site/hpc/x86_64/glibc-2.17/broadwell/gaussian/g16_a.03/pgi-16.5/g16/l801.exe)
 Windowed orbitals will be sorted by symmetry type.
 ExpMin= 1.03D-01 ExpMax= 1.53D+04 ExpMxC= 5.22D+02 IAcc=3 IRadAn=         5 AccDes= 0.00D+00
 HarFok:  IExCor=  205 AccDes= 0.00D+00 IRadAn=         5 IDoV=-2 UseB2=F ITyADJ=14
 ICtDFT= 12500011 ScaDFX=  1.000000  1.000000  1.000000  1.000000
 Largest valence mixing into a core orbital is  1.12D-04
 Largest core mixing into a valence orbital is  1.77D-05
 Range of M.O.s used for correlation:     3   116
 NBasis=   116 NAE=    10 NBE=    10 NFC=     2 NFV=     0
 NROrb=    114 NOA=     8 NOB=     8 NVA=   106 NVB=   106
 Leave Link  801 at Sat Aug 27 09:02:03 2022, MaxMem=   536870912 cpu:               0.3 elap:               0.1
 (Enter /usr/site/hpc/x86_64/glibc-2.17/broadwell/gaussian/g16_a.03/pgi-16.5/g16/l804.exe)
 Closed-shell transformation, MDV=   536870912 ITran=4 ISComp=2.
 Unit  1 TFree=        834515 TCopy=        406125.
 Semi-Direct transformation.
 ModeAB=           4 MOrb=             8 LenV=     536382791
 LASXX=      2873146 LTotXX=     2873146 LenRXX=     5831278
 LTotAB=     2958132 MaxLAS=     4736928 LenRXY=           0
 NonZer=     8704424 LenScr=    13107200 LnRSAI=     4736928
 LnScr1=     7340032 LExtra=           0 Total=     31015438
 MaxDsk=          -1 SrtSym=           T ITran=            4
 DoSDTr:  NPSUse=  4
 JobTyp=0 Pass  1:  I=   1 to   8.
 (rs|ai) integrals will be sorted in core.
 Complete sort for first half transformation.
 First half transformation complete.
 Complete sort for second half transformation.
 Second half transformation complete.
 Spin components of T(2) and E(2):
     alpha-alpha T2 =       0.1556118828D-01 E2=     -0.6379731571D-01
     alpha-beta  T2 =       0.9192866259D-01 E2=     -0.3983141392D+00
     beta-beta   T2 =       0.1556118828D-01 E2=     -0.6379731571D-01
 ANorm=    0.1059741025D+01
 E2 =    -0.5259087707D+00 EUMP2 =    -0.15263294168030D+03
 Leave Link  804 at Sat Aug 27 09:02:05 2022, MaxMem=   536870912 cpu:               4.9 elap:               1.5
 (Enter /usr/site/hpc/x86_64/glibc-2.17/broadwell/gaussian/g16_a.03/pgi-16.5/g16/l913.exe)
 CIDS:  MDV=   536870912.
 Frozen-core window:  NFC=   2 NFV=   0.
 IFCWin=0 IBDFC=1 NFBD=     0     0 NFCmp=     0     0 NFFFC=     0     0
 Using DD3R+UMP44R for 1st iteration.
 Using DD4RQ for 2nd and later iterations.
 Keep R2 and R3 ints in memory in symmetry-blocked form, NReq=35357534.
 FoFCou: FMM=F IPFlag=           0 FMFlag=           0 FMFlg1=           0
         NFxFlg=           0 DoJE=F BraDBF=F KetDBF=F FulRan=T
         wScrn=  0.000000 ICntrl=       600 IOpCl=  0 I1Cent=           0 NGrid=           0
         NMat0=    1 NMatS0=   6786 NMatT0=    0 NMatD0=    1 NMtDS0=    0 NMtDT0=    0
 Petite list used in FoFCou.
 CIDS: In Core Option IDoMem=           1.
 CCSD(T)
 =======
 Iterations=  50 Convergence= 0.100D-06
 Produce multiple copies of IABC intergrals
 Iteration Nr.   1
 **********************
 DD1Dir will call FoFMem   1 times, MxPair=        72
 NAB=    36 NAA=     0 NBB=     0.
 MP4(R+Q)=  0.75563592D-02
 Maximum subspace dimension=  5
 A-vector RMS=  1.7434180D-03 Max=  6.2085037D-03 conv= 1.00D-05.
 RLE energy=       -0.5258544596
 E3=       -0.75733541D-02        EUMP3=      -0.15264051503D+03
 E4(DQ)=   -0.15531481D-02        UMP4(DQ)=   -0.15264206818D+03
 E4(SDQ)=  -0.46112918D-02        UMP4(SDQ)=  -0.15264512633D+03
 VARIATIONAL ENERGIES WITH THE FIRST-ORDER WAVEFUNCTION:
 DE(Corr)= -0.52585446     E(Corr)=     -152.63288737    
 NORM(A)=   0.10601112D+01
 Iteration Nr.   2
 **********************
 DD1Dir will call FoFMem   1 times, MxPair=        72
 NAB=    36 NAA=     0 NBB=     0.
 A-vector RMS=  2.1225810D-04 Max=  2.3225344D-03 conv= 1.00D-05.
 RLE energy=       -0.5369215110
 DE(Corr)= -0.53576083     E(CORR)=     -152.64279374     Delta=-9.91D-03
 NORM(A)=   0.10638629D+01
 Iteration Nr.   3
 **********************
 DD1Dir will call FoFMem   1 times, MxPair=        72
 NAB=    36 NAA=     0 NBB=     0.
 A-vector RMS=  1.4154988D-04 Max=  9.2698947D-04 conv= 1.00D-05.
 RLE energy=       -0.5374176778
 DE(Corr)= -0.53683128     E(CORR)=     -152.64386418     Delta=-1.07D-03
 NORM(A)=   0.10645021D+01
 Iteration Nr.   4
 **********************
 DD1Dir will call FoFMem   1 times, MxPair=        72
 NAB=    36 NAA=     0 NBB=     0.
 A-vector RMS=  2.5892223D-05 Max=  1.5199384D-04 conv= 1.00D-05.
 RLE energy=       -0.5375009175
 DE(Corr)= -0.53746556     E(CORR)=     -152.64449847     Delta=-6.34D-04
 NORM(A)=   0.10646131D+01
 Iteration Nr.   5
 **********************
 DD1Dir will call FoFMem   1 times, MxPair=        72
 NAB=    36 NAA=     0 NBB=     0.
 A-vector RMS=  1.8857819D-05 Max=  1.7279919D-04 conv= 1.00D-05.
 RLE energy=       -0.5375093330
 DE(Corr)= -0.53750253     E(CORR)=     -152.64453544     Delta=-3.70D-05
 NORM(A)=   0.10646228D+01
 Iteration Nr.   6
 **********************
 DD1Dir will call FoFMem   1 times, MxPair=        72
 NAB=    36 NAA=     0 NBB=     0.
 A-vector RMS=  5.5562128D-06 Max=  4.4682300D-05 conv= 1.00D-05.
 RLE energy=       -0.5375000993
 DE(Corr)= -0.53750572     E(CORR)=     -152.64453863     Delta=-3.19D-06
 NORM(A)=   0.10646229D+01
 Iteration Nr.   7
 **********************
 DD1Dir will call FoFMem   1 times, MxPair=        72
 NAB=    36 NAA=     0 NBB=     0.
 A-vector RMS=  2.6676972D-06 Max=  2.4926642D-05 conv= 1.00D-05.
 RLE energy=       -0.5375069035
 DE(Corr)= -0.53750586     E(CORR)=     -152.64453877     Delta=-1.43D-07
 NORM(A)=   0.10646253D+01
 Iteration Nr.   8
 **********************
 DD1Dir will call FoFMem   1 times, MxPair=        72
 NAB=    36 NAA=     0 NBB=     0.
 A-vector RMS=  5.1116035D-07 Max=  4.3672044D-06 conv= 1.00D-05.
 RLE energy=       -0.5375052610
 DE(Corr)= -0.53750543     E(CORR)=     -152.64453834     Delta= 4.35D-07
 NORM(A)=   0.10646254D+01
 Iteration Nr.   9
 **********************
 DD1Dir will call FoFMem   1 times, MxPair=        72
 NAB=    36 NAA=     0 NBB=     0.
 A-vector RMS=  1.0949057D-07 Max=  8.8172686D-07 conv= 1.00D-05.
 RLE energy=       -0.5375057668
 DE(Corr)= -0.53750572     E(CORR)=     -152.64453863     Delta=-2.93D-07
 NORM(A)=   0.10646257D+01
 Iteration Nr.  10
 **********************
 DD1Dir will call FoFMem   1 times, MxPair=        72
 NAB=    36 NAA=     0 NBB=     0.
 A-vector RMS=  3.2989572D-08 Max=  2.6406002D-07 conv= 1.00D-05.
 RLE energy=       -0.5375057102
 DE(Corr)= -0.53750570     E(CORR)=     -152.64453861     Delta= 2.38D-08
 NORM(A)=   0.10646257D+01
 CI/CC converged in   10 iterations to DelEn= 2.38D-08 Conv= 1.00D-07 ErrA1= 3.30D-08 Conv= 1.00D-05
 Wavefunction amplitudes converged. E(Corr)=     -152.64453861    
 Largest amplitude= 4.79D-02
 IPart=  4 IA=    7   11.05% done.
 IPart=  4 IA=   13   21.46% done.
 IPart=  4 IA=   19   31.21% done.
 IPart=  2 IA=   25   40.32% done.
 IPart=  2 IA=   32   50.13% done.
 IPart=  2 IA=   40   60.27% done.
 IPart=  2 IA=   49   70.30% done.
 IPart=  1 IA=   60   80.58% done.
 IPart=  2 IA=   74   90.51% done.
 Time for triples=       61.10 seconds.
 T4(CCSD)= -0.16035132D-01
 T5(CCSD)=  0.40374457D-03
 CCSD(T)= -0.15266016999D+03
 Discarding MO integrals.
 Leave Link  913 at Sat Aug 27 09:02:31 2022, MaxMem=   536870912 cpu:              94.0 elap:              25.9
 (Enter /usr/site/hpc/x86_64/glibc-2.17/broadwell/gaussian/g16_a.03/pgi-16.5/g16/l601.exe)
 Copying SCF densities to generalized density rwf, IOpCl= 0 IROHF=0.

 **********************************************************************

            Population analysis using the SCF density.

 **********************************************************************

 Orbital symmetries:
       Occupied  (A') (A') (A') (A') (A') (A') (A') (A') (A") (A")
       Virtual   (A') (A') (A') (A') (A') (A') (A') (A') (A') (A')
                 (A") (A") (A') (A') (A') (A') (A") (A") (A") (A")
                 (A') (A') (A') (A') (A') (A') (A') (A') (A") (A")
                 (A") (A") (A') (A') (A') (A') (A') (A') (A') (A')
                 (A') (A') (A") (A") (A') (A') (A") (A") (A') (A')
                 (A") (A") (A') (A') (A') (A') (A") (A") (A") (A")
                 (A') (A') (A') (A') (A") (A") (A') (A') (A') (A')
                 (A") (A") (A') (A') (A') (A') (A') (A') (A') (A')
                 (A") (A") (A') (A') (A") (A") (A") (A") (A') (A')
                 (A") (A") (A') (A') (A') (A') (A") (A") (A') (A')
                 (A') (A') (A') (A') (A') (A')
 The electronic state is 1-A'.
 Alpha  occ. eigenvalues --  -20.55324 -20.55224  -1.32621  -1.32520  -0.70027
 Alpha  occ. eigenvalues --   -0.69925  -0.56051  -0.55950  -0.49729  -0.49629
 Alpha virt. eigenvalues --    0.14321   0.14423   0.20377   0.20482   0.54539
 Alpha virt. eigenvalues --    0.54647   0.57424   0.57525   0.68166   0.68271
 Alpha virt. eigenvalues --    0.79150   0.79249   0.80589   0.80698   0.82515
 Alpha virt. eigenvalues --    0.82613   0.84998   0.85099   0.97460   0.97558
 Alpha virt. eigenvalues --    1.14988   1.15091   1.17327   1.17431   1.51865
 Alpha virt. eigenvalues --    1.51964   1.52155   1.52256   2.00891   2.00991
 Alpha virt. eigenvalues --    2.06949   2.07052   2.09633   2.09740   2.15070
 Alpha virt. eigenvalues --    2.15173   2.25217   2.25318   2.61692   2.61794
 Alpha virt. eigenvalues --    2.93068   2.93170   3.39555   3.39657   3.50110
 Alpha virt. eigenvalues --    3.50212   3.53300   3.53400   3.59680   3.59781
 Alpha virt. eigenvalues --    3.78859   3.78959   3.85620   3.85722   3.87798
 Alpha virt. eigenvalues --    3.87899   3.93756   3.93858   4.03215   4.03315
 Alpha virt. eigenvalues --    4.08372   4.08473   4.15444   4.15545   4.30300
 Alpha virt. eigenvalues --    4.30401   4.40116   4.40218   4.45743   4.45845
 Alpha virt. eigenvalues --    4.66710   4.66811   4.81068   4.81169   5.04398
 Alpha virt. eigenvalues --    5.04499   5.24279   5.24380   5.54237   5.54340
 Alpha virt. eigenvalues --    5.98124   5.98224   6.40579   6.40679   6.86373
 Alpha virt. eigenvalues --    6.86474   6.89849   6.89951   6.94779   6.94881
 Alpha virt. eigenvalues --    6.99326   6.99426   7.08082   7.08185   7.12705
 Alpha virt. eigenvalues --    7.12805   7.18494   7.18595   7.47390   7.47492
 Alpha virt. eigenvalues --    7.70520   7.70622   8.15252   8.15353  12.49463
 Alpha virt. eigenvalues --   12.49564
          Condensed to atoms (all electrons):
               1          2          3          4          5          6
     1  O    7.815379   0.345317   0.345960  -0.000000  -0.000000   0.000000
     2  H    0.345317   0.438618  -0.036637   0.000000   0.000000  -0.000000
     3  H    0.345960  -0.036637   0.436724   0.000000   0.000000  -0.000000
     4  O   -0.000000   0.000000   0.000000   7.815378   0.345045   0.346153
     5  H   -0.000000   0.000000   0.000000   0.345045   0.439276  -0.036663
     6  H    0.000000  -0.000000  -0.000000   0.346153  -0.036663   0.436276
 Mulliken charges:
               1
     1  O   -0.506656
     2  H    0.252702
     3  H    0.253954
     4  O   -0.506576
     5  H    0.252342
     6  H    0.254234
 Sum of Mulliken charges =  -0.00000
 Mulliken charges with hydrogens summed into heavy atoms:
               1
     1  O    0.000000
     4  O   -0.000000
 Electronic spatial extent (au):  <R**2>=            856.1028
 Charge=             -0.0000 electrons
 Dipole moment (field-independent basis, Debye):
    X=             -1.0913    Y=             -0.3346    Z=              0.0000  Tot=              1.1414
 Quadrupole moment (field-independent basis, Debye-Ang):
   XX=             -8.4359   YY=             12.8701   ZZ=            -14.7111
   XY=             -2.8119   XZ=              0.0000   YZ=              0.0000
 Traceless Quadrupole moment (field-independent basis, Debye-Ang):
   XX=             -5.0103   YY=             16.2957   ZZ=            -11.2854
   XY=             -2.8119   XZ=              0.0000   YZ=              0.0000
 Octapole moment (field-independent basis, Debye-Ang**2):
  XXX=             -1.8196  YYY=             -3.8428  ZZZ=              0.0000  XYY=             -4.9899
  XXY=             -3.3442  XXZ=              0.0000  XZZ=             -0.1431  YZZ=             -0.0449
  YYZ=              0.0000  XYZ=              0.0000
 Hexadecapole moment (field-independent basis, Debye-Ang**3):
 XXXX=            -10.9464 YYYY=           -219.1624 ZZZZ=            -11.3341 XXXY=             -3.8572
 XXXZ=              0.0000 YYYX=             -2.1088 YYYZ=              0.0000 ZZZX=              0.0000
 ZZZY=              0.0000 XXYY=            -90.4000 XXZZ=             -4.5118 YYZZ=           -173.1184
 XXYZ=              0.0000 YYXZ=              0.0000 ZZXY=              0.9860
 N-N= 2.563323887095D+01 E-N=-4.127455915677D+02  KE= 1.518050322569D+02
 Symmetry A'   KE= 1.427673014775D+02
 Symmetry A"   KE= 9.037730779374D+00
 Leave Link  601 at Sat Aug 27 09:02:31 2022, MaxMem=   536870912 cpu:               0.1 elap:               0.0
 (Enter /usr/site/hpc/x86_64/glibc-2.17/broadwell/gaussian/g16_a.03/pgi-16.5/g16/l9999.exe)
 1\1\GINC-N003\SP\RCCSD(T)-FC\CC-pVTZ\H4O2\C7441284\27-Aug-2022\0\\#p C
 CSD(T)/cc-pVTZ\\H2O_H2O_4734\\0,1\O,0,0.,-0.009833,0.\H,0,-0.799571,-0
 .580965,0.\H,0,0.799571,-0.580965,0.\O,0,-0.005463,6.621561,0.\H,0,0.3
 42052,7.540658,0.\H,0,-0.987586,6.652222,0.\\Version=ES64L-G16RevA.03\
 State=1-A'\HF=-152.1070329\MP2=-152.6329417\MP3=-152.640515\MP4D=-152.
 6496245\MP4DQ=-152.6420682\MP4SDQ=-152.6451263\CCSD=-152.6445386\CCSD(
 T)=-152.66017\RMSD=6.095e-09\PG=CS [SG(H4O2)]\\@


 ROSE IS A RED
 TY COBB IS BLUE
 'CAUSE PETE JUST HIT
 NO. 4592.
 Job cpu time:       0 days  0 hours  1 minutes 53.2 seconds.
 Elapsed time:       0 days  0 hours  0 minutes 32.6 seconds.
 File lengths (MBytes):  RWF=    568 Int=      0 D2E=      0 Chk=      8 Scr=      8
 Normal termination of Gaussian 16 at Sat Aug 27 09:02:31 2022.
