 Entering Gaussian System, Link 0=g16
 Input=H2O_H2O_68.com
 Output=H2O_H2O_68.log
 Initial command:
 /usr/site/hpc/x86_64/glibc-2.17/broadwell/gaussian/g16_a.03/pgi-16.5/g16/l1.exe "/gpfs/gpfs1/scratch/c7441284/ForceFieldModel/FittingData/Gau-3408037.inp" -scrdir="/gpfs/gpfs1/scratch/c7441284/ForceFieldModel/FittingData/"
 Entering Link 1 = /usr/site/hpc/x86_64/glibc-2.17/broadwell/gaussian/g16_a.03/pgi-16.5/g16/l1.exe PID=   3408038.
  
 Copyright (c) 1988,1990,1992,1993,1995,1998,2003,2009,2016,
            Gaussian, Inc.  All Rights Reserved.
  
 This is part of the Gaussian(R) 16 program.  It is based on
 the Gaussian(R) 09 system (copyright 2009, Gaussian, Inc.),
 the Gaussian(R) 03 system (copyright 2003, Gaussian, Inc.),
 the Gaussian(R) 98 system (copyright 1998, Gaussian, Inc.),
 the Gaussian(R) 94 system (copyright 1995, Gaussian, Inc.),
 the Gaussian 92(TM) system (copyright 1992, Gaussian, Inc.),
 the Gaussian 90(TM) system (copyright 1990, Gaussian, Inc.),
 the Gaussian 88(TM) system (copyright 1988, Gaussian, Inc.),
 the Gaussian 86(TM) system (copyright 1986, Carnegie Mellon
 University), and the Gaussian 82(TM) system (copyright 1983,
 Carnegie Mellon University). Gaussian is a federally registered
 trademark of Gaussian, Inc.
  
 This software contains proprietary and confidential information,
 including trade secrets, belonging to Gaussian, Inc.
  
 This software is provided under written license and may be
 used, copied, transmitted, or stored only in accord with that
 written license.
  
 The following legend is applicable only to US Government
 contracts under FAR:
  
                    RESTRICTED RIGHTS LEGEND
  
 Use, reproduction and disclosure by the US Government is
 subject to restrictions as set forth in subparagraphs (a)
 and (c) of the Commercial Computer Software - Restricted
 Rights clause in FAR 52.227-19.
  
 Gaussian, Inc.
 340 Quinnipiac St., Bldg. 40, Wallingford CT 06492
  
  
 ---------------------------------------------------------------
 Warning -- This program may not be used in any manner that
 competes with the business of Gaussian, Inc. or will provide
 assistance to any competitor of Gaussian, Inc.  The licensee
 of this program is prohibited from giving any competitor of
 Gaussian, Inc. access to this program.  By using this program,
 the user acknowledges that Gaussian, Inc. is engaged in the
 business of creating and licensing software in the field of
 computational chemistry and represents and warrants to the
 licensee that it is not a competitor of Gaussian, Inc. and that
 it will not use this program in any manner prohibited above.
 ---------------------------------------------------------------
  

 Cite this work as:
 Gaussian 16, Revision A.03,
 M. J. Frisch, G. W. Trucks, H. B. Schlegel, G. E. Scuseria, 
 M. A. Robb, J. R. Cheeseman, G. Scalmani, V. Barone, 
 G. A. Petersson, H. Nakatsuji, X. Li, M. Caricato, A. V. Marenich, 
 J. Bloino, B. G. Janesko, R. Gomperts, B. Mennucci, H. P. Hratchian, 
 J. V. Ortiz, A. F. Izmaylov, J. L. Sonnenberg, D. Williams-Young, 
 F. Ding, F. Lipparini, F. Egidi, J. Goings, B. Peng, A. Petrone, 
 T. Henderson, D. Ranasinghe, V. G. Zakrzewski, J. Gao, N. Rega, 
 G. Zheng, W. Liang, M. Hada, M. Ehara, K. Toyota, R. Fukuda, 
 J. Hasegawa, M. Ishida, T. Nakajima, Y. Honda, O. Kitao, H. Nakai, 
 T. Vreven, K. Throssell, J. A. Montgomery, Jr., J. E. Peralta, 
 F. Ogliaro, M. J. Bearpark, J. J. Heyd, E. N. Brothers, K. N. Kudin, 
 V. N. Staroverov, T. A. Keith, R. Kobayashi, J. Normand, 
 K. Raghavachari, A. P. Rendell, J. C. Burant, S. S. Iyengar, 
 J. Tomasi, M. Cossi, J. M. Millam, M. Klene, C. Adamo, R. Cammi, 
 J. W. Ochterski, R. L. Martin, K. Morokuma, O. Farkas, 
 J. B. Foresman, and D. J. Fox, Gaussian, Inc., Wallingford CT, 2016.
 
 ******************************************
 Gaussian 16:  ES64L-G16RevA.03 25-Dec-2016
                26-Aug-2022 
 ******************************************
 %NProcShared=4
 Will use up to    4 processors via shared memory.
 %Mem=4GB
 %Chk=H2O_H2O_68.chk
 ------------------
 #p CCSD(T)/cc-pVTZ
 ------------------
 1/38=1,172=1/1;
 2/12=2,17=6,18=5,40=1/2;
 3/5=16,6=1,11=9,25=1,30=1/1,2,3;
 4//1;
 5/5=2,38=5/2;
 8/6=4,9=120000,10=1/1,4;
 9/5=7,14=2/13;
 6/7=2,8=2,9=2,10=2/1;
 99/5=1,9=1/99;
 Leave Link    1 at Fri Aug 26 12:25:52 2022, MaxMem=   536870912 cpu:               0.6 elap:               0.2
 (Enter /usr/site/hpc/x86_64/glibc-2.17/broadwell/gaussian/g16_a.03/pgi-16.5/g16/l101.exe)
 ----------
 H2O_H2O_68
 ----------
 Symbolic Z-matrix:
 Charge =  0 Multiplicity = 1
 O                     0.       -0.00983   0. 
 H                    -0.79957  -0.58097   0. 
 H                     0.79957  -0.58097   0. 
 O                    -0.00909   1.64448   0. 
 H                    -0.23076   2.60175   0. 
 H                    -0.84273   1.12433   0. 
 
 ITRead=  0  0  0  0  0  0
 MicOpt= -1 -1 -1 -1 -1 -1
 NAtoms=      6 NQM=        6 NQMF=       0 NMMI=      0 NMMIF=      0
                NMic=       0 NMicF=      0.
                    Isotopes and Nuclear Properties:
 (Nuclear quadrupole moments (NQMom) in fm**2, nuclear magnetic moments (NMagM)
  in nuclear magnetons)

  Atom         1           2           3           4           5           6
 IAtWgt=          16           1           1          16           1           1
 AtmWgt=  15.9949146   1.0078250   1.0078250  15.9949146   1.0078250   1.0078250
 NucSpn=           0           1           1           0           1           1
 AtZEff=  -0.0000000  -0.0000000  -0.0000000  -0.0000000  -0.0000000  -0.0000000
 NQMom=    0.0000000   0.0000000   0.0000000   0.0000000   0.0000000   0.0000000
 NMagM=    0.0000000   2.7928460   2.7928460   0.0000000   2.7928460   2.7928460
 AtZNuc=   8.0000000   1.0000000   1.0000000   8.0000000   1.0000000   1.0000000
 Leave Link  101 at Fri Aug 26 12:25:52 2022, MaxMem=   536870912 cpu:               0.4 elap:               0.1
 (Enter /usr/site/hpc/x86_64/glibc-2.17/broadwell/gaussian/g16_a.03/pgi-16.5/g16/l202.exe)
                          Input orientation:                          
 ---------------------------------------------------------------------
 Center     Atomic      Atomic             Coordinates (Angstroms)
 Number     Number       Type             X           Y           Z
 ---------------------------------------------------------------------
      1          8           0        0.000000   -0.009833    0.000000
      2          1           0       -0.799571   -0.580965    0.000000
      3          1           0        0.799571   -0.580965    0.000000
      4          8           0       -0.009085    1.644478    0.000000
      5          1           0       -0.230759    2.601749    0.000000
      6          1           0       -0.842725    1.124333    0.000000
 ---------------------------------------------------------------------
                    Distance matrix (angstroms):
                    1          2          3          4          5
     1  O    0.000000
     2  H    0.982601   0.000000
     3  H    0.982601   1.599142   0.000000
     4  O    1.654336   2.361666   2.367809   0.000000
     5  H    2.621757   3.233143   3.345332   0.982602   0.000000
     6  H    1.412982   1.705844   2.367526   0.982602   1.599144
                    6
     6  H    0.000000
 Stoichiometry    H4O2
 Framework group  CS[SG(H4O2)]
 Deg. of freedom     9
 Full point group                 CS      NOp   2
 Largest Abelian subgroup         CS      NOp   2
 Largest concise Abelian subgroup C1      NOp   1
                         Standard orientation:                         
 ---------------------------------------------------------------------
 Center     Atomic      Atomic             Coordinates (Angstroms)
 Number     Number       Type             X           Y           Z
 ---------------------------------------------------------------------
      1          8           0        0.052959   -0.792201    0.000000
      2          1           0       -0.749737   -1.358934    0.000000
      3          1           0        0.849381   -1.367716    0.000000
      4          8           0        0.052959    0.862135    0.000000
      5          1           0       -0.163455    1.820608    0.000000
      6          1           0       -0.783525    0.346575    0.000000
 ---------------------------------------------------------------------
 Rotational constants (GHZ):         253.6081981          17.3414229          16.2315304
 Leave Link  202 at Fri Aug 26 12:25:52 2022, MaxMem=   536870912 cpu:               0.1 elap:               0.0
 (Enter /usr/site/hpc/x86_64/glibc-2.17/broadwell/gaussian/g16_a.03/pgi-16.5/g16/l301.exe)
 Standard basis: CC-pVTZ (5D, 7F)
 Ernie: Thresh=  0.10000D-02 Tol=  0.10000D-05 Strict=F.
 Ernie:  6 primitive shells out of 84 were deleted.
 There are    92 symmetry adapted cartesian basis functions of A'  symmetry.
 There are    38 symmetry adapted cartesian basis functions of A"  symmetry.
 There are    80 symmetry adapted basis functions of A'  symmetry.
 There are    36 symmetry adapted basis functions of A"  symmetry.
   116 basis functions,   172 primitive gaussians,   130 cartesian basis functions
    10 alpha electrons       10 beta electrons
       nuclear repulsion energy        47.4140537883 Hartrees.
 IExCor=    0 DFT=F Ex=HF Corr=None ExCW=0 ScaHFX=  1.000000
 ScaDFX=  1.000000  1.000000  1.000000  1.000000 ScalE2=  1.000000  1.000000
 IRadAn=      5 IRanWt=     -1 IRanGd=            0 ICorTp=0 IEmpDi=  4
 NAtoms=    6 NActive=    6 NUniq=    6 SFac= 1.00D+00 NAtFMM=   60 NAOKFM=F Big=F
 Integral buffers will be    131072 words long.
 Raffenetti 1 integral format.
 Two-electron integral symmetry is turned on.
 Leave Link  301 at Fri Aug 26 12:25:53 2022, MaxMem=   536870912 cpu:               0.2 elap:               0.1
 (Enter /usr/site/hpc/x86_64/glibc-2.17/broadwell/gaussian/g16_a.03/pgi-16.5/g16/l302.exe)
 NPDir=0 NMtPBC=     1 NCelOv=     1 NCel=       1 NClECP=     1 NCelD=      1
         NCelK=      1 NCelE2=     1 NClLst=     1 CellRange=     0.0.
 One-electron integrals computed using PRISM.
 One-electron integral symmetry used in STVInt
 NBasis=   116 RedAO= T EigKep=  1.81D-03  NBF=    80    36
 NBsUse=   116 1.00D-06 EigRej= -1.00D+00 NBFU=    80    36
 Leave Link  302 at Fri Aug 26 12:25:53 2022, MaxMem=   536870912 cpu:               0.4 elap:               0.1
 (Enter /usr/site/hpc/x86_64/glibc-2.17/broadwell/gaussian/g16_a.03/pgi-16.5/g16/l303.exe)
 DipDrv:  MaxL=1.
 Leave Link  303 at Fri Aug 26 12:25:53 2022, MaxMem=   536870912 cpu:               0.1 elap:               0.0
 (Enter /usr/site/hpc/x86_64/glibc-2.17/broadwell/gaussian/g16_a.03/pgi-16.5/g16/l401.exe)
 ExpMin= 1.03D-01 ExpMax= 1.53D+04 ExpMxC= 5.22D+02 IAcc=3 IRadAn=         5 AccDes= 0.00D+00
 Harris functional with IExCor=  205 and IRadAn=       5 diagonalized for initial guess.
 HarFok:  IExCor=  205 AccDes= 0.00D+00 IRadAn=         5 IDoV= 1 UseB2=F ITyADJ=14
 ICtDFT=  3500011 ScaDFX=  1.000000  1.000000  1.000000  1.000000
 FoFCou: FMM=F IPFlag=           0 FMFlag=      100000 FMFlg1=           0
         NFxFlg=           0 DoJE=T BraDBF=F KetDBF=T FulRan=T
         wScrn=  0.000000 ICntrl=       500 IOpCl=  0 I1Cent=   200000004 NGrid=           0
         NMat0=    1 NMatS0=      1 NMatT0=    0 NMatD0=    1 NMtDS0=    0 NMtDT0=    0
 Petite list used in FoFCou.
 Harris En= -152.170684126243    
 JPrj=0 DoOrth=F DoCkMO=F.
 Initial guess orbital symmetries:
       Occupied  (A') (A') (A') (A') (A') (A') (A') (A") (A") (A')
       Virtual   (A') (A') (A') (A') (A') (A') (A') (A') (A") (A')
                 (A") (A") (A') (A') (A") (A') (A") (A') (A') (A')
                 (A") (A') (A') (A') (A') (A') (A') (A") (A') (A")
                 (A") (A') (A') (A') (A') (A") (A') (A') (A') (A')
                 (A') (A') (A") (A") (A") (A') (A") (A') (A') (A')
                 (A") (A") (A') (A') (A") (A') (A") (A') (A") (A")
                 (A') (A') (A") (A') (A') (A") (A') (A") (A") (A')
                 (A') (A') (A') (A') (A') (A') (A') (A') (A') (A')
                 (A") (A") (A') (A') (A") (A") (A") (A") (A") (A')
                 (A') (A') (A") (A") (A") (A') (A') (A') (A') (A')
                 (A') (A') (A') (A') (A') (A')
 The electronic state of the initial guess is 1-A'.
 Leave Link  401 at Fri Aug 26 12:25:53 2022, MaxMem=   536870912 cpu:               1.0 elap:               0.3
 (Enter /usr/site/hpc/x86_64/glibc-2.17/broadwell/gaussian/g16_a.03/pgi-16.5/g16/l502.exe)
 Keep R1 ints in memory in symmetry-blocked form, NReq=34823469.
 FoFCou: FMM=F IPFlag=           0 FMFlag=           0 FMFlg1=           0
         NFxFlg=           0 DoJE=F BraDBF=F KetDBF=F FulRan=T
         wScrn=  0.000000 ICntrl=       600 IOpCl=  0 I1Cent=           0 NGrid=           0
         NMat0=    1 NMatS0=   6786 NMatT0=    0 NMatD0=    1 NMtDS0=    0 NMtDT0=    0
 Petite list used in FoFCou.
 Closed shell SCF:
 Using DIIS extrapolation, IDIIS=  1040.
 NGot=   536870912 LenX=   525040661 LenY=   525023320
 Requested convergence on RMS density matrix=1.00D-08 within 128 cycles.
 Requested convergence on MAX density matrix=1.00D-06.
 Requested convergence on             energy=1.00D-06.
 No special actions if energy rises.

 Cycle   1  Pass 1  IDiag  1:
 E= -151.710656640178    
 DIIS: error= 6.10D-02 at cycle   1 NSaved=   1.
 NSaved= 1 IEnMin= 1 EnMin= -151.710656640178     IErMin= 1 ErrMin= 6.10D-02
 ErrMax= 6.10D-02  0.00D+00 EMaxC= 1.00D-01 BMatC= 4.52D-01 BMatP= 4.52D-01
 IDIUse=3 WtCom= 3.90D-01 WtEn= 6.10D-01
 Coeff-Com:  0.100D+01
 Coeff-En:   0.100D+01
 Coeff:      0.100D+01
 Gap=     0.388 Goal=   None    Shift=    0.000
 GapD=    0.388 DampG=1.000 DampE=0.500 DampFc=0.5000 IDamp=-1.
 Damping current iteration by 5.00D-01
 RMSDP=5.87D-03 MaxDP=2.17D-01              OVMax= 1.91D-01

 Cycle   2  Pass 1  IDiag  1:
 E= -151.823420069115     Delta-E=       -0.112763428937 Rises=F Damp=T
 DIIS: error= 1.85D-02 at cycle   2 NSaved=   2.
 NSaved= 2 IEnMin= 2 EnMin= -151.823420069115     IErMin= 2 ErrMin= 1.85D-02
 ErrMax= 1.85D-02  0.00D+00 EMaxC= 1.00D-01 BMatC= 5.61D-02 BMatP= 4.52D-01
 IDIUse=3 WtCom= 8.15D-01 WtEn= 1.85D-01
 Coeff-Com: -0.270D+00 0.127D+01
 Coeff-En:   0.000D+00 0.100D+01
 Coeff:     -0.220D+00 0.122D+01
 Gap=     0.539 Goal=   None    Shift=    0.000
 RMSDP=9.22D-04 MaxDP=2.82D-02 DE=-1.13D-01 OVMax= 9.80D-02

 Cycle   3  Pass 1  IDiag  1:
 E= -151.924209143457     Delta-E=       -0.100789074342 Rises=F Damp=F
 DIIS: error= 4.35D-03 at cycle   3 NSaved=   3.
 NSaved= 3 IEnMin= 3 EnMin= -151.924209143457     IErMin= 3 ErrMin= 4.35D-03
 ErrMax= 4.35D-03  0.00D+00 EMaxC= 1.00D-01 BMatC= 1.50D-03 BMatP= 5.61D-02
 IDIUse=3 WtCom= 9.57D-01 WtEn= 4.35D-02
 Coeff-Com: -0.685D-01 0.721D-01 0.996D+00
 Coeff-En:   0.000D+00 0.000D+00 0.100D+01
 Coeff:     -0.655D-01 0.690D-01 0.996D+00
 Gap=     0.533 Goal=   None    Shift=    0.000
 RMSDP=1.86D-04 MaxDP=4.99D-03 DE=-1.01D-01 OVMax= 9.89D-03

 Cycle   4  Pass 1  IDiag  1:
 E= -151.925454935882     Delta-E=       -0.001245792425 Rises=F Damp=F
 DIIS: error= 7.78D-04 at cycle   4 NSaved=   4.
 NSaved= 4 IEnMin= 4 EnMin= -151.925454935882     IErMin= 4 ErrMin= 7.78D-04
 ErrMax= 7.78D-04  0.00D+00 EMaxC= 1.00D-01 BMatC= 3.97D-05 BMatP= 1.50D-03
 IDIUse=3 WtCom= 9.92D-01 WtEn= 7.78D-03
 Coeff-Com:  0.203D-01-0.323D-01-0.196D+00 0.121D+01
 Coeff-En:   0.000D+00 0.000D+00 0.000D+00 0.100D+01
 Coeff:      0.201D-01-0.321D-01-0.195D+00 0.121D+01
 Gap=     0.535 Goal=   None    Shift=    0.000
 RMSDP=1.07D-04 MaxDP=3.84D-03 DE=-1.25D-03 OVMax= 3.46D-03

 Cycle   5  Pass 1  IDiag  1:
 E= -151.925530628974     Delta-E=       -0.000075693092 Rises=F Damp=F
 DIIS: error= 2.24D-04 at cycle   5 NSaved=   5.
 NSaved= 5 IEnMin= 5 EnMin= -151.925530628974     IErMin= 5 ErrMin= 2.24D-04
 ErrMax= 2.24D-04  0.00D+00 EMaxC= 1.00D-01 BMatC= 4.37D-06 BMatP= 3.97D-05
 IDIUse=3 WtCom= 9.98D-01 WtEn= 2.24D-03
 Coeff-Com:  0.837D-02-0.107D-01-0.103D+00 0.112D+00 0.994D+00
 Coeff-En:   0.000D+00 0.000D+00 0.000D+00 0.000D+00 0.100D+01
 Coeff:      0.836D-02-0.106D-01-0.103D+00 0.112D+00 0.994D+00
 Gap=     0.535 Goal=   None    Shift=    0.000
 RMSDP=3.24D-05 MaxDP=1.08D-03 DE=-7.57D-05 OVMax= 1.43D-03

 Cycle   6  Pass 1  IDiag  1:
 E= -151.925538698940     Delta-E=       -0.000008069965 Rises=F Damp=F
 DIIS: error= 8.82D-05 at cycle   6 NSaved=   6.
 NSaved= 6 IEnMin= 6 EnMin= -151.925538698940     IErMin= 6 ErrMin= 8.82D-05
 ErrMax= 8.82D-05  0.00D+00 EMaxC= 1.00D-01 BMatC= 5.47D-07 BMatP= 4.37D-06
 IDIUse=1 WtCom= 1.00D+00 WtEn= 0.00D+00
 Coeff-Com:  0.325D-03-0.248D-04-0.493D-02-0.768D-01 0.203D+00 0.878D+00
 Coeff:      0.325D-03-0.248D-04-0.493D-02-0.768D-01 0.203D+00 0.878D+00
 Gap=     0.535 Goal=   None    Shift=    0.000
 RMSDP=1.12D-05 MaxDP=3.42D-04 DE=-8.07D-06 OVMax= 5.30D-04

 Cycle   7  Pass 1  IDiag  1:
 E= -151.925539608184     Delta-E=       -0.000000909245 Rises=F Damp=F
 DIIS: error= 2.79D-05 at cycle   7 NSaved=   7.
 NSaved= 7 IEnMin= 7 EnMin= -151.925539608184     IErMin= 7 ErrMin= 2.79D-05
 ErrMax= 2.79D-05  0.00D+00 EMaxC= 1.00D-01 BMatC= 5.82D-08 BMatP= 5.47D-07
 IDIUse=1 WtCom= 1.00D+00 WtEn= 0.00D+00
 Coeff-Com: -0.128D-02 0.152D-02 0.180D-01-0.229D-01-0.143D+00-0.307D-01
 Coeff-Com:  0.118D+01
 Coeff:     -0.128D-02 0.152D-02 0.180D-01-0.229D-01-0.143D+00-0.307D-01
 Coeff:      0.118D+01
 Gap=     0.535 Goal=   None    Shift=    0.000
 RMSDP=7.61D-06 MaxDP=3.35D-04 DE=-9.09D-07 OVMax= 3.41D-04

 Cycle   8  Pass 1  IDiag  1:
 E= -151.925539778910     Delta-E=       -0.000000170726 Rises=F Damp=F
 DIIS: error= 6.72D-06 at cycle   8 NSaved=   8.
 NSaved= 8 IEnMin= 8 EnMin= -151.925539778910     IErMin= 8 ErrMin= 6.72D-06
 ErrMax= 6.72D-06  0.00D+00 EMaxC= 1.00D-01 BMatC= 3.38D-09 BMatP= 5.82D-08
 IDIUse=1 WtCom= 1.00D+00 WtEn= 0.00D+00
 Coeff-Com:  0.346D-03-0.464D-03-0.446D-02 0.643D-02 0.389D-01-0.386D-01
 Coeff-Com: -0.363D+00 0.136D+01
 Coeff:      0.346D-03-0.464D-03-0.446D-02 0.643D-02 0.389D-01-0.386D-01
 Coeff:     -0.363D+00 0.136D+01
 Gap=     0.535 Goal=   None    Shift=    0.000
 RMSDP=1.99D-06 MaxDP=7.86D-05 DE=-1.71D-07 OVMax= 1.04D-04

 Cycle   9  Pass 1  IDiag  1:
 E= -151.925539791408     Delta-E=       -0.000000012498 Rises=F Damp=F
 DIIS: error= 1.79D-06 at cycle   9 NSaved=   9.
 NSaved= 9 IEnMin= 9 EnMin= -151.925539791408     IErMin= 9 ErrMin= 1.79D-06
 ErrMax= 1.79D-06  0.00D+00 EMaxC= 1.00D-01 BMatC= 2.28D-10 BMatP= 3.38D-09
 IDIUse=1 WtCom= 1.00D+00 WtEn= 0.00D+00
 Coeff-Com:  0.119D-05 0.505D-05 0.152D-05-0.379D-04 0.131D-03 0.786D-02
 Coeff-Com:  0.184D-01-0.331D+00 0.130D+01
 Coeff:      0.119D-05 0.505D-05 0.152D-05-0.379D-04 0.131D-03 0.786D-02
 Coeff:      0.184D-01-0.331D+00 0.130D+01
 Gap=     0.535 Goal=   None    Shift=    0.000
 RMSDP=3.82D-07 MaxDP=1.11D-05 DE=-1.25D-08 OVMax= 2.29D-05

 Cycle  10  Pass 1  IDiag  1:
 E= -151.925539792233     Delta-E=       -0.000000000825 Rises=F Damp=F
 DIIS: error= 4.14D-07 at cycle  10 NSaved=  10.
 NSaved=10 IEnMin=10 EnMin= -151.925539792233     IErMin=10 ErrMin= 4.14D-07
 ErrMax= 4.14D-07  0.00D+00 EMaxC= 1.00D-01 BMatC= 1.59D-11 BMatP= 2.28D-10
 IDIUse=1 WtCom= 1.00D+00 WtEn= 0.00D+00
 Coeff-Com: -0.303D-04 0.406D-04 0.385D-03-0.388D-03-0.382D-02 0.130D-02
 Coeff-Com:  0.356D-01-0.104D+00-0.115D+00 0.119D+01
 Coeff:     -0.303D-04 0.406D-04 0.385D-03-0.388D-03-0.382D-02 0.130D-02
 Coeff:      0.356D-01-0.104D+00-0.115D+00 0.119D+01
 Gap=     0.535 Goal=   None    Shift=    0.000
 RMSDP=8.89D-08 MaxDP=2.20D-06 DE=-8.25D-10 OVMax= 5.35D-06

 Cycle  11  Pass 1  IDiag  1:
 E= -151.925539792279     Delta-E=       -0.000000000046 Rises=F Damp=F
 DIIS: error= 9.71D-08 at cycle  11 NSaved=  11.
 NSaved=11 IEnMin=11 EnMin= -151.925539792279     IErMin=11 ErrMin= 9.71D-08
 ErrMax= 9.71D-08  0.00D+00 EMaxC= 1.00D-01 BMatC= 5.51D-13 BMatP= 1.59D-11
 IDIUse=1 WtCom= 1.00D+00 WtEn= 0.00D+00
 Coeff-Com:  0.348D-05-0.472D-05-0.530D-04 0.553D-04 0.404D-03-0.870D-03
 Coeff-Com: -0.428D-02 0.305D-01-0.426D-01-0.182D+00 0.120D+01
 Coeff:      0.348D-05-0.472D-05-0.530D-04 0.553D-04 0.404D-03-0.870D-03
 Coeff:     -0.428D-02 0.305D-01-0.426D-01-0.182D+00 0.120D+01
 Gap=     0.535 Goal=   None    Shift=    0.000
 RMSDP=1.34D-08 MaxDP=2.82D-07 DE=-4.60D-11 OVMax= 4.96D-07

 Cycle  12  Pass 1  IDiag  1:
 E= -151.925539792280     Delta-E=       -0.000000000001 Rises=F Damp=F
 DIIS: error= 1.44D-08 at cycle  12 NSaved=  12.
 NSaved=12 IEnMin=12 EnMin= -151.925539792280     IErMin=12 ErrMin= 1.44D-08
 ErrMax= 1.44D-08  0.00D+00 EMaxC= 1.00D-01 BMatC= 1.50D-14 BMatP= 5.51D-13
 IDIUse=1 WtCom= 1.00D+00 WtEn= 0.00D+00
 Coeff-Com:  0.115D-06-0.151D-06 0.103D-05 0.234D-05 0.176D-04 0.129D-03
 Coeff-Com:  0.238D-04-0.426D-02 0.138D-01 0.776D-02-0.261D+00 0.124D+01
 Coeff:      0.115D-06-0.151D-06 0.103D-05 0.234D-05 0.176D-04 0.129D-03
 Coeff:      0.238D-04-0.426D-02 0.138D-01 0.776D-02-0.261D+00 0.124D+01
 Gap=     0.535 Goal=   None    Shift=    0.000
 RMSDP=3.53D-09 MaxDP=1.18D-07 DE=-1.02D-12 OVMax= 9.86D-08

 SCF Done:  E(RHF) =  -151.925539792     A.U. after   12 cycles
            NFock= 12  Conv=0.35D-08     -V/T= 1.9950
 KE= 1.526877750366D+02 PE=-4.571284166515D+02 EE= 1.051010480343D+02
 Leave Link  502 at Fri Aug 26 12:25:55 2022, MaxMem=   536870912 cpu:               5.4 elap:               1.5
 (Enter /usr/site/hpc/x86_64/glibc-2.17/broadwell/gaussian/g16_a.03/pgi-16.5/g16/l801.exe)
 Windowed orbitals will be sorted by symmetry type.
 ExpMin= 1.03D-01 ExpMax= 1.53D+04 ExpMxC= 5.22D+02 IAcc=3 IRadAn=         5 AccDes= 0.00D+00
 HarFok:  IExCor=  205 AccDes= 0.00D+00 IRadAn=         5 IDoV=-2 UseB2=F ITyADJ=14
 ICtDFT= 12500011 ScaDFX=  1.000000  1.000000  1.000000  1.000000
 Largest valence mixing into a core orbital is  1.12D-04
 Largest core mixing into a valence orbital is  2.03D-05
 Range of M.O.s used for correlation:     3   116
 NBasis=   116 NAE=    10 NBE=    10 NFC=     2 NFV=     0
 NROrb=    114 NOA=     8 NOB=     8 NVA=   106 NVB=   106
 Leave Link  801 at Fri Aug 26 12:25:55 2022, MaxMem=   536870912 cpu:               0.4 elap:               0.1
 (Enter /usr/site/hpc/x86_64/glibc-2.17/broadwell/gaussian/g16_a.03/pgi-16.5/g16/l804.exe)
 Closed-shell transformation, MDV=   536870912 ITran=4 ISComp=2.
 Unit  1 TFree=        834515 TCopy=        406137.
 Semi-Direct transformation.
 ModeAB=           2 MOrb=             8 LenV=     536357985
 LASXX=      2873146 LTotXX=     2873146 LenRXX=     2873146
 LTotAB=     2958132 MaxLAS=     7765680 LenRXY=     7765680
 NonZer=     7995504 LenScr=    12058624 LnRSAI=           0
 LnScr1=           0 LExtra=           0 Total=     22697450
 MaxDsk=          -1 SrtSym=           F ITran=            4
 DoSDTr:  NPSUse=  4
 JobTyp=0 Pass  1:  I=   1 to   8.
 (rs|ai) integrals will be sorted in core.
 Complete sort for first half transformation.
 First half transformation complete.
 Complete sort for second half transformation.
 Second half transformation complete.
 Spin components of T(2) and E(2):
     alpha-alpha T2 =       0.1725477912D-01 E2=     -0.6906305980D-01
     alpha-beta  T2 =       0.9690963190D-01 E2=     -0.4120089048D+00
     beta-beta   T2 =       0.1725477912D-01 E2=     -0.6906305980D-01
 ANorm=    0.1063681903D+01
 E2 =    -0.5501350244D+00 EUMP2 =    -0.15247567481670D+03
 Leave Link  804 at Fri Aug 26 12:25:57 2022, MaxMem=   536870912 cpu:               7.2 elap:               1.9
 (Enter /usr/site/hpc/x86_64/glibc-2.17/broadwell/gaussian/g16_a.03/pgi-16.5/g16/l913.exe)
 CIDS:  MDV=   536870912.
 Frozen-core window:  NFC=   2 NFV=   0.
 IFCWin=0 IBDFC=1 NFBD=     0     0 NFCmp=     0     0 NFFFC=     0     0
 Using DD3R+UMP44R for 1st iteration.
 Using DD4RQ for 2nd and later iterations.
 Keep R2 and R3 ints in memory in symmetry-blocked form, NReq=35357546.
 FoFCou: FMM=F IPFlag=           0 FMFlag=           0 FMFlg1=           0
         NFxFlg=           0 DoJE=F BraDBF=F KetDBF=F FulRan=T
         wScrn=  0.000000 ICntrl=       600 IOpCl=  0 I1Cent=           0 NGrid=           0
         NMat0=    1 NMatS0=   6786 NMatT0=    0 NMatD0=    1 NMtDS0=    0 NMtDT0=    0
 Petite list used in FoFCou.
 CIDS: In Core Option IDoMem=           1.
 CCSD(T)
 =======
 Iterations=  50 Convergence= 0.100D-06
 Produce multiple copies of IABC intergrals
 Iteration Nr.   1
 **********************
 DD1Dir will call FoFMem   1 times, MxPair=        72
 NAB=    36 NAA=     0 NBB=     0.
 MP4(R+Q)=  0.89119981D-02
 Maximum subspace dimension=  5
 A-vector RMS=  2.4621743D-03 Max=  1.5820384D-02 conv= 1.00D-05.
 RLE energy=       -0.5432330883
 E3=       -0.19980841D-02        EUMP3=      -0.15247767290D+03
 E4(DQ)=   -0.15204405D-02        UMP4(DQ)=   -0.15247919334D+03
 E4(SDQ)=  -0.55943788D-02        UMP4(SDQ)=  -0.15248326728D+03
 VARIATIONAL ENERGIES WITH THE FIRST-ORDER WAVEFUNCTION:
 DE(Corr)= -0.54314541     E(Corr)=     -152.46868520    
 NORM(A)=   0.10624146D+01
 Iteration Nr.   2
 **********************
 DD1Dir will call FoFMem   1 times, MxPair=        72
 NAB=    36 NAA=     0 NBB=     0.
 A-vector RMS=  3.1425533D-04 Max=  3.2474667D-03 conv= 1.00D-05.
 RLE energy=       -0.5558384573
 DE(Corr)= -0.55506419     E(CORR)=     -152.48060398     Delta=-1.19D-02
 NORM(A)=   0.10668341D+01
 Iteration Nr.   3
 **********************
 DD1Dir will call FoFMem   1 times, MxPair=        72
 NAB=    36 NAA=     0 NBB=     0.
 A-vector RMS=  4.0677220D-04 Max=  3.9604517D-03 conv= 1.00D-05.
 RLE energy=       -0.5564853540
 DE(Corr)= -0.55568399     E(CORR)=     -152.48122378     Delta=-6.20D-04
 NORM(A)=   0.10677241D+01
 Iteration Nr.   4
 **********************
 DD1Dir will call FoFMem   1 times, MxPair=        72
 NAB=    36 NAA=     0 NBB=     0.
 A-vector RMS=  8.1303229D-05 Max=  6.9518913D-04 conv= 1.00D-05.
 RLE energy=       -0.5565618184
 DE(Corr)= -0.55649460     E(CORR)=     -152.48203440     Delta=-8.11D-04
 NORM(A)=   0.10679747D+01
 Iteration Nr.   5
 **********************
 DD1Dir will call FoFMem   1 times, MxPair=        72
 NAB=    36 NAA=     0 NBB=     0.
 A-vector RMS=  5.5340247D-05 Max=  5.3115267D-04 conv= 1.00D-05.
 RLE energy=       -0.5566017349
 DE(Corr)= -0.55658315     E(CORR)=     -152.48212294     Delta=-8.85D-05
 NORM(A)=   0.10680600D+01
 Iteration Nr.   6
 **********************
 DD1Dir will call FoFMem   1 times, MxPair=        72
 NAB=    36 NAA=     0 NBB=     0.
 A-vector RMS=  1.7363997D-05 Max=  1.0725606D-04 conv= 1.00D-05.
 RLE energy=       -0.5565877898
 DE(Corr)= -0.55659258     E(CORR)=     -152.48213237     Delta=-9.43D-06
 NORM(A)=   0.10680753D+01
 Iteration Nr.   7
 **********************
 DD1Dir will call FoFMem   1 times, MxPair=        72
 NAB=    36 NAA=     0 NBB=     0.
 A-vector RMS=  5.9065328D-06 Max=  5.5349082D-05 conv= 1.00D-05.
 RLE energy=       -0.5565872509
 DE(Corr)= -0.55659275     E(CORR)=     -152.48213254     Delta=-1.72D-07
 NORM(A)=   0.10680808D+01
 Iteration Nr.   8
 **********************
 DD1Dir will call FoFMem   1 times, MxPair=        72
 NAB=    36 NAA=     0 NBB=     0.
 A-vector RMS=  2.5409131D-06 Max=  2.6751010D-05 conv= 1.00D-05.
 RLE energy=       -0.5565906998
 DE(Corr)= -0.55659142     E(CORR)=     -152.48213121     Delta= 1.33D-06
 NORM(A)=   0.10680836D+01
 Iteration Nr.   9
 **********************
 DD1Dir will call FoFMem   1 times, MxPair=        72
 NAB=    36 NAA=     0 NBB=     0.
 A-vector RMS=  8.1358835D-07 Max=  9.1493985D-06 conv= 1.00D-05.
 RLE energy=       -0.5565913034
 DE(Corr)= -0.55659141     E(CORR)=     -152.48213120     Delta= 1.24D-08
 NORM(A)=   0.10680843D+01
 CI/CC converged in    9 iterations to DelEn= 1.24D-08 Conv= 1.00D-07 ErrA1= 8.14D-07 Conv= 1.00D-05
 Wavefunction amplitudes converged. E(Corr)=     -152.48213120    
 Largest amplitude= 2.87D-02
 IPart=  4 IA=    7   11.05% done.
 IPart=  4 IA=   13   21.46% done.
 IPart=  3 IA=   19   31.21% done.
 IPart=  4 IA=   25   40.32% done.
 IPart=  1 IA=   32   50.13% done.
 IPart=  3 IA=   40   60.27% done.
 IPart=  2 IA=   49   70.30% done.
 IPart=  3 IA=   60   80.58% done.
 IPart=  1 IA=   74   90.51% done.
 Time for triples=      107.72 seconds.
 T4(CCSD)= -0.19043538D-01
 T5(CCSD)=  0.63832591D-03
 CCSD(T)= -0.15250053641D+03
 Discarding MO integrals.
 Leave Link  913 at Fri Aug 26 12:26:35 2022, MaxMem=   536870912 cpu:             139.0 elap:              38.4
 (Enter /usr/site/hpc/x86_64/glibc-2.17/broadwell/gaussian/g16_a.03/pgi-16.5/g16/l601.exe)
 Copying SCF densities to generalized density rwf, IOpCl= 0 IROHF=0.

 **********************************************************************

            Population analysis using the SCF density.

 **********************************************************************

 Orbital symmetries:
       Occupied  (A') (A') (A') (A') (A') (A') (A") (A') (A") (A')
       Virtual   (A') (A') (A') (A') (A') (A') (A') (A') (A') (A")
                 (A") (A') (A") (A') (A") (A') (A") (A') (A') (A')
                 (A") (A') (A') (A') (A') (A') (A') (A") (A') (A")
                 (A") (A') (A') (A') (A') (A') (A") (A') (A') (A')
                 (A') (A') (A") (A") (A") (A') (A') (A') (A") (A')
                 (A") (A') (A") (A') (A") (A") (A') (A") (A') (A")
                 (A') (A') (A") (A') (A') (A') (A") (A') (A") (A")
                 (A') (A') (A') (A') (A') (A') (A') (A') (A') (A')
                 (A") (A") (A') (A') (A") (A") (A") (A') (A") (A")
                 (A') (A') (A") (A") (A") (A') (A') (A') (A') (A')
                 (A') (A') (A') (A') (A') (A')
 The electronic state is 1-A'.
 Alpha  occ. eigenvalues --  -20.54370 -20.50118  -1.40174  -1.26243  -0.76892
 Alpha  occ. eigenvalues --   -0.71738  -0.54645  -0.54437  -0.43249  -0.40061
 Alpha virt. eigenvalues --    0.13478   0.18838   0.19923   0.24759   0.50867
 Alpha virt. eigenvalues --    0.55401   0.60569   0.67244   0.73212   0.76729
 Alpha virt. eigenvalues --    0.79032   0.81042   0.84006   0.84477   0.88968
 Alpha virt. eigenvalues --    0.93390   1.01779   1.02728   1.08160   1.16264
 Alpha virt. eigenvalues --    1.18768   1.20995   1.32928   1.46090   1.54143
 Alpha virt. eigenvalues --    1.62265   1.64588   1.83178   1.84634   2.02943
 Alpha virt. eigenvalues --    2.11340   2.14625   2.17648   2.25891   2.26504
 Alpha virt. eigenvalues --    2.30045   2.31067   2.54351   2.74629   2.92679
 Alpha virt. eigenvalues --    3.22878   3.29607   3.36223   3.43311   3.50277
 Alpha virt. eigenvalues --    3.53025   3.55827   3.60089   3.62384   3.68634
 Alpha virt. eigenvalues --    3.80708   3.90637   3.91683   3.92770   3.96018
 Alpha virt. eigenvalues --    3.99887   4.04254   4.07108   4.13912   4.16555
 Alpha virt. eigenvalues --    4.26342   4.29595   4.31161   4.34797   4.40862
 Alpha virt. eigenvalues --    4.55068   4.58079   4.70663   4.72458   4.76996
 Alpha virt. eigenvalues --    4.86788   4.93265   4.96163   5.04523   5.11912
 Alpha virt. eigenvalues --    5.26659   5.45108   5.51976   5.68032   5.92177
 Alpha virt. eigenvalues --    5.98291   6.03864   6.49045   6.57416   6.82802
 Alpha virt. eigenvalues --    6.89429   6.94671   7.00901   7.02690   7.03727
 Alpha virt. eigenvalues --    7.14466   7.17264   7.17669   7.22984   7.29889
 Alpha virt. eigenvalues --    7.29895   7.43349   7.58739   7.73537   7.82018
 Alpha virt. eigenvalues --    7.84660   7.97285   8.59185   8.66210  12.97454
 Alpha virt. eigenvalues --   13.97762
          Condensed to atoms (all electrons):
               1          2          3          4          5          6
     1  O    8.333145   0.208835   0.240919  -0.480210   0.047661  -0.043356
     2  H    0.208835   0.607008   0.009902   0.034043  -0.006888  -0.000207
     3  H    0.240919   0.009902   0.521215   0.034896  -0.004920   0.000206
     4  O   -0.480210   0.034043   0.034896   8.266330   0.179917   0.357294
     5  H    0.047661  -0.006888  -0.004920   0.179917   0.710881  -0.032430
     6  H   -0.043356  -0.000207   0.000206   0.357294  -0.032430   0.470098
 Mulliken charges:
               1
     1  O   -0.306994
     2  H    0.147307
     3  H    0.197782
     4  O   -0.392269
     5  H    0.105779
     6  H    0.248396
 Sum of Mulliken charges =  -0.00000
 Mulliken charges with hydrogens summed into heavy atoms:
               1
     1  O    0.038094
     4  O   -0.038094
 Electronic spatial extent (au):  <R**2>=             96.3945
 Charge=             -0.0000 electrons
 Dipole moment (field-independent basis, Debye):
    X=             -1.3679    Y=             -1.6497    Z=              0.0000  Tot=              2.1430
 Quadrupole moment (field-independent basis, Debye-Ang):
   XX=             -9.7166   YY=             -8.8692   ZZ=            -14.5813
   XY=             -1.0551   XZ=              0.0000   YZ=              0.0000
 Traceless Quadrupole moment (field-independent basis, Debye-Ang):
   XX=              1.3391   YY=              2.1865   ZZ=             -3.5256
   XY=             -1.0551   XZ=              0.0000   YZ=              0.0000
 Octapole moment (field-independent basis, Debye-Ang**2):
  XXX=             -0.6428  YYY=              0.0499  ZZZ=              0.0000  XYY=             -0.0718
  XXY=             -3.5847  XXZ=              0.0000  XZZ=             -0.1095  YZZ=             -0.3082
  YYZ=              0.0000  XYZ=              0.0000
 Hexadecapole moment (field-independent basis, Debye-Ang**3):
 XXXX=            -12.3920 YYYY=            -63.7379 ZZZZ=            -11.2896 XXXY=              0.1996
 XXXZ=              0.0000 YYYX=             -0.7290 YYYZ=              0.0000 ZZZX=              0.0000
 ZZZY=              0.0000 XXYY=            -11.7592 XXZZ=             -4.5059 YYZZ=            -17.0547
 XXYZ=              0.0000 YYXZ=              0.0000 ZZXY=              0.3816
 N-N= 4.741405378834D+01 E-N=-4.571284166811D+02  KE= 1.526877750366D+02
 Symmetry A'   KE= 1.435957307611D+02
 Symmetry A"   KE= 9.092044275471D+00
 Leave Link  601 at Fri Aug 26 12:26:35 2022, MaxMem=   536870912 cpu:               0.3 elap:               0.1
 (Enter /usr/site/hpc/x86_64/glibc-2.17/broadwell/gaussian/g16_a.03/pgi-16.5/g16/l9999.exe)
 1\1\GINC-N050\SP\RCCSD(T)-FC\CC-pVTZ\H4O2\C7441284\26-Aug-2022\0\\#p C
 CSD(T)/cc-pVTZ\\H2O_H2O_68\\0,1\O,0,0.,-0.009833,0.\H,0,-0.799571,-0.5
 80965,0.\H,0,0.799571,-0.580965,0.\O,0,-0.009085,1.644478,0.\H,0,-0.23
 0759,2.601749,0.\H,0,-0.842725,1.124333,0.\\Version=ES64L-G16RevA.03\S
 tate=1-A'\HF=-151.9255398\MP2=-152.4756748\MP3=-152.4776729\MP4D=-152.
 4881053\MP4DQ=-152.4791933\MP4SDQ=-152.4832673\CCSD=-152.4821312\CCSD(
 T)=-152.5005364\RMSD=3.532e-09\PG=CS [SG(H4O2)]\\@


 LAWS OF PROGRAMMING DEFINITION:  A WORKING PROGRAM
                                  IS ONE THAT HAS
                                  ONLY UNOBSERVED
                                  BUGS.
 Job cpu time:       0 days  0 hours  2 minutes 35.5 seconds.
 Elapsed time:       0 days  0 hours  0 minutes 43.0 seconds.
 File lengths (MBytes):  RWF=    572 Int=      0 D2E=      0 Chk=      8 Scr=      8
 Normal termination of Gaussian 16 at Fri Aug 26 12:26:35 2022.
