 Entering Gaussian System, Link 0=g16
 Input=H2O_H2O_702.com
 Output=H2O_H2O_702.log
 Initial command:
 /usr/site/hpc/x86_64/glibc-2.17/broadwell/gaussian/g16_a.03/pgi-16.5/g16/l1.exe "/gpfs/gpfs1/scratch/c7441284/ForceFieldModel/FittingData/Gau-3727243.inp" -scrdir="/gpfs/gpfs1/scratch/c7441284/ForceFieldModel/FittingData/"
 Entering Link 1 = /usr/site/hpc/x86_64/glibc-2.17/broadwell/gaussian/g16_a.03/pgi-16.5/g16/l1.exe PID=   3727251.
  
 Copyright (c) 1988,1990,1992,1993,1995,1998,2003,2009,2016,
            Gaussian, Inc.  All Rights Reserved.
  
 This is part of the Gaussian(R) 16 program.  It is based on
 the Gaussian(R) 09 system (copyright 2009, Gaussian, Inc.),
 the Gaussian(R) 03 system (copyright 2003, Gaussian, Inc.),
 the Gaussian(R) 98 system (copyright 1998, Gaussian, Inc.),
 the Gaussian(R) 94 system (copyright 1995, Gaussian, Inc.),
 the Gaussian 92(TM) system (copyright 1992, Gaussian, Inc.),
 the Gaussian 90(TM) system (copyright 1990, Gaussian, Inc.),
 the Gaussian 88(TM) system (copyright 1988, Gaussian, Inc.),
 the Gaussian 86(TM) system (copyright 1986, Carnegie Mellon
 University), and the Gaussian 82(TM) system (copyright 1983,
 Carnegie Mellon University). Gaussian is a federally registered
 trademark of Gaussian, Inc.
  
 This software contains proprietary and confidential information,
 including trade secrets, belonging to Gaussian, Inc.
  
 This software is provided under written license and may be
 used, copied, transmitted, or stored only in accord with that
 written license.
  
 The following legend is applicable only to US Government
 contracts under FAR:
  
                    RESTRICTED RIGHTS LEGEND
  
 Use, reproduction and disclosure by the US Government is
 subject to restrictions as set forth in subparagraphs (a)
 and (c) of the Commercial Computer Software - Restricted
 Rights clause in FAR 52.227-19.
  
 Gaussian, Inc.
 340 Quinnipiac St., Bldg. 40, Wallingford CT 06492
  
  
 ---------------------------------------------------------------
 Warning -- This program may not be used in any manner that
 competes with the business of Gaussian, Inc. or will provide
 assistance to any competitor of Gaussian, Inc.  The licensee
 of this program is prohibited from giving any competitor of
 Gaussian, Inc. access to this program.  By using this program,
 the user acknowledges that Gaussian, Inc. is engaged in the
 business of creating and licensing software in the field of
 computational chemistry and represents and warrants to the
 licensee that it is not a competitor of Gaussian, Inc. and that
 it will not use this program in any manner prohibited above.
 ---------------------------------------------------------------
  

 Cite this work as:
 Gaussian 16, Revision A.03,
 M. J. Frisch, G. W. Trucks, H. B. Schlegel, G. E. Scuseria, 
 M. A. Robb, J. R. Cheeseman, G. Scalmani, V. Barone, 
 G. A. Petersson, H. Nakatsuji, X. Li, M. Caricato, A. V. Marenich, 
 J. Bloino, B. G. Janesko, R. Gomperts, B. Mennucci, H. P. Hratchian, 
 J. V. Ortiz, A. F. Izmaylov, J. L. Sonnenberg, D. Williams-Young, 
 F. Ding, F. Lipparini, F. Egidi, J. Goings, B. Peng, A. Petrone, 
 T. Henderson, D. Ranasinghe, V. G. Zakrzewski, J. Gao, N. Rega, 
 G. Zheng, W. Liang, M. Hada, M. Ehara, K. Toyota, R. Fukuda, 
 J. Hasegawa, M. Ishida, T. Nakajima, Y. Honda, O. Kitao, H. Nakai, 
 T. Vreven, K. Throssell, J. A. Montgomery, Jr., J. E. Peralta, 
 F. Ogliaro, M. J. Bearpark, J. J. Heyd, E. N. Brothers, K. N. Kudin, 
 V. N. Staroverov, T. A. Keith, R. Kobayashi, J. Normand, 
 K. Raghavachari, A. P. Rendell, J. C. Burant, S. S. Iyengar, 
 J. Tomasi, M. Cossi, J. M. Millam, M. Klene, C. Adamo, R. Cammi, 
 J. W. Ochterski, R. L. Martin, K. Morokuma, O. Farkas, 
 J. B. Foresman, and D. J. Fox, Gaussian, Inc., Wallingford CT, 2016.
 
 ******************************************
 Gaussian 16:  ES64L-G16RevA.03 25-Dec-2016
                26-Aug-2022 
 ******************************************
 %NProcShared=4
 Will use up to    4 processors via shared memory.
 %Mem=4GB
 %Chk=H2O_H2O_702.chk
 ------------------
 #p CCSD(T)/cc-pVTZ
 ------------------
 1/38=1,172=1/1;
 2/12=2,17=6,18=5,40=1/2;
 3/5=16,6=1,11=9,25=1,30=1/1,2,3;
 4//1;
 5/5=2,38=5/2;
 8/6=4,9=120000,10=1/1,4;
 9/5=7,14=2/13;
 6/7=2,8=2,9=2,10=2/1;
 99/5=1,9=1/99;
 Leave Link    1 at Fri Aug 26 19:13:33 2022, MaxMem=   536870912 cpu:               0.3 elap:               0.1
 (Enter /usr/site/hpc/x86_64/glibc-2.17/broadwell/gaussian/g16_a.03/pgi-16.5/g16/l101.exe)
 -----------
 H2O_H2O_702
 -----------
 Symbolic Z-matrix:
 Charge =  0 Multiplicity = 1
 O                     0.       -0.00983   0. 
 H                    -0.79957  -0.58097   0. 
 H                     0.79957  -0.58097   0. 
 O                    -0.00128   2.34185   0. 
 H                     0.7169    3.01246   0. 
 H                    -0.86856   2.80373   0. 
 
 ITRead=  0  0  0  0  0  0
 MicOpt= -1 -1 -1 -1 -1 -1
 NAtoms=      6 NQM=        6 NQMF=       0 NMMI=      0 NMMIF=      0
                NMic=       0 NMicF=      0.
                    Isotopes and Nuclear Properties:
 (Nuclear quadrupole moments (NQMom) in fm**2, nuclear magnetic moments (NMagM)
  in nuclear magnetons)

  Atom         1           2           3           4           5           6
 IAtWgt=          16           1           1          16           1           1
 AtmWgt=  15.9949146   1.0078250   1.0078250  15.9949146   1.0078250   1.0078250
 NucSpn=           0           1           1           0           1           1
 AtZEff=  -0.0000000  -0.0000000  -0.0000000  -0.0000000  -0.0000000  -0.0000000
 NQMom=    0.0000000   0.0000000   0.0000000   0.0000000   0.0000000   0.0000000
 NMagM=    0.0000000   2.7928460   2.7928460   0.0000000   2.7928460   2.7928460
 AtZNuc=   8.0000000   1.0000000   1.0000000   8.0000000   1.0000000   1.0000000
 Leave Link  101 at Fri Aug 26 19:13:33 2022, MaxMem=   536870912 cpu:               0.4 elap:               0.1
 (Enter /usr/site/hpc/x86_64/glibc-2.17/broadwell/gaussian/g16_a.03/pgi-16.5/g16/l202.exe)
                          Input orientation:                          
 ---------------------------------------------------------------------
 Center     Atomic      Atomic             Coordinates (Angstroms)
 Number     Number       Type             X           Y           Z
 ---------------------------------------------------------------------
      1          8           0        0.000000   -0.009833    0.000000
      2          1           0       -0.799571   -0.580965    0.000000
      3          1           0        0.799571   -0.580965    0.000000
      4          8           0       -0.001283    2.341852    0.000000
      5          1           0        0.716900    3.012463    0.000000
      6          1           0       -0.868562    2.803733    0.000000
 ---------------------------------------------------------------------
                    Distance matrix (angstroms):
                    1          2          3          4          5
     1  O    0.000000
     2  H    0.982601   0.000000
     3  H    0.982601   1.599142   0.000000
     4  O    2.351685   3.029872   3.030549   0.000000
     5  H    3.106158   3.900309   3.594379   0.982602   0.000000
     6  H    2.944580   3.385401   3.773440   0.982602   1.599143
                    6
     6  H    0.000000
 Stoichiometry    H4O2
 Framework group  CS[SG(H4O2)]
 Deg. of freedom     9
 Full point group                 CS      NOp   2
 Largest Abelian subgroup         CS      NOp   2
 Largest concise Abelian subgroup C1      NOp   1
                         Standard orientation:                         
 ---------------------------------------------------------------------
 Center     Atomic      Atomic             Coordinates (Angstroms)
 Number     Number       Type             X           Y           Z
 ---------------------------------------------------------------------
      1          8           0        0.007455   -1.175358    0.000000
      2          1           0       -0.792427   -1.746054    0.000000
      3          1           0        0.806714   -1.746926    0.000000
      4          8           0        0.007455    1.176327    0.000000
      5          1           0        0.726004    1.846546    0.000000
      6          1           0       -0.859572    1.638681    0.000000
 ---------------------------------------------------------------------
 Rotational constants (GHZ):         196.9665297           8.9415335           8.5532485
 Leave Link  202 at Fri Aug 26 19:13:33 2022, MaxMem=   536870912 cpu:               0.3 elap:               0.1
 (Enter /usr/site/hpc/x86_64/glibc-2.17/broadwell/gaussian/g16_a.03/pgi-16.5/g16/l301.exe)
 Standard basis: CC-pVTZ (5D, 7F)
 Ernie: Thresh=  0.10000D-02 Tol=  0.10000D-05 Strict=F.
 Ernie:  6 primitive shells out of 84 were deleted.
 There are    92 symmetry adapted cartesian basis functions of A'  symmetry.
 There are    38 symmetry adapted cartesian basis functions of A"  symmetry.
 There are    80 symmetry adapted basis functions of A'  symmetry.
 There are    36 symmetry adapted basis functions of A"  symmetry.
   116 basis functions,   172 primitive gaussians,   130 cartesian basis functions
    10 alpha electrons       10 beta electrons
       nuclear repulsion energy        38.4708368168 Hartrees.
 IExCor=    0 DFT=F Ex=HF Corr=None ExCW=0 ScaHFX=  1.000000
 ScaDFX=  1.000000  1.000000  1.000000  1.000000 ScalE2=  1.000000  1.000000
 IRadAn=      5 IRanWt=     -1 IRanGd=            0 ICorTp=0 IEmpDi=  4
 NAtoms=    6 NActive=    6 NUniq=    6 SFac= 1.00D+00 NAtFMM=   60 NAOKFM=F Big=F
 Integral buffers will be    131072 words long.
 Raffenetti 1 integral format.
 Two-electron integral symmetry is turned on.
 Leave Link  301 at Fri Aug 26 19:13:34 2022, MaxMem=   536870912 cpu:               0.3 elap:               0.1
 (Enter /usr/site/hpc/x86_64/glibc-2.17/broadwell/gaussian/g16_a.03/pgi-16.5/g16/l302.exe)
 NPDir=0 NMtPBC=     1 NCelOv=     1 NCel=       1 NClECP=     1 NCelD=      1
         NCelK=      1 NCelE2=     1 NClLst=     1 CellRange=     0.0.
 One-electron integrals computed using PRISM.
 One-electron integral symmetry used in STVInt
 NBasis=   116 RedAO= T EigKep=  2.18D-03  NBF=    80    36
 NBsUse=   116 1.00D-06 EigRej= -1.00D+00 NBFU=    80    36
 Leave Link  302 at Fri Aug 26 19:13:34 2022, MaxMem=   536870912 cpu:               0.5 elap:               0.2
 (Enter /usr/site/hpc/x86_64/glibc-2.17/broadwell/gaussian/g16_a.03/pgi-16.5/g16/l303.exe)
 DipDrv:  MaxL=1.
 Leave Link  303 at Fri Aug 26 19:13:34 2022, MaxMem=   536870912 cpu:               0.1 elap:               0.1
 (Enter /usr/site/hpc/x86_64/glibc-2.17/broadwell/gaussian/g16_a.03/pgi-16.5/g16/l401.exe)
 ExpMin= 1.03D-01 ExpMax= 1.53D+04 ExpMxC= 5.22D+02 IAcc=3 IRadAn=         5 AccDes= 0.00D+00
 Harris functional with IExCor=  205 and IRadAn=       5 diagonalized for initial guess.
 HarFok:  IExCor=  205 AccDes= 0.00D+00 IRadAn=         5 IDoV= 1 UseB2=F ITyADJ=14
 ICtDFT=  3500011 ScaDFX=  1.000000  1.000000  1.000000  1.000000
 FoFCou: FMM=F IPFlag=           0 FMFlag=      100000 FMFlg1=           0
         NFxFlg=           0 DoJE=T BraDBF=F KetDBF=T FulRan=T
         wScrn=  0.000000 ICntrl=       500 IOpCl=  0 I1Cent=   200000004 NGrid=           0
         NMat0=    1 NMatS0=      1 NMatT0=    0 NMatD0=    1 NMtDS0=    0 NMtDT0=    0
 Petite list used in FoFCou.
 Harris En= -152.295751146027    
 JPrj=0 DoOrth=F DoCkMO=F.
 Initial guess orbital symmetries:
       Occupied  (A') (A') (A') (A') (A') (A') (A') (A') (A") (A")
       Virtual   (A') (A') (A') (A') (A') (A') (A') (A') (A") (A')
                 (A') (A') (A") (A') (A") (A") (A') (A") (A') (A')
                 (A") (A') (A') (A') (A') (A') (A') (A') (A") (A")
                 (A") (A") (A') (A') (A') (A') (A') (A') (A') (A')
                 (A') (A') (A") (A") (A') (A") (A") (A') (A") (A")
                 (A') (A') (A') (A') (A') (A") (A") (A') (A') (A")
                 (A') (A') (A") (A') (A") (A') (A") (A') (A') (A")
                 (A') (A") (A') (A') (A') (A') (A') (A') (A') (A')
                 (A") (A") (A') (A') (A") (A") (A") (A") (A') (A")
                 (A") (A') (A') (A') (A') (A") (A") (A') (A') (A')
                 (A') (A') (A') (A') (A') (A')
 The electronic state of the initial guess is 1-A'.
 Leave Link  401 at Fri Aug 26 19:13:34 2022, MaxMem=   536870912 cpu:               1.0 elap:               0.3
 (Enter /usr/site/hpc/x86_64/glibc-2.17/broadwell/gaussian/g16_a.03/pgi-16.5/g16/l502.exe)
 Keep R1 ints in memory in symmetry-blocked form, NReq=34823457.
 FoFCou: FMM=F IPFlag=           0 FMFlag=           0 FMFlg1=           0
         NFxFlg=           0 DoJE=F BraDBF=F KetDBF=F FulRan=T
         wScrn=  0.000000 ICntrl=       600 IOpCl=  0 I1Cent=           0 NGrid=           0
         NMat0=    1 NMatS0=   6786 NMatT0=    0 NMatD0=    1 NMtDS0=    0 NMtDT0=    0
 Petite list used in FoFCou.
 Closed shell SCF:
 Using DIIS extrapolation, IDIIS=  1040.
 NGot=   536870912 LenX=   525040673 LenY=   525023332
 Requested convergence on RMS density matrix=1.00D-08 within 128 cycles.
 Requested convergence on MAX density matrix=1.00D-06.
 Requested convergence on             energy=1.00D-06.
 No special actions if energy rises.

 Cycle   1  Pass 1  IDiag  1:
 E= -151.891328475761    
 DIIS: error= 6.43D-02 at cycle   1 NSaved=   1.
 NSaved= 1 IEnMin= 1 EnMin= -151.891328475761     IErMin= 1 ErrMin= 6.43D-02
 ErrMax= 6.43D-02  0.00D+00 EMaxC= 1.00D-01 BMatC= 4.15D-01 BMatP= 4.15D-01
 IDIUse=3 WtCom= 3.57D-01 WtEn= 6.43D-01
 Coeff-Com:  0.100D+01
 Coeff-En:   0.100D+01
 Coeff:      0.100D+01
 Gap=     0.475 Goal=   None    Shift=    0.000
 GapD=    0.475 DampG=2.000 DampE=0.500 DampFc=1.0000 IDamp=-1.
 RMSDP=3.17D-03 MaxDP=8.49D-02              OVMax= 1.39D-01

 Cycle   2  Pass 1  IDiag  1:
 E= -152.007194635814     Delta-E=       -0.115866160053 Rises=F Damp=F
 DIIS: error= 4.26D-02 at cycle   2 NSaved=   2.
 NSaved= 2 IEnMin= 2 EnMin= -152.007194635814     IErMin= 2 ErrMin= 4.26D-02
 ErrMax= 4.26D-02  0.00D+00 EMaxC= 1.00D-01 BMatC= 1.26D-01 BMatP= 4.15D-01
 IDIUse=3 WtCom= 5.74D-01 WtEn= 4.26D-01
 Coeff-Com:  0.330D+00 0.670D+00
 Coeff-En:   0.189D+00 0.811D+00
 Coeff:      0.270D+00 0.730D+00
 Gap=     0.634 Goal=   None    Shift=    0.000
 RMSDP=1.75D-03 MaxDP=5.26D-02 DE=-1.16D-01 OVMax= 6.89D-02

 Cycle   3  Pass 1  IDiag  1:
 E= -152.081586981874     Delta-E=       -0.074392346060 Rises=F Damp=F
 DIIS: error= 8.94D-03 at cycle   3 NSaved=   3.
 NSaved= 3 IEnMin= 3 EnMin= -152.081586981874     IErMin= 3 ErrMin= 8.94D-03
 ErrMax= 8.94D-03  0.00D+00 EMaxC= 1.00D-01 BMatC= 6.33D-03 BMatP= 1.26D-01
 IDIUse=3 WtCom= 9.11D-01 WtEn= 8.94D-02
 Coeff-Com: -0.327D-01 0.149D+00 0.884D+00
 Coeff-En:   0.000D+00 0.000D+00 0.100D+01
 Coeff:     -0.298D-01 0.136D+00 0.894D+00
 Gap=     0.606 Goal=   None    Shift=    0.000
 RMSDP=2.90D-04 MaxDP=6.87D-03 DE=-7.44D-02 OVMax= 1.44D-02

 Cycle   4  Pass 1  IDiag  1:
 E= -152.085631631335     Delta-E=       -0.004044649461 Rises=F Damp=F
 DIIS: error= 8.91D-04 at cycle   4 NSaved=   4.
 NSaved= 4 IEnMin= 4 EnMin= -152.085631631335     IErMin= 4 ErrMin= 8.91D-04
 ErrMax= 8.91D-04  0.00D+00 EMaxC= 1.00D-01 BMatC= 4.29D-05 BMatP= 6.33D-03
 IDIUse=3 WtCom= 9.91D-01 WtEn= 8.91D-03
 Coeff-Com:  0.708D-02-0.595D-01-0.241D+00 0.129D+01
 Coeff-En:   0.000D+00 0.000D+00 0.000D+00 0.100D+01
 Coeff:      0.702D-02-0.590D-01-0.239D+00 0.129D+01
 Gap=     0.609 Goal=   None    Shift=    0.000
 RMSDP=5.57D-05 MaxDP=1.06D-03 DE=-4.04D-03 OVMax= 2.86D-03

 Cycle   5  Pass 1  IDiag  1:
 E= -152.085690375775     Delta-E=       -0.000058744440 Rises=F Damp=F
 DIIS: error= 2.07D-04 at cycle   5 NSaved=   5.
 NSaved= 5 IEnMin= 5 EnMin= -152.085690375775     IErMin= 5 ErrMin= 2.07D-04
 ErrMax= 2.07D-04  0.00D+00 EMaxC= 1.00D-01 BMatC= 1.57D-06 BMatP= 4.29D-05
 IDIUse=3 WtCom= 9.98D-01 WtEn= 2.07D-03
 Coeff-Com:  0.785D-03-0.146D-02-0.918D-02-0.160D+00 0.117D+01
 Coeff-En:   0.000D+00 0.000D+00 0.000D+00 0.000D+00 0.100D+01
 Coeff:      0.783D-03-0.146D-02-0.916D-02-0.159D+00 0.117D+01
 Gap=     0.609 Goal=   None    Shift=    0.000
 RMSDP=1.46D-05 MaxDP=2.86D-04 DE=-5.87D-05 OVMax= 6.54D-04

 Cycle   6  Pass 1  IDiag  1:
 E= -152.085693395764     Delta-E=       -0.000003019989 Rises=F Damp=F
 DIIS: error= 3.94D-05 at cycle   6 NSaved=   6.
 NSaved= 6 IEnMin= 6 EnMin= -152.085693395764     IErMin= 6 ErrMin= 3.94D-05
 ErrMax= 3.94D-05  0.00D+00 EMaxC= 1.00D-01 BMatC= 5.54D-08 BMatP= 1.57D-06
 IDIUse=1 WtCom= 1.00D+00 WtEn= 0.00D+00
 Coeff-Com: -0.360D-03 0.215D-02 0.936D-02-0.185D-01-0.250D+00 0.126D+01
 Coeff:     -0.360D-03 0.215D-02 0.936D-02-0.185D-01-0.250D+00 0.126D+01
 Gap=     0.610 Goal=   None    Shift=    0.000
 RMSDP=4.75D-06 MaxDP=1.22D-04 DE=-3.02D-06 OVMax= 2.08D-04

 Cycle   7  Pass 1  IDiag  1:
 E= -152.085693546110     Delta-E=       -0.000000150346 Rises=F Damp=F
 DIIS: error= 7.14D-06 at cycle   7 NSaved=   7.
 NSaved= 7 IEnMin= 7 EnMin= -152.085693546110     IErMin= 7 ErrMin= 7.14D-06
 ErrMax= 7.14D-06  0.00D+00 EMaxC= 1.00D-01 BMatC= 2.97D-09 BMatP= 5.54D-08
 IDIUse=1 WtCom= 1.00D+00 WtEn= 0.00D+00
 Coeff-Com:  0.301D-04-0.434D-03-0.179D-02 0.179D-01-0.320D-01-0.197D+00
 Coeff-Com:  0.121D+01
 Coeff:      0.301D-04-0.434D-03-0.179D-02 0.179D-01-0.320D-01-0.197D+00
 Coeff:      0.121D+01
 Gap=     0.610 Goal=   None    Shift=    0.000
 RMSDP=8.39D-07 MaxDP=1.93D-05 DE=-1.50D-07 OVMax= 4.84D-05

 Cycle   8  Pass 1  IDiag  1:
 E= -152.085693552597     Delta-E=       -0.000000006486 Rises=F Damp=F
 DIIS: error= 2.02D-06 at cycle   8 NSaved=   8.
 NSaved= 8 IEnMin= 8 EnMin= -152.085693552597     IErMin= 8 ErrMin= 2.02D-06
 ErrMax= 2.02D-06  0.00D+00 EMaxC= 1.00D-01 BMatC= 1.70D-10 BMatP= 2.97D-09
 IDIUse=1 WtCom= 1.00D+00 WtEn= 0.00D+00
 Coeff-Com:  0.901D-05 0.222D-04 0.128D-03-0.505D-02 0.221D-01 0.701D-02
 Coeff-Com: -0.388D+00 0.136D+01
 Coeff:      0.901D-05 0.222D-04 0.128D-03-0.505D-02 0.221D-01 0.701D-02
 Coeff:     -0.388D+00 0.136D+01
 Gap=     0.610 Goal=   None    Shift=    0.000
 RMSDP=1.44D-07 MaxDP=3.21D-06 DE=-6.49D-09 OVMax= 9.69D-06

 Cycle   9  Pass 1  IDiag  1:
 E= -152.085693552992     Delta-E=       -0.000000000396 Rises=F Damp=F
 DIIS: error= 3.45D-07 at cycle   9 NSaved=   9.
 NSaved= 9 IEnMin= 9 EnMin= -152.085693552992     IErMin= 9 ErrMin= 3.45D-07
 ErrMax= 3.45D-07  0.00D+00 EMaxC= 1.00D-01 BMatC= 9.73D-12 BMatP= 1.70D-10
 IDIUse=1 WtCom= 1.00D+00 WtEn= 0.00D+00
 Coeff-Com:  0.532D-06 0.173D-04 0.723D-04-0.135D-02 0.511D-02 0.388D-02
 Coeff-Com: -0.833D-01 0.148D+00 0.928D+00
 Coeff:      0.532D-06 0.173D-04 0.723D-04-0.135D-02 0.511D-02 0.388D-02
 Coeff:     -0.833D-01 0.148D+00 0.928D+00
 Gap=     0.610 Goal=   None    Shift=    0.000
 RMSDP=2.22D-08 MaxDP=4.74D-07 DE=-3.96D-10 OVMax= 1.39D-06

 Cycle  10  Pass 1  IDiag  1:
 E= -152.085693553007     Delta-E=       -0.000000000014 Rises=F Damp=F
 DIIS: error= 1.26D-07 at cycle  10 NSaved=  10.
 NSaved=10 IEnMin=10 EnMin= -152.085693553007     IErMin=10 ErrMin= 1.26D-07
 ErrMax= 1.26D-07  0.00D+00 EMaxC= 1.00D-01 BMatC= 1.65D-12 BMatP= 9.73D-12
 IDIUse=1 WtCom= 1.00D+00 WtEn= 0.00D+00
 Coeff-Com: -0.113D-05-0.104D-05-0.121D-04 0.544D-03-0.213D-02-0.219D-02
 Coeff-Com:  0.510D-01-0.203D+00 0.186D+00 0.969D+00
 Coeff:     -0.113D-05-0.104D-05-0.121D-04 0.544D-03-0.213D-02-0.219D-02
 Coeff:      0.510D-01-0.203D+00 0.186D+00 0.969D+00
 Gap=     0.610 Goal=   None    Shift=    0.000
 RMSDP=1.12D-08 MaxDP=2.87D-07 DE=-1.41D-11 OVMax= 6.49D-07

 Cycle  11  Pass 1  IDiag  1:
 E= -152.085693553009     Delta-E=       -0.000000000002 Rises=F Damp=F
 DIIS: error= 2.88D-08 at cycle  11 NSaved=  11.
 NSaved=11 IEnMin=11 EnMin= -152.085693553009     IErMin=11 ErrMin= 2.88D-08
 ErrMax= 2.88D-08  0.00D+00 EMaxC= 1.00D-01 BMatC= 3.08D-14 BMatP= 1.65D-12
 IDIUse=1 WtCom= 1.00D+00 WtEn= 0.00D+00
 Coeff-Com:  0.261D-06-0.637D-06-0.706D-06-0.734D-04 0.274D-03 0.310D-03
 Coeff-Com: -0.797D-02 0.382D-01-0.823D-01-0.221D+00 0.127D+01
 Coeff:      0.261D-06-0.637D-06-0.706D-06-0.734D-04 0.274D-03 0.310D-03
 Coeff:     -0.797D-02 0.382D-01-0.823D-01-0.221D+00 0.127D+01
 Gap=     0.610 Goal=   None    Shift=    0.000
 RMSDP=5.11D-09 MaxDP=1.57D-07 DE=-2.39D-12 OVMax= 1.87D-07

 SCF Done:  E(RHF) =  -152.085693553     A.U. after   11 cycles
            NFock= 11  Conv=0.51D-08     -V/T= 2.0012
 KE= 1.519107880916D+02 PE=-4.389603179528D+02 EE= 9.649299949126D+01
 Leave Link  502 at Fri Aug 26 19:13:36 2022, MaxMem=   536870912 cpu:               5.5 elap:               1.5
 (Enter /usr/site/hpc/x86_64/glibc-2.17/broadwell/gaussian/g16_a.03/pgi-16.5/g16/l801.exe)
 Windowed orbitals will be sorted by symmetry type.
 ExpMin= 1.03D-01 ExpMax= 1.53D+04 ExpMxC= 5.22D+02 IAcc=3 IRadAn=         5 AccDes= 0.00D+00
 HarFok:  IExCor=  205 AccDes= 0.00D+00 IRadAn=         5 IDoV=-2 UseB2=F ITyADJ=14
 ICtDFT= 12500011 ScaDFX=  1.000000  1.000000  1.000000  1.000000
 Largest valence mixing into a core orbital is  1.12D-04
 Largest core mixing into a valence orbital is  1.89D-05
 Range of M.O.s used for correlation:     3   116
 NBasis=   116 NAE=    10 NBE=    10 NFC=     2 NFV=     0
 NROrb=    114 NOA=     8 NOB=     8 NVA=   106 NVB=   106
 Leave Link  801 at Fri Aug 26 19:13:36 2022, MaxMem=   536870912 cpu:               0.4 elap:               0.1
 (Enter /usr/site/hpc/x86_64/glibc-2.17/broadwell/gaussian/g16_a.03/pgi-16.5/g16/l804.exe)
 Closed-shell transformation, MDV=   536870912 ITran=4 ISComp=2.
 Unit  1 TFree=        834515 TCopy=        406125.
 Semi-Direct transformation.
 ModeAB=           2 MOrb=             8 LenV=     536361705
 LASXX=      2873146 LTotXX=     2873146 LenRXX=     2873146
 LTotAB=     2958132 MaxLAS=     7765680 LenRXY=     7765680
 NonZer=     7960848 LenScr=    12058624 LnRSAI=           0
 LnScr1=           0 LExtra=           0 Total=     22697450
 MaxDsk=          -1 SrtSym=           F ITran=            4
 DoSDTr:  NPSUse=  4
 JobTyp=0 Pass  1:  I=   1 to   8.
 (rs|ai) integrals will be sorted in core.
 Complete sort for first half transformation.
 First half transformation complete.
 Complete sort for second half transformation.
 Second half transformation complete.
 Spin components of T(2) and E(2):
     alpha-alpha T2 =       0.1593073867D-01 E2=     -0.6470365745D-01
     alpha-beta  T2 =       0.9313209527D-01 E2=     -0.4008773618D+00
     beta-beta   T2 =       0.1593073867D-01 E2=     -0.6470365745D-01
 ANorm=    0.1060657142D+01
 E2 =    -0.5302846766D+00 EUMP2 =    -0.15261597822965D+03
 Leave Link  804 at Fri Aug 26 19:13:37 2022, MaxMem=   536870912 cpu:               6.1 elap:               1.6
 (Enter /usr/site/hpc/x86_64/glibc-2.17/broadwell/gaussian/g16_a.03/pgi-16.5/g16/l913.exe)
 CIDS:  MDV=   536870912.
 Frozen-core window:  NFC=   2 NFV=   0.
 IFCWin=0 IBDFC=1 NFBD=     0     0 NFCmp=     0     0 NFFFC=     0     0
 Using DD3R+UMP44R for 1st iteration.
 Using DD4RQ for 2nd and later iterations.
 Keep R2 and R3 ints in memory in symmetry-blocked form, NReq=35357534.
 FoFCou: FMM=F IPFlag=           0 FMFlag=           0 FMFlg1=           0
         NFxFlg=           0 DoJE=F BraDBF=F KetDBF=F FulRan=T
         wScrn=  0.000000 ICntrl=       600 IOpCl=  0 I1Cent=           0 NGrid=           0
         NMat0=    1 NMatS0=   6786 NMatT0=    0 NMatD0=    1 NMtDS0=    0 NMtDT0=    0
 Petite list used in FoFCou.
 CIDS: In Core Option IDoMem=           1.
 CCSD(T)
 =======
 Iterations=  50 Convergence= 0.100D-06
 Produce multiple copies of IABC intergrals
 Iteration Nr.   1
 **********************
 DD1Dir will call FoFMem   1 times, MxPair=        72
 NAB=    36 NAA=     0 NBB=     0.
 MP4(R+Q)=  0.79354230D-02
 Maximum subspace dimension=  5
 A-vector RMS=  1.9227385D-03 Max=  1.0977246D-02 conv= 1.00D-05.
 RLE energy=       -0.5292699390
 E3=       -0.69902017D-02        EUMP3=      -0.15262296843D+03
 E4(DQ)=   -0.13699091D-02        UMP4(DQ)=   -0.15262433834D+03
 E4(SDQ)=  -0.46674257D-02        UMP4(SDQ)=  -0.15262763586D+03
 VARIATIONAL ENERGIES WITH THE FIRST-ORDER WAVEFUNCTION:
 DE(Corr)= -0.52926800     E(Corr)=     -152.61496156    
 NORM(A)=   0.10608214D+01
 Iteration Nr.   2
 **********************
 DD1Dir will call FoFMem   1 times, MxPair=        72
 NAB=    36 NAA=     0 NBB=     0.
 A-vector RMS=  2.1367706D-04 Max=  1.7267627D-03 conv= 1.00D-05.
 RLE energy=       -0.5406528249
 DE(Corr)= -0.53955456     E(CORR)=     -152.62524811     Delta=-1.03D-02
 NORM(A)=   0.10647417D+01
 Iteration Nr.   3
 **********************
 DD1Dir will call FoFMem   1 times, MxPair=        72
 NAB=    36 NAA=     0 NBB=     0.
 A-vector RMS=  2.0944261D-04 Max=  2.3874688D-03 conv= 1.00D-05.
 RLE energy=       -0.5411767358
 DE(Corr)= -0.54054724     E(CORR)=     -152.62624080     Delta=-9.93D-04
 NORM(A)=   0.10654329D+01
 Iteration Nr.   4
 **********************
 DD1Dir will call FoFMem   1 times, MxPair=        72
 NAB=    36 NAA=     0 NBB=     0.
 A-vector RMS=  4.3763605D-05 Max=  3.4874163D-04 conv= 1.00D-05.
 RLE energy=       -0.5412552805
 DE(Corr)= -0.54121754     E(CORR)=     -152.62691109     Delta=-6.70D-04
 NORM(A)=   0.10655708D+01
 Iteration Nr.   5
 **********************
 DD1Dir will call FoFMem   1 times, MxPair=        72
 NAB=    36 NAA=     0 NBB=     0.
 A-vector RMS=  3.3006056D-05 Max=  4.3304623D-04 conv= 1.00D-05.
 RLE energy=       -0.5412751249
 DE(Corr)= -0.54126423     E(CORR)=     -152.62695779     Delta=-4.67D-05
 NORM(A)=   0.10655985D+01
 Iteration Nr.   6
 **********************
 DD1Dir will call FoFMem   1 times, MxPair=        72
 NAB=    36 NAA=     0 NBB=     0.
 A-vector RMS=  9.5765225D-06 Max=  9.6495761D-05 conv= 1.00D-05.
 RLE energy=       -0.5412637732
 DE(Corr)= -0.54126947     E(CORR)=     -152.62696302     Delta=-5.23D-06
 NORM(A)=   0.10656008D+01
 Iteration Nr.   7
 **********************
 DD1Dir will call FoFMem   1 times, MxPair=        72
 NAB=    36 NAA=     0 NBB=     0.
 A-vector RMS=  3.8432452D-06 Max=  4.6105557D-05 conv= 1.00D-05.
 RLE energy=       -0.5412676060
 DE(Corr)= -0.54126971     E(CORR)=     -152.62696327     Delta=-2.44D-07
 NORM(A)=   0.10656040D+01
 Iteration Nr.   8
 **********************
 DD1Dir will call FoFMem   1 times, MxPair=        72
 NAB=    36 NAA=     0 NBB=     0.
 A-vector RMS=  1.4500724D-06 Max=  1.3919134D-05 conv= 1.00D-05.
 RLE energy=       -0.5412685883
 DE(Corr)= -0.54126895     E(CORR)=     -152.62696251     Delta= 7.60D-07
 NORM(A)=   0.10656049D+01
 Iteration Nr.   9
 **********************
 DD1Dir will call FoFMem   1 times, MxPair=        72
 NAB=    36 NAA=     0 NBB=     0.
 A-vector RMS=  2.4673963D-07 Max=  2.7712909D-06 conv= 1.00D-05.
 RLE energy=       -0.5412689744
 DE(Corr)= -0.54126905     E(CORR)=     -152.62696260     Delta=-9.61D-08
 NORM(A)=   0.10656055D+01
 CI/CC converged in    9 iterations to DelEn=-9.61D-08 Conv= 1.00D-07 ErrA1= 2.47D-07 Conv= 1.00D-05
 Wavefunction amplitudes converged. E(Corr)=     -152.62696260    
 Largest amplitude= 2.50D-02
 IPart=  3 IA=    7   11.05% done.
 IPart=  2 IA=   13   21.46% done.
 IPart=  3 IA=   19   31.21% done.
 IPart=  2 IA=   25   40.32% done.
 IPart=  1 IA=   32   50.13% done.
 IPart=  1 IA=   40   60.27% done.
 IPart=  4 IA=   49   70.30% done.
 IPart=  3 IA=   60   80.58% done.
 IPart=  4 IA=   74   90.51% done.
 Time for triples=      107.46 seconds.
 T4(CCSD)= -0.16724478D-01
 T5(CCSD)=  0.45994442D-03
 CCSD(T)= -0.15264322714D+03
 Discarding MO integrals.
 Leave Link  913 at Fri Aug 26 19:14:19 2022, MaxMem=   536870912 cpu:             152.5 elap:              41.6
 (Enter /usr/site/hpc/x86_64/glibc-2.17/broadwell/gaussian/g16_a.03/pgi-16.5/g16/l601.exe)
 Copying SCF densities to generalized density rwf, IOpCl= 0 IROHF=0.

 **********************************************************************

            Population analysis using the SCF density.

 **********************************************************************

 Orbital symmetries:
       Occupied  (A') (A') (A') (A') (A') (A') (A') (A') (A") (A")
       Virtual   (A') (A') (A') (A') (A') (A') (A') (A') (A') (A")
                 (A') (A') (A") (A") (A") (A') (A') (A") (A') (A')
                 (A") (A') (A') (A') (A') (A') (A') (A') (A") (A")
                 (A") (A") (A') (A') (A') (A') (A') (A') (A') (A')
                 (A') (A') (A") (A") (A') (A') (A") (A") (A') (A')
                 (A") (A") (A') (A') (A') (A") (A") (A") (A') (A')
                 (A") (A') (A') (A') (A") (A") (A') (A') (A') (A')
                 (A") (A") (A') (A') (A') (A') (A') (A') (A') (A')
                 (A") (A") (A') (A') (A") (A") (A") (A") (A') (A")
                 (A") (A') (A') (A') (A') (A") (A") (A') (A') (A')
                 (A') (A') (A') (A') (A') (A')
 The electronic state is 1-A'.
 Alpha  occ. eigenvalues --  -20.52759 -20.52730  -1.31070  -1.29740  -0.68245
 Alpha  occ. eigenvalues --   -0.67383  -0.57818  -0.48634  -0.48385  -0.46412
 Alpha virt. eigenvalues --    0.14545   0.17758   0.20573   0.22484   0.50306
 Alpha virt. eigenvalues --    0.58959   0.58984   0.64100   0.72570   0.76765
 Alpha virt. eigenvalues --    0.77508   0.80432   0.84209   0.86599   0.86761
 Alpha virt. eigenvalues --    0.89684   0.92894   0.93904   1.05636   1.12853
 Alpha virt. eigenvalues --    1.13340   1.18039   1.34054   1.52062   1.53528
 Alpha virt. eigenvalues --    1.54179   1.56474   1.61466   2.03065   2.03349
 Alpha virt. eigenvalues --    2.08461   2.09833   2.13158   2.14811   2.19879
 Alpha virt. eigenvalues --    2.25639   2.37795   2.39149   2.62732   2.65764
 Alpha virt. eigenvalues --    2.94854   3.02463   3.41312   3.41840   3.50615
 Alpha virt. eigenvalues --    3.55240   3.55249   3.55288   3.61304   3.63415
 Alpha virt. eigenvalues --    3.81021   3.81096   3.88765   3.89593   3.94519
 Alpha virt. eigenvalues --    3.95595   3.95809   4.01620   4.06361   4.09086
 Alpha virt. eigenvalues --    4.13130   4.18437   4.18851   4.19799   4.31522
 Alpha virt. eigenvalues --    4.33245   4.39580   4.46985   4.51930   4.53964
 Alpha virt. eigenvalues --    4.66718   4.73077   4.84930   4.95328   5.06337
 Alpha virt. eigenvalues --    5.07562   5.22236   5.45633   5.58258   5.61951
 Alpha virt. eigenvalues --    6.00485   6.00807   6.41174   6.45048   6.88412
 Alpha virt. eigenvalues --    6.89412   6.91953   6.92315   6.94190   7.00063
 Alpha virt. eigenvalues --    7.03702   7.07621   7.08751   7.10445   7.15620
 Alpha virt. eigenvalues --    7.20288   7.21657   7.31725   7.50089   7.52655
 Alpha virt. eigenvalues --    7.70598   7.78206   8.16939   8.30218  12.51976
 Alpha virt. eigenvalues --   12.75188
          Condensed to atoms (all electrons):
               1          2          3          4          5          6
     1  O    7.860376   0.315290   0.320539  -0.052331   0.004258   0.006198
     2  H    0.315290   0.482295  -0.026253   0.004711  -0.000364  -0.000847
     3  H    0.320539  -0.026253   0.472358   0.005610  -0.000628  -0.000516
     4  O   -0.052331   0.004711   0.005610   7.859408   0.314336   0.320884
     5  H    0.004258  -0.000364  -0.000628   0.314336   0.485344  -0.026124
     6  H    0.006198  -0.000847  -0.000516   0.320884  -0.026124   0.470695
 Mulliken charges:
               1
     1  O   -0.454330
     2  H    0.225168
     3  H    0.228891
     4  O   -0.452618
     5  H    0.223179
     6  H    0.229711
 Sum of Mulliken charges =  -0.00000
 Mulliken charges with hydrogens summed into heavy atoms:
               1
     1  O   -0.000271
     4  O    0.000271
 Electronic spatial extent (au):  <R**2>=            151.2854
 Charge=             -0.0000 electrons
 Dipole moment (field-independent basis, Debye):
    X=             -0.2295    Y=             -0.0191    Z=              0.0000  Tot=              0.2303
 Quadrupole moment (field-independent basis, Debye-Ang):
   XX=             -8.0538   YY=             -3.6379   ZZ=            -14.7331
   XY=             -0.0925   XZ=              0.0000   YZ=              0.0000
 Traceless Quadrupole moment (field-independent basis, Debye-Ang):
   XX=              0.7544   YY=              5.1704   ZZ=             -5.9248
   XY=             -0.0925   XZ=              0.0000   YZ=              0.0000
 Octapole moment (field-independent basis, Debye-Ang**2):
  XXX=             -0.5093  YYY=              0.0864  ZZZ=              0.0000  XYY=              0.5893
  XXY=             -0.1158  XXZ=              0.0000  XZZ=             -0.0229  YZZ=             -0.0027
  YYZ=              0.0000  XYZ=              0.0000
 Hexadecapole moment (field-independent basis, Debye-Ang**3):
 XXXX=            -11.8755 YYYY=            -99.1413 ZZZZ=            -11.4056 XXXY=             -0.6259
 XXXZ=              0.0000 YYYX=              2.0230 YYYZ=              0.0000 ZZZX=              0.0000
 ZZZY=              0.0000 XXYY=            -10.3618 XXZZ=             -4.6649 YYZZ=            -27.8410
 XXYZ=              0.0000 YYXZ=              0.0000 ZZXY=              0.0624
 N-N= 3.847083681684D+01 E-N=-4.389603179138D+02  KE= 1.519107880916D+02
 Symmetry A'   KE= 1.428919015786D+02
 Symmetry A"   KE= 9.018886513034D+00
 Leave Link  601 at Fri Aug 26 19:14:19 2022, MaxMem=   536870912 cpu:               0.7 elap:               0.2
 (Enter /usr/site/hpc/x86_64/glibc-2.17/broadwell/gaussian/g16_a.03/pgi-16.5/g16/l9999.exe)
 1\1\GINC-N050\SP\RCCSD(T)-FC\CC-pVTZ\H4O2\C7441284\26-Aug-2022\0\\#p C
 CSD(T)/cc-pVTZ\\H2O_H2O_702\\0,1\O,0,0.,-0.009833,0.\H,0,-0.799571,-0.
 580965,0.\H,0,0.799571,-0.580965,0.\O,0,-0.001283,2.341852,0.\H,0,0.71
 69,3.012463,0.\H,0,-0.868562,2.803733,0.\\Version=ES64L-G16RevA.03\Sta
 te=1-A'\HF=-152.0856936\MP2=-152.6159782\MP3=-152.6229684\MP4D=-152.63
 22738\MP4DQ=-152.6243383\MP4SDQ=-152.6276359\CCSD=-152.6269626\CCSD(T)
 =-152.6432271\RMSD=5.106e-09\PG=CS [SG(H4O2)]\\@


 JUST WHEN YOU THINK YOU'VE GOT THE WORLD ON A STRING,
 YOU FIND OUT IT'S YOUR LEASH.
 Job cpu time:       0 days  0 hours  2 minutes 48.6 seconds.
 Elapsed time:       0 days  0 hours  0 minutes 46.3 seconds.
 File lengths (MBytes):  RWF=    572 Int=      0 D2E=      0 Chk=      8 Scr=      8
 Normal termination of Gaussian 16 at Fri Aug 26 19:14:20 2022.
