 Entering Gaussian System, Link 0=g16
 Input=H2O_H2O_3740.com
 Output=H2O_H2O_3740.log
 Initial command:
 /usr/site/hpc/x86_64/glibc-2.17/broadwell/gaussian/g16_a.03/pgi-16.5/g16/l1.exe "/gpfs/gpfs1/scratch/c7441284/ForceFieldModel/FittingData/Gau-3550114.inp" -scrdir="/gpfs/gpfs1/scratch/c7441284/ForceFieldModel/FittingData/"
 Entering Link 1 = /usr/site/hpc/x86_64/glibc-2.17/broadwell/gaussian/g16_a.03/pgi-16.5/g16/l1.exe PID=   3550115.
  
 Copyright (c) 1988,1990,1992,1993,1995,1998,2003,2009,2016,
            Gaussian, Inc.  All Rights Reserved.
  
 This is part of the Gaussian(R) 16 program.  It is based on
 the Gaussian(R) 09 system (copyright 2009, Gaussian, Inc.),
 the Gaussian(R) 03 system (copyright 2003, Gaussian, Inc.),
 the Gaussian(R) 98 system (copyright 1998, Gaussian, Inc.),
 the Gaussian(R) 94 system (copyright 1995, Gaussian, Inc.),
 the Gaussian 92(TM) system (copyright 1992, Gaussian, Inc.),
 the Gaussian 90(TM) system (copyright 1990, Gaussian, Inc.),
 the Gaussian 88(TM) system (copyright 1988, Gaussian, Inc.),
 the Gaussian 86(TM) system (copyright 1986, Carnegie Mellon
 University), and the Gaussian 82(TM) system (copyright 1983,
 Carnegie Mellon University). Gaussian is a federally registered
 trademark of Gaussian, Inc.
  
 This software contains proprietary and confidential information,
 including trade secrets, belonging to Gaussian, Inc.
  
 This software is provided under written license and may be
 used, copied, transmitted, or stored only in accord with that
 written license.
  
 The following legend is applicable only to US Government
 contracts under FAR:
  
                    RESTRICTED RIGHTS LEGEND
  
 Use, reproduction and disclosure by the US Government is
 subject to restrictions as set forth in subparagraphs (a)
 and (c) of the Commercial Computer Software - Restricted
 Rights clause in FAR 52.227-19.
  
 Gaussian, Inc.
 340 Quinnipiac St., Bldg. 40, Wallingford CT 06492
  
  
 ---------------------------------------------------------------
 Warning -- This program may not be used in any manner that
 competes with the business of Gaussian, Inc. or will provide
 assistance to any competitor of Gaussian, Inc.  The licensee
 of this program is prohibited from giving any competitor of
 Gaussian, Inc. access to this program.  By using this program,
 the user acknowledges that Gaussian, Inc. is engaged in the
 business of creating and licensing software in the field of
 computational chemistry and represents and warrants to the
 licensee that it is not a competitor of Gaussian, Inc. and that
 it will not use this program in any manner prohibited above.
 ---------------------------------------------------------------
  

 Cite this work as:
 Gaussian 16, Revision A.03,
 M. J. Frisch, G. W. Trucks, H. B. Schlegel, G. E. Scuseria, 
 M. A. Robb, J. R. Cheeseman, G. Scalmani, V. Barone, 
 G. A. Petersson, H. Nakatsuji, X. Li, M. Caricato, A. V. Marenich, 
 J. Bloino, B. G. Janesko, R. Gomperts, B. Mennucci, H. P. Hratchian, 
 J. V. Ortiz, A. F. Izmaylov, J. L. Sonnenberg, D. Williams-Young, 
 F. Ding, F. Lipparini, F. Egidi, J. Goings, B. Peng, A. Petrone, 
 T. Henderson, D. Ranasinghe, V. G. Zakrzewski, J. Gao, N. Rega, 
 G. Zheng, W. Liang, M. Hada, M. Ehara, K. Toyota, R. Fukuda, 
 J. Hasegawa, M. Ishida, T. Nakajima, Y. Honda, O. Kitao, H. Nakai, 
 T. Vreven, K. Throssell, J. A. Montgomery, Jr., J. E. Peralta, 
 F. Ogliaro, M. J. Bearpark, J. J. Heyd, E. N. Brothers, K. N. Kudin, 
 V. N. Staroverov, T. A. Keith, R. Kobayashi, J. Normand, 
 K. Raghavachari, A. P. Rendell, J. C. Burant, S. S. Iyengar, 
 J. Tomasi, M. Cossi, J. M. Millam, M. Klene, C. Adamo, R. Cammi, 
 J. W. Ochterski, R. L. Martin, K. Morokuma, O. Farkas, 
 J. B. Foresman, and D. J. Fox, Gaussian, Inc., Wallingford CT, 2016.
 
 ******************************************
 Gaussian 16:  ES64L-G16RevA.03 25-Dec-2016
                27-Aug-2022 
 ******************************************
 %NProcShared=4
 Will use up to    4 processors via shared memory.
 %Mem=4GB
 %Chk=H2O_H2O_3740.chk
 ------------------
 #p CCSD(T)/cc-pVTZ
 ------------------
 1/38=1,172=1/1;
 2/12=2,17=6,18=5,40=1/2;
 3/5=16,6=1,11=9,25=1,30=1/1,2,3;
 4//1;
 5/5=2,38=5/2;
 8/6=4,9=120000,10=1/1,4;
 9/5=7,14=2/13;
 6/7=2,8=2,9=2,10=2/1;
 99/5=1,9=1/99;
 Leave Link    1 at Sat Aug 27 02:53:28 2022, MaxMem=   536870912 cpu:               0.3 elap:               0.1
 (Enter /usr/site/hpc/x86_64/glibc-2.17/broadwell/gaussian/g16_a.03/pgi-16.5/g16/l101.exe)
 ------------
 H2O_H2O_3740
 ------------
 Symbolic Z-matrix:
 Charge =  0 Multiplicity = 1
 O                     0.       -0.00983   0. 
 H                    -0.79957  -0.58097   0. 
 H                     0.79957  -0.58097   0. 
 O                    -0.00818   5.55518   0. 
 H                    -0.03884   6.5373    0. 
 H                    -0.92727   5.20766   0. 
 
 ITRead=  0  0  0  0  0  0
 MicOpt= -1 -1 -1 -1 -1 -1
 NAtoms=      6 NQM=        6 NQMF=       0 NMMI=      0 NMMIF=      0
                NMic=       0 NMicF=      0.
                    Isotopes and Nuclear Properties:
 (Nuclear quadrupole moments (NQMom) in fm**2, nuclear magnetic moments (NMagM)
  in nuclear magnetons)

  Atom         1           2           3           4           5           6
 IAtWgt=          16           1           1          16           1           1
 AtmWgt=  15.9949146   1.0078250   1.0078250  15.9949146   1.0078250   1.0078250
 NucSpn=           0           1           1           0           1           1
 AtZEff=  -0.0000000  -0.0000000  -0.0000000  -0.0000000  -0.0000000  -0.0000000
 NQMom=    0.0000000   0.0000000   0.0000000   0.0000000   0.0000000   0.0000000
 NMagM=    0.0000000   2.7928460   2.7928460   0.0000000   2.7928460   2.7928460
 AtZNuc=   8.0000000   1.0000000   1.0000000   8.0000000   1.0000000   1.0000000
 Leave Link  101 at Sat Aug 27 02:53:28 2022, MaxMem=   536870912 cpu:               0.6 elap:               0.2
 (Enter /usr/site/hpc/x86_64/glibc-2.17/broadwell/gaussian/g16_a.03/pgi-16.5/g16/l202.exe)
                          Input orientation:                          
 ---------------------------------------------------------------------
 Center     Atomic      Atomic             Coordinates (Angstroms)
 Number     Number       Type             X           Y           Z
 ---------------------------------------------------------------------
      1          8           0        0.000000   -0.009833    0.000000
      2          1           0       -0.799571   -0.580965    0.000000
      3          1           0        0.799571   -0.580965    0.000000
      4          8           0       -0.008176    5.555176    0.000000
      5          1           0       -0.038837    6.537299    0.000000
      6          1           0       -0.927273    5.207661    0.000000
 ---------------------------------------------------------------------
                    Distance matrix (angstroms):
                    1          2          3          4          5
     1  O    0.000000
     2  H    0.982601   0.000000
     3  H    0.982601   1.599142   0.000000
     4  O    5.565015   6.186965   6.189078   0.000000
     5  H    6.547247   7.158799   7.167469   0.982601   0.000000
     6  H    5.299253   5.790034   6.040710   0.982602   1.599142
                    6
     6  H    0.000000
 Stoichiometry    H4O2
 Framework group  CS[SG(H4O2)]
 Deg. of freedom     9
 Full point group                 CS      NOp   2
 Largest Abelian subgroup         CS      NOp   2
 Largest concise Abelian subgroup C1      NOp   1
                         Standard orientation:                         
 ---------------------------------------------------------------------
 Center     Atomic      Atomic             Coordinates (Angstroms)
 Number     Number       Type             X           Y           Z
 ---------------------------------------------------------------------
      1          8           0        0.047525   -2.757194    0.000000
      2          1           0       -0.752884   -3.327151    0.000000
      3          1           0        0.846256   -3.329501    0.000000
      4          8           0        0.047525    2.807821    0.000000
      5          1           0        0.018307    3.789987    0.000000
      6          1           0       -0.872081    2.461656    0.000000
 ---------------------------------------------------------------------
 Rotational constants (GHZ):         241.0355554           1.7389417           1.7264860
 Leave Link  202 at Sat Aug 27 02:53:29 2022, MaxMem=   536870912 cpu:               0.0 elap:               0.0
 (Enter /usr/site/hpc/x86_64/glibc-2.17/broadwell/gaussian/g16_a.03/pgi-16.5/g16/l301.exe)
 Standard basis: CC-pVTZ (5D, 7F)
 Ernie: Thresh=  0.10000D-02 Tol=  0.10000D-05 Strict=F.
 Ernie:  6 primitive shells out of 84 were deleted.
 There are    92 symmetry adapted cartesian basis functions of A'  symmetry.
 There are    38 symmetry adapted cartesian basis functions of A"  symmetry.
 There are    80 symmetry adapted basis functions of A'  symmetry.
 There are    36 symmetry adapted basis functions of A"  symmetry.
   116 basis functions,   172 primitive gaussians,   130 cartesian basis functions
    10 alpha electrons       10 beta electrons
       nuclear repulsion energy        27.1215682892 Hartrees.
 IExCor=    0 DFT=F Ex=HF Corr=None ExCW=0 ScaHFX=  1.000000
 ScaDFX=  1.000000  1.000000  1.000000  1.000000 ScalE2=  1.000000  1.000000
 IRadAn=      5 IRanWt=     -1 IRanGd=            0 ICorTp=0 IEmpDi=  4
 NAtoms=    6 NActive=    6 NUniq=    6 SFac= 1.00D+00 NAtFMM=   60 NAOKFM=F Big=F
 Integral buffers will be    131072 words long.
 Raffenetti 1 integral format.
 Two-electron integral symmetry is turned on.
 Leave Link  301 at Sat Aug 27 02:53:29 2022, MaxMem=   536870912 cpu:               0.2 elap:               0.0
 (Enter /usr/site/hpc/x86_64/glibc-2.17/broadwell/gaussian/g16_a.03/pgi-16.5/g16/l302.exe)
 NPDir=0 NMtPBC=     1 NCelOv=     1 NCel=       1 NClECP=     1 NCelD=      1
         NCelK=      1 NCelE2=     1 NClLst=     1 CellRange=     0.0.
 One-electron integrals computed using PRISM.
 One-electron integral symmetry used in STVInt
 NBasis=   116 RedAO= T EigKep=  2.68D-03  NBF=    80    36
 NBsUse=   116 1.00D-06 EigRej= -1.00D+00 NBFU=    80    36
 Leave Link  302 at Sat Aug 27 02:53:29 2022, MaxMem=   536870912 cpu:               0.5 elap:               0.1
 (Enter /usr/site/hpc/x86_64/glibc-2.17/broadwell/gaussian/g16_a.03/pgi-16.5/g16/l303.exe)
 DipDrv:  MaxL=1.
 Leave Link  303 at Sat Aug 27 02:53:29 2022, MaxMem=   536870912 cpu:               0.1 elap:               0.0
 (Enter /usr/site/hpc/x86_64/glibc-2.17/broadwell/gaussian/g16_a.03/pgi-16.5/g16/l401.exe)
 ExpMin= 1.03D-01 ExpMax= 1.53D+04 ExpMxC= 5.22D+02 IAcc=3 IRadAn=         5 AccDes= 0.00D+00
 Harris functional with IExCor=  205 and IRadAn=       5 diagonalized for initial guess.
 HarFok:  IExCor=  205 AccDes= 0.00D+00 IRadAn=         5 IDoV= 1 UseB2=F ITyADJ=14
 ICtDFT=  3500011 ScaDFX=  1.000000  1.000000  1.000000  1.000000
 FoFCou: FMM=F IPFlag=           0 FMFlag=      100000 FMFlg1=           0
         NFxFlg=           0 DoJE=T BraDBF=F KetDBF=T FulRan=T
         wScrn=  0.000000 ICntrl=       500 IOpCl=  0 I1Cent=   200000004 NGrid=           0
         NMat0=    1 NMatS0=      1 NMatT0=    0 NMatD0=    1 NMtDS0=    0 NMtDT0=    0
 Petite list used in FoFCou.
 Harris En= -152.298681087051    
 JPrj=0 DoOrth=F DoCkMO=F.
 Initial guess orbital symmetries:
       Occupied  (A') (A') (A') (A') (A') (A') (A') (A') (A") (A")
       Virtual   (A') (A') (A') (A') (A') (A') (A') (A') (A') (A')
                 (A") (A") (A') (A') (A') (A') (A") (A") (A") (A")
                 (A') (A') (A') (A') (A') (A') (A') (A') (A") (A")
                 (A") (A") (A') (A') (A') (A') (A') (A') (A') (A')
                 (A') (A') (A") (A") (A') (A') (A") (A") (A") (A")
                 (A') (A') (A') (A') (A') (A') (A") (A") (A') (A')
                 (A') (A') (A") (A") (A") (A") (A') (A') (A') (A')
                 (A") (A") (A') (A') (A') (A') (A') (A') (A') (A')
                 (A") (A") (A') (A') (A") (A") (A") (A") (A') (A')
                 (A") (A") (A') (A') (A') (A') (A") (A") (A') (A')
                 (A') (A') (A') (A') (A') (A')
 The electronic state of the initial guess is 1-A'.
 Leave Link  401 at Sat Aug 27 02:53:29 2022, MaxMem=   536870912 cpu:               0.8 elap:               0.2
 (Enter /usr/site/hpc/x86_64/glibc-2.17/broadwell/gaussian/g16_a.03/pgi-16.5/g16/l502.exe)
 Keep R1 ints in memory in symmetry-blocked form, NReq=34823457.
 FoFCou: FMM=F IPFlag=           0 FMFlag=           0 FMFlg1=           0
         NFxFlg=           0 DoJE=F BraDBF=F KetDBF=F FulRan=T
         wScrn=  0.000000 ICntrl=       600 IOpCl=  0 I1Cent=           0 NGrid=           0
         NMat0=    1 NMatS0=   6786 NMatT0=    0 NMatD0=    1 NMtDS0=    0 NMtDT0=    0
 Petite list used in FoFCou.
 Closed shell SCF:
 Using DIIS extrapolation, IDIIS=  1040.
 NGot=   536870912 LenX=   525040673 LenY=   525023332
 Requested convergence on RMS density matrix=1.00D-08 within 128 cycles.
 Requested convergence on MAX density matrix=1.00D-06.
 Requested convergence on             energy=1.00D-06.
 No special actions if energy rises.

 Cycle   1  Pass 1  IDiag  1:
 E= -151.926207866218    
 DIIS: error= 6.59D-02 at cycle   1 NSaved=   1.
 NSaved= 1 IEnMin= 1 EnMin= -151.926207866218     IErMin= 1 ErrMin= 6.59D-02
 ErrMax= 6.59D-02  0.00D+00 EMaxC= 1.00D-01 BMatC= 4.01D-01 BMatP= 4.01D-01
 IDIUse=3 WtCom= 3.41D-01 WtEn= 6.59D-01
 Coeff-Com:  0.100D+01
 Coeff-En:   0.100D+01
 Coeff:      0.100D+01
 Gap=     0.519 Goal=   None    Shift=    0.000
 GapD=    0.519 DampG=2.000 DampE=0.500 DampFc=1.0000 IDamp=-1.
 RMSDP=2.51D-03 MaxDP=6.63D-02              OVMax= 1.27D-01

 Cycle   2  Pass 1  IDiag  1:
 E= -152.038167179935     Delta-E=       -0.111959313717 Rises=F Damp=F
 DIIS: error= 4.15D-02 at cycle   2 NSaved=   2.
 NSaved= 2 IEnMin= 2 EnMin= -152.038167179935     IErMin= 2 ErrMin= 4.15D-02
 ErrMax= 4.15D-02  0.00D+00 EMaxC= 1.00D-01 BMatC= 1.13D-01 BMatP= 4.01D-01
 IDIUse=3 WtCom= 5.85D-01 WtEn= 4.15D-01
 Coeff-Com:  0.320D+00 0.680D+00
 Coeff-En:   0.167D+00 0.833D+00
 Coeff:      0.257D+00 0.743D+00
 Gap=     0.660 Goal=   None    Shift=    0.000
 RMSDP=1.33D-03 MaxDP=3.95D-02 DE=-1.12D-01 OVMax= 5.73D-02

 Cycle   3  Pass 1  IDiag  1:
 E= -152.103304177574     Delta-E=       -0.065136997639 Rises=F Damp=F
 DIIS: error= 8.96D-03 at cycle   3 NSaved=   3.
 NSaved= 3 IEnMin= 3 EnMin= -152.103304177574     IErMin= 3 ErrMin= 8.96D-03
 ErrMax= 8.96D-03  0.00D+00 EMaxC= 1.00D-01 BMatC= 5.98D-03 BMatP= 1.13D-01
 IDIUse=3 WtCom= 9.10D-01 WtEn= 8.96D-02
 Coeff-Com: -0.305D-01 0.155D+00 0.875D+00
 Coeff-En:   0.000D+00 0.000D+00 0.100D+01
 Coeff:     -0.278D-01 0.141D+00 0.887D+00
 Gap=     0.632 Goal=   None    Shift=    0.000
 RMSDP=2.44D-04 MaxDP=5.68D-03 DE=-6.51D-02 OVMax= 1.34D-02

 Cycle   4  Pass 1  IDiag  1:
 E= -152.107037952343     Delta-E=       -0.003733774768 Rises=F Damp=F
 DIIS: error= 8.58D-04 at cycle   4 NSaved=   4.
 NSaved= 4 IEnMin= 4 EnMin= -152.107037952343     IErMin= 4 ErrMin= 8.58D-04
 ErrMax= 8.58D-04  0.00D+00 EMaxC= 1.00D-01 BMatC= 3.77D-05 BMatP= 5.98D-03
 IDIUse=3 WtCom= 9.91D-01 WtEn= 8.58D-03
 Coeff-Com:  0.680D-02-0.612D-01-0.239D+00 0.129D+01
 Coeff-En:   0.000D+00 0.000D+00 0.000D+00 0.100D+01
 Coeff:      0.674D-02-0.606D-01-0.237D+00 0.129D+01
 Gap=     0.635 Goal=   None    Shift=    0.000
 RMSDP=5.18D-05 MaxDP=1.04D-03 DE=-3.73D-03 OVMax= 2.25D-03

 Cycle   5  Pass 1  IDiag  1:
 E= -152.107088730065     Delta-E=       -0.000050777723 Rises=F Damp=F
 DIIS: error= 1.95D-04 at cycle   5 NSaved=   5.
 NSaved= 5 IEnMin= 5 EnMin= -152.107088730065     IErMin= 5 ErrMin= 1.95D-04
 ErrMax= 1.95D-04  0.00D+00 EMaxC= 1.00D-01 BMatC= 1.37D-06 BMatP= 3.77D-05
 IDIUse=3 WtCom= 9.98D-01 WtEn= 1.95D-03
 Coeff-Com:  0.561D-03 0.309D-03-0.346D-02-0.217D+00 0.122D+01
 Coeff-En:   0.000D+00 0.000D+00 0.000D+00 0.000D+00 0.100D+01
 Coeff:      0.560D-03 0.308D-03-0.346D-02-0.217D+00 0.122D+01
 Gap=     0.636 Goal=   None    Shift=    0.000
 RMSDP=1.41D-05 MaxDP=2.89D-04 DE=-5.08D-05 OVMax= 6.89D-04

 Cycle   6  Pass 1  IDiag  1:
 E= -152.107091580497     Delta-E=       -0.000002850431 Rises=F Damp=F
 DIIS: error= 2.88D-05 at cycle   6 NSaved=   6.
 NSaved= 6 IEnMin= 6 EnMin= -152.107091580497     IErMin= 6 ErrMin= 2.88D-05
 ErrMax= 2.88D-05  0.00D+00 EMaxC= 1.00D-01 BMatC= 3.45D-08 BMatP= 1.37D-06
 IDIUse=1 WtCom= 1.00D+00 WtEn= 0.00D+00
 Coeff-Com: -0.276D-03 0.160D-02 0.688D-02 0.826D-03-0.261D+00 0.125D+01
 Coeff:     -0.276D-03 0.160D-02 0.688D-02 0.826D-03-0.261D+00 0.125D+01
 Gap=     0.636 Goal=   None    Shift=    0.000
 RMSDP=3.02D-06 MaxDP=6.62D-05 DE=-2.85D-06 OVMax= 1.54D-04

 Cycle   7  Pass 1  IDiag  1:
 E= -152.107091678101     Delta-E=       -0.000000097604 Rises=F Damp=F
 DIIS: error= 5.39D-06 at cycle   7 NSaved=   7.
 NSaved= 7 IEnMin= 7 EnMin= -152.107091678101     IErMin= 7 ErrMin= 5.39D-06
 ErrMax= 5.39D-06  0.00D+00 EMaxC= 1.00D-01 BMatC= 1.82D-09 BMatP= 3.45D-08
 IDIUse=1 WtCom= 1.00D+00 WtEn= 0.00D+00
 Coeff-Com:  0.280D-04-0.377D-03-0.151D-02 0.138D-01-0.159D-01-0.213D+00
 Coeff-Com:  0.122D+01
 Coeff:      0.280D-04-0.377D-03-0.151D-02 0.138D-01-0.159D-01-0.213D+00
 Coeff:      0.122D+01
 Gap=     0.636 Goal=   None    Shift=    0.000
 RMSDP=4.40D-07 MaxDP=9.21D-06 DE=-9.76D-08 OVMax= 3.04D-05

 Cycle   8  Pass 1  IDiag  1:
 E= -152.107091681906     Delta-E=       -0.000000003805 Rises=F Damp=F
 DIIS: error= 1.61D-06 at cycle   8 NSaved=   8.
 NSaved= 8 IEnMin= 8 EnMin= -152.107091681906     IErMin= 8 ErrMin= 1.61D-06
 ErrMax= 1.61D-06  0.00D+00 EMaxC= 1.00D-01 BMatC= 1.22D-10 BMatP= 1.82D-09
 IDIUse=1 WtCom= 1.00D+00 WtEn= 0.00D+00
 Coeff-Com:  0.114D-04-0.381D-04-0.146D-03-0.216D-02 0.172D-01-0.398D-01
 Coeff-Com: -0.147D+00 0.117D+01
 Coeff:      0.114D-04-0.381D-04-0.146D-03-0.216D-02 0.172D-01-0.398D-01
 Coeff:     -0.147D+00 0.117D+01
 Gap=     0.636 Goal=   None    Shift=    0.000
 RMSDP=1.04D-07 MaxDP=2.50D-06 DE=-3.81D-09 OVMax= 6.84D-06

 Cycle   9  Pass 1  IDiag  1:
 E= -152.107091682134     Delta-E=       -0.000000000227 Rises=F Damp=F
 DIIS: error= 5.07D-07 at cycle   9 NSaved=   9.
 NSaved= 9 IEnMin= 9 EnMin= -152.107091682134     IErMin= 9 ErrMin= 5.07D-07
 ErrMax= 5.07D-07  0.00D+00 EMaxC= 1.00D-01 BMatC= 2.21D-11 BMatP= 1.22D-10
 IDIUse=1 WtCom= 1.00D+00 WtEn= 0.00D+00
 Coeff-Com:  0.798D-06 0.297D-04 0.123D-03-0.237D-02 0.820D-02 0.831D-02
 Coeff-Com: -0.177D+00 0.377D+00 0.785D+00
 Coeff:      0.798D-06 0.297D-04 0.123D-03-0.237D-02 0.820D-02 0.831D-02
 Coeff:     -0.177D+00 0.377D+00 0.785D+00
 Gap=     0.636 Goal=   None    Shift=    0.000
 RMSDP=2.72D-08 MaxDP=6.12D-07 DE=-2.27D-10 OVMax= 1.79D-06

 Cycle  10  Pass 1  IDiag  1:
 E= -152.107091682155     Delta-E=       -0.000000000022 Rises=F Damp=F
 DIIS: error= 1.02D-07 at cycle  10 NSaved=  10.
 NSaved=10 IEnMin=10 EnMin= -152.107091682155     IErMin=10 ErrMin= 1.02D-07
 ErrMax= 1.02D-07  0.00D+00 EMaxC= 1.00D-01 BMatC= 4.94D-13 BMatP= 2.21D-11
 IDIUse=1 WtCom= 1.00D+00 WtEn= 0.00D+00
 Coeff-Com: -0.615D-06-0.431D-05-0.209D-04 0.560D-03-0.205D-02-0.179D-02
 Coeff-Com:  0.507D-01-0.151D+00-0.189D+00 0.129D+01
 Coeff:     -0.615D-06-0.431D-05-0.209D-04 0.560D-03-0.205D-02-0.179D-02
 Coeff:      0.507D-01-0.151D+00-0.189D+00 0.129D+01
 Gap=     0.636 Goal=   None    Shift=    0.000
 RMSDP=7.40D-09 MaxDP=2.09D-07 DE=-2.16D-11 OVMax= 4.43D-07

 SCF Done:  E(RHF) =  -152.107091682     A.U. after   10 cycles
            NFock= 10  Conv=0.74D-08     -V/T= 2.0020
 KE= 1.518049538009D+02 PE=-4.157338533355D+02 EE= 8.470023956324D+01
 Leave Link  502 at Sat Aug 27 02:53:30 2022, MaxMem=   536870912 cpu:               4.0 elap:               1.1
 (Enter /usr/site/hpc/x86_64/glibc-2.17/broadwell/gaussian/g16_a.03/pgi-16.5/g16/l801.exe)
 Windowed orbitals will be sorted by symmetry type.
 ExpMin= 1.03D-01 ExpMax= 1.53D+04 ExpMxC= 5.22D+02 IAcc=3 IRadAn=         5 AccDes= 0.00D+00
 HarFok:  IExCor=  205 AccDes= 0.00D+00 IRadAn=         5 IDoV=-2 UseB2=F ITyADJ=14
 ICtDFT= 12500011 ScaDFX=  1.000000  1.000000  1.000000  1.000000
 Largest valence mixing into a core orbital is  1.12D-04
 Largest core mixing into a valence orbital is  1.77D-05
 Range of M.O.s used for correlation:     3   116
 NBasis=   116 NAE=    10 NBE=    10 NFC=     2 NFV=     0
 NROrb=    114 NOA=     8 NOB=     8 NVA=   106 NVB=   106
 Leave Link  801 at Sat Aug 27 02:53:30 2022, MaxMem=   536870912 cpu:               0.3 elap:               0.1
 (Enter /usr/site/hpc/x86_64/glibc-2.17/broadwell/gaussian/g16_a.03/pgi-16.5/g16/l804.exe)
 Closed-shell transformation, MDV=   536870912 ITran=4 ISComp=2.
 Unit  1 TFree=        834515 TCopy=        406125.
 Semi-Direct transformation.
 ModeAB=           4 MOrb=             8 LenV=     536379533
 LASXX=      2873146 LTotXX=     2873146 LenRXX=     5831278
 LTotAB=     2958132 MaxLAS=     5091696 LenRXY=           0
 NonZer=     8704424 LenScr=    13107200 LnRSAI=     5091696
 LnScr1=     7864320 LExtra=           0 Total=     31894494
 MaxDsk=          -1 SrtSym=           T ITran=            4
 DoSDTr:  NPSUse=  4
 JobTyp=0 Pass  1:  I=   1 to   8.
 (rs|ai) integrals will be sorted in core.
 Complete sort for first half transformation.
 First half transformation complete.
 Complete sort for second half transformation.
 Second half transformation complete.
 Spin components of T(2) and E(2):
     alpha-alpha T2 =       0.1556262135D-01 E2=     -0.6380118877D-01
     alpha-beta  T2 =       0.9193144185D-01 E2=     -0.3983215719D+00
     beta-beta   T2 =       0.1556262135D-01 E2=     -0.6380118877D-01
 ANorm=    0.1059743688D+01
 E2 =    -0.5259239494D+00 EUMP2 =    -0.15263301563160D+03
 Leave Link  804 at Sat Aug 27 02:53:31 2022, MaxMem=   536870912 cpu:               3.0 elap:               0.8
 (Enter /usr/site/hpc/x86_64/glibc-2.17/broadwell/gaussian/g16_a.03/pgi-16.5/g16/l913.exe)
 CIDS:  MDV=   536870912.
 Frozen-core window:  NFC=   2 NFV=   0.
 IFCWin=0 IBDFC=1 NFBD=     0     0 NFCmp=     0     0 NFFFC=     0     0
 Using DD3R+UMP44R for 1st iteration.
 Using DD4RQ for 2nd and later iterations.
 Keep R2 and R3 ints in memory in symmetry-blocked form, NReq=35357534.
 FoFCou: FMM=F IPFlag=           0 FMFlag=           0 FMFlg1=           0
         NFxFlg=           0 DoJE=F BraDBF=F KetDBF=F FulRan=T
         wScrn=  0.000000 ICntrl=       600 IOpCl=  0 I1Cent=           0 NGrid=           0
         NMat0=    1 NMatS0=   6786 NMatT0=    0 NMatD0=    1 NMtDS0=    0 NMtDT0=    0
 Petite list used in FoFCou.
 CIDS: In Core Option IDoMem=           1.
 CCSD(T)
 =======
 Iterations=  50 Convergence= 0.100D-06
 Produce multiple copies of IABC intergrals
 Iteration Nr.   1
 **********************
 DD1Dir will call FoFMem   1 times, MxPair=        72
 NAB=    36 NAA=     0 NBB=     0.
 MP4(R+Q)=  0.75569440D-02
 Maximum subspace dimension=  5
 A-vector RMS=  1.7435557D-03 Max=  6.2083620D-03 conv= 1.00D-05.
 RLE energy=       -0.5258656039
 E3=       -0.75699206D-02        EUMP3=      -0.15264058555D+03
 E4(DQ)=   -0.15526117D-02        UMP4(DQ)=   -0.15264213816D+03
 E4(SDQ)=  -0.46109591D-02        UMP4(SDQ)=  -0.15264519651D+03
 VARIATIONAL ENERGIES WITH THE FIRST-ORDER WAVEFUNCTION:
 DE(Corr)= -0.52586561     E(Corr)=     -152.63295729    
 NORM(A)=   0.10601126D+01
 Iteration Nr.   2
 **********************
 DD1Dir will call FoFMem   1 times, MxPair=        72
 NAB=    36 NAA=     0 NBB=     0.
 A-vector RMS=  2.1219304D-04 Max=  2.3226905D-03 conv= 1.00D-05.
 RLE energy=       -0.5369326277
 DE(Corr)= -0.53577216     E(CORR)=     -152.64286385     Delta=-9.91D-03
 NORM(A)=   0.10638643D+01
 Iteration Nr.   3
 **********************
 DD1Dir will call FoFMem   1 times, MxPair=        72
 NAB=    36 NAA=     0 NBB=     0.
 A-vector RMS=  1.4154875D-04 Max=  8.6928229D-04 conv= 1.00D-05.
 RLE energy=       -0.5374287533
 DE(Corr)= -0.53684238     E(CORR)=     -152.64393406     Delta=-1.07D-03
 NORM(A)=   0.10645033D+01
 Iteration Nr.   4
 **********************
 DD1Dir will call FoFMem   1 times, MxPair=        72
 NAB=    36 NAA=     0 NBB=     0.
 A-vector RMS=  2.5908156D-05 Max=  1.4195606D-04 conv= 1.00D-05.
 RLE energy=       -0.5375119667
 DE(Corr)= -0.53747662     E(CORR)=     -152.64456830     Delta=-6.34D-04
 NORM(A)=   0.10646144D+01
 Iteration Nr.   5
 **********************
 DD1Dir will call FoFMem   1 times, MxPair=        72
 NAB=    36 NAA=     0 NBB=     0.
 A-vector RMS=  1.8846731D-05 Max=  1.6184011D-04 conv= 1.00D-05.
 RLE energy=       -0.5375203995
 DE(Corr)= -0.53751360     E(CORR)=     -152.64460528     Delta=-3.70D-05
 NORM(A)=   0.10646240D+01
 Iteration Nr.   6
 **********************
 DD1Dir will call FoFMem   1 times, MxPair=        72
 NAB=    36 NAA=     0 NBB=     0.
 A-vector RMS=  5.5554646D-06 Max=  4.2425550D-05 conv= 1.00D-05.
 RLE energy=       -0.5375111739
 DE(Corr)= -0.53751679     E(CORR)=     -152.64460847     Delta=-3.19D-06
 NORM(A)=   0.10646241D+01
 Iteration Nr.   7
 **********************
 DD1Dir will call FoFMem   1 times, MxPair=        72
 NAB=    36 NAA=     0 NBB=     0.
 A-vector RMS=  2.6665439D-06 Max=  2.3346438D-05 conv= 1.00D-05.
 RLE energy=       -0.5375179600
 DE(Corr)= -0.53751693     E(CORR)=     -152.64460861     Delta=-1.43D-07
 NORM(A)=   0.10646265D+01
 Iteration Nr.   8
 **********************
 DD1Dir will call FoFMem   1 times, MxPair=        72
 NAB=    36 NAA=     0 NBB=     0.
 A-vector RMS=  5.1897483D-07 Max=  4.3725371D-06 conv= 1.00D-05.
 RLE energy=       -0.5375163265
 DE(Corr)= -0.53751649     E(CORR)=     -152.64460818     Delta= 4.36D-07
 NORM(A)=   0.10646267D+01
 Iteration Nr.   9
 **********************
 DD1Dir will call FoFMem   1 times, MxPair=        72
 NAB=    36 NAA=     0 NBB=     0.
 A-vector RMS=  1.1662040D-07 Max=  8.4626158D-07 conv= 1.00D-05.
 RLE energy=       -0.5375168202
 DE(Corr)= -0.53751678     E(CORR)=     -152.64460847     Delta=-2.91D-07
 NORM(A)=   0.10646269D+01
 Iteration Nr.  10
 **********************
 DD1Dir will call FoFMem   1 times, MxPair=        72
 NAB=    36 NAA=     0 NBB=     0.
 A-vector RMS=  3.9846014D-08 Max=  3.3508723D-07 conv= 1.00D-05.
 RLE energy=       -0.5375167807
 DE(Corr)= -0.53751676     E(CORR)=     -152.64460844     Delta= 2.20D-08
 NORM(A)=   0.10646269D+01
 CI/CC converged in   10 iterations to DelEn= 2.20D-08 Conv= 1.00D-07 ErrA1= 3.98D-08 Conv= 1.00D-05
 Wavefunction amplitudes converged. E(Corr)=     -152.64460844    
 Largest amplitude= 4.79D-02
 IPart=  4 IA=    7   11.05% done.
 IPart=  3 IA=   13   21.46% done.
 IPart=  1 IA=   19   31.21% done.
 IPart=  4 IA=   25   40.32% done.
 IPart=  4 IA=   32   50.13% done.
 IPart=  3 IA=   40   60.27% done.
 IPart=  4 IA=   49   70.30% done.
 IPart=  1 IA=   60   80.58% done.
 IPart=  4 IA=   74   90.51% done.
 Time for triples=       65.87 seconds.
 T4(CCSD)= -0.16036710D-01
 T5(CCSD)=  0.40382980D-03
 CCSD(T)= -0.15266024133D+03
 Discarding MO integrals.
 Leave Link  913 at Sat Aug 27 02:53:54 2022, MaxMem=   536870912 cpu:              90.5 elap:              23.5
 (Enter /usr/site/hpc/x86_64/glibc-2.17/broadwell/gaussian/g16_a.03/pgi-16.5/g16/l601.exe)
 Copying SCF densities to generalized density rwf, IOpCl= 0 IROHF=0.

 **********************************************************************

            Population analysis using the SCF density.

 **********************************************************************

 Orbital symmetries:
       Occupied  (A') (A') (A') (A') (A') (A') (A') (A') (A") (A")
       Virtual   (A') (A') (A') (A') (A') (A') (A') (A') (A') (A')
                 (A") (A") (A') (A') (A') (A') (A") (A") (A") (A")
                 (A') (A') (A') (A') (A') (A') (A') (A') (A") (A")
                 (A") (A") (A') (A') (A') (A') (A') (A') (A') (A')
                 (A') (A') (A") (A") (A') (A') (A") (A") (A') (A')
                 (A") (A") (A') (A') (A') (A') (A") (A") (A") (A")
                 (A') (A') (A') (A') (A") (A") (A') (A') (A') (A')
                 (A") (A") (A') (A') (A') (A') (A') (A') (A') (A')
                 (A") (A") (A') (A') (A") (A") (A") (A") (A') (A')
                 (A") (A") (A') (A') (A') (A') (A") (A") (A') (A')
                 (A') (A') (A') (A') (A') (A')
 The electronic state is 1-A'.
 Alpha  occ. eigenvalues --  -20.55408 -20.55025  -1.32705  -1.32320  -0.70112
 Alpha  occ. eigenvalues --   -0.69718  -0.56137  -0.55752  -0.49814  -0.49431
 Alpha virt. eigenvalues --    0.14161   0.14690   0.20283   0.20730   0.54440
 Alpha virt. eigenvalues --    0.54863   0.57342   0.57725   0.67853   0.68712
 Alpha virt. eigenvalues --    0.79066   0.79442   0.80497   0.80883   0.82502
 Alpha virt. eigenvalues --    0.82823   0.84918   0.85300   0.97377   0.97751
 Alpha virt. eigenvalues --    1.14809   1.15395   1.17246   1.17646   1.51777
 Alpha virt. eigenvalues --    1.52057   1.52182   1.52477   2.00806   2.01188
 Alpha virt. eigenvalues --    2.06865   2.07255   2.09540   2.09959   2.14986
 Alpha virt. eigenvalues --    2.15380   2.25020   2.25652   2.61609   2.62004
 Alpha virt. eigenvalues --    2.92978   2.93391   3.39473   3.39862   3.50028
 Alpha virt. eigenvalues --    3.50417   3.53218   3.53602   3.59597   3.59989
 Alpha virt. eigenvalues --    3.78775   3.79159   3.85536   3.85929   3.87719
 Alpha virt. eigenvalues --    3.88104   3.93674   3.94063   4.03133   4.03515
 Alpha virt. eigenvalues --    4.08290   4.08677   4.15351   4.15762   4.30218
 Alpha virt. eigenvalues --    4.30602   4.40032   4.40424   4.45661   4.46053
 Alpha virt. eigenvalues --    4.66627   4.67009   4.80983   4.81376   5.04306
 Alpha virt. eigenvalues --    5.04715   5.24192   5.24585   5.54153   5.54543
 Alpha virt. eigenvalues --    5.98039   5.98423   6.40496   6.40878   6.86288
 Alpha virt. eigenvalues --    6.86675   6.89765   6.90152   6.94695   6.95083
 Alpha virt. eigenvalues --    6.99240   6.99625   7.07997   7.08392   7.12624
 Alpha virt. eigenvalues --    7.13006   7.18408   7.18796   7.47302   7.47699
 Alpha virt. eigenvalues --    7.70435   7.70825   8.15168   8.15557  12.49375
 Alpha virt. eigenvalues --   12.49775
          Condensed to atoms (all electrons):
               1          2          3          4          5          6
     1  O    7.815634   0.344790   0.346610  -0.000000  -0.000000   0.000006
     2  H    0.344790   0.439854  -0.036629   0.000000   0.000000  -0.000000
     3  H    0.346610  -0.036629   0.434956   0.000000   0.000000  -0.000000
     4  O   -0.000000   0.000000   0.000000   7.815792   0.344234   0.346672
     5  H   -0.000000   0.000000   0.000000   0.344234   0.441674  -0.036711
     6  H    0.000006  -0.000000  -0.000000   0.346672  -0.036711   0.434148
 Mulliken charges:
               1
     1  O   -0.507040
     2  H    0.251986
     3  H    0.255063
     4  O   -0.506698
     5  H    0.250803
     6  H    0.255886
 Sum of Mulliken charges =   0.00000
 Mulliken charges with hydrogens summed into heavy atoms:
               1
     1  O    0.000009
     4  O   -0.000009
 Electronic spatial extent (au):  <R**2>=            614.7513
 Charge=              0.0000 electrons
 Dipole moment (field-independent basis, Debye):
    X=             -1.6295    Y=             -0.8890    Z=              0.0000  Tot=              1.8562
 Quadrupole moment (field-independent basis, Debye-Ang):
   XX=             -9.2249   YY=              6.6409   ZZ=            -14.7115
   XY=             -3.8183   XZ=              0.0000   YZ=              0.0000
 Traceless Quadrupole moment (field-independent basis, Debye-Ang):
   XX=             -3.4597   YY=             12.4060   ZZ=             -8.9463
   XY=             -3.8183   XZ=              0.0000   YZ=              0.0000
 Octapole moment (field-independent basis, Debye-Ang**2):
  XXX=             -1.5489  YYY=             -7.5978  ZZZ=              0.0000  XYY=             -7.4912
  XXY=             -6.1374  XXZ=              0.0000  XZZ=             -0.2128  YZZ=             -0.1211
  YYZ=              0.0000  XYZ=              0.0000
 Hexadecapole moment (field-independent basis, Debye-Ang**3):
 XXXX=            -11.2555 YYYY=           -225.1246 ZZZZ=            -11.3349 XXXY=             -1.0844
 XXXZ=              0.0000 YYYX=            -15.3558 YYYZ=              0.0000 ZZZX=              0.0000
 ZZZY=              0.0000 XXYY=            -74.6276 XXZZ=             -4.4413 YYZZ=           -123.3341
 XXYZ=              0.0000 YYXZ=              0.0000 ZZXY=              1.2583
 N-N= 2.712156828924D+01 E-N=-4.157338520285D+02  KE= 1.518049538009D+02
 Symmetry A'   KE= 1.427674468471D+02
 Symmetry A"   KE= 9.037506953740D+00
 Leave Link  601 at Sat Aug 27 02:53:55 2022, MaxMem=   536870912 cpu:               0.3 elap:               0.1
 (Enter /usr/site/hpc/x86_64/glibc-2.17/broadwell/gaussian/g16_a.03/pgi-16.5/g16/l9999.exe)
 1\1\GINC-N003\SP\RCCSD(T)-FC\CC-pVTZ\H4O2\C7441284\27-Aug-2022\0\\#p C
 CSD(T)/cc-pVTZ\\H2O_H2O_3740\\0,1\O,0,0.,-0.009833,0.\H,0,-0.799571,-0
 .580965,0.\H,0,0.799571,-0.580965,0.\O,0,-0.008176,5.555176,0.\H,0,-0.
 038837,6.537299,0.\H,0,-0.927273,5.207661,0.\\Version=ES64L-G16RevA.03
 \State=1-A'\HF=-152.1070917\MP2=-152.6330156\MP3=-152.6405856\MP4D=-15
 2.6496951\MP4DQ=-152.6421382\MP4SDQ=-152.6451965\CCSD=-152.6446084\CCS
 D(T)=-152.6602413\RMSD=7.396e-09\PG=CS [SG(H4O2)]\\@


 It takes a long time to grow an old friend.
                            -- John Leonard
 Job cpu time:       0 days  0 hours  1 minutes 41.0 seconds.
 Elapsed time:       0 days  0 hours  0 minutes 26.3 seconds.
 File lengths (MBytes):  RWF=    312 Int=      0 D2E=      0 Chk=      8 Scr=      8
 Normal termination of Gaussian 16 at Sat Aug 27 02:53:55 2022.
