 Entering Gaussian System, Link 0=g16
 Input=H2O_H2O_2357.com
 Output=H2O_H2O_2357.log
 Initial command:
 /usr/site/hpc/x86_64/glibc-2.17/broadwell/gaussian/g16_a.03/pgi-16.5/g16/l1.exe "/gpfs/gpfs1/scratch/c7441284/ForceFieldModel/FittingData/Gau-3799619.inp" -scrdir="/gpfs/gpfs1/scratch/c7441284/ForceFieldModel/FittingData/"
 Entering Link 1 = /usr/site/hpc/x86_64/glibc-2.17/broadwell/gaussian/g16_a.03/pgi-16.5/g16/l1.exe PID=   3799620.
  
 Copyright (c) 1988,1990,1992,1993,1995,1998,2003,2009,2016,
            Gaussian, Inc.  All Rights Reserved.
  
 This is part of the Gaussian(R) 16 program.  It is based on
 the Gaussian(R) 09 system (copyright 2009, Gaussian, Inc.),
 the Gaussian(R) 03 system (copyright 2003, Gaussian, Inc.),
 the Gaussian(R) 98 system (copyright 1998, Gaussian, Inc.),
 the Gaussian(R) 94 system (copyright 1995, Gaussian, Inc.),
 the Gaussian 92(TM) system (copyright 1992, Gaussian, Inc.),
 the Gaussian 90(TM) system (copyright 1990, Gaussian, Inc.),
 the Gaussian 88(TM) system (copyright 1988, Gaussian, Inc.),
 the Gaussian 86(TM) system (copyright 1986, Carnegie Mellon
 University), and the Gaussian 82(TM) system (copyright 1983,
 Carnegie Mellon University). Gaussian is a federally registered
 trademark of Gaussian, Inc.
  
 This software contains proprietary and confidential information,
 including trade secrets, belonging to Gaussian, Inc.
  
 This software is provided under written license and may be
 used, copied, transmitted, or stored only in accord with that
 written license.
  
 The following legend is applicable only to US Government
 contracts under FAR:
  
                    RESTRICTED RIGHTS LEGEND
  
 Use, reproduction and disclosure by the US Government is
 subject to restrictions as set forth in subparagraphs (a)
 and (c) of the Commercial Computer Software - Restricted
 Rights clause in FAR 52.227-19.
  
 Gaussian, Inc.
 340 Quinnipiac St., Bldg. 40, Wallingford CT 06492
  
  
 ---------------------------------------------------------------
 Warning -- This program may not be used in any manner that
 competes with the business of Gaussian, Inc. or will provide
 assistance to any competitor of Gaussian, Inc.  The licensee
 of this program is prohibited from giving any competitor of
 Gaussian, Inc. access to this program.  By using this program,
 the user acknowledges that Gaussian, Inc. is engaged in the
 business of creating and licensing software in the field of
 computational chemistry and represents and warrants to the
 licensee that it is not a competitor of Gaussian, Inc. and that
 it will not use this program in any manner prohibited above.
 ---------------------------------------------------------------
  

 Cite this work as:
 Gaussian 16, Revision A.03,
 M. J. Frisch, G. W. Trucks, H. B. Schlegel, G. E. Scuseria, 
 M. A. Robb, J. R. Cheeseman, G. Scalmani, V. Barone, 
 G. A. Petersson, H. Nakatsuji, X. Li, M. Caricato, A. V. Marenich, 
 J. Bloino, B. G. Janesko, R. Gomperts, B. Mennucci, H. P. Hratchian, 
 J. V. Ortiz, A. F. Izmaylov, J. L. Sonnenberg, D. Williams-Young, 
 F. Ding, F. Lipparini, F. Egidi, J. Goings, B. Peng, A. Petrone, 
 T. Henderson, D. Ranasinghe, V. G. Zakrzewski, J. Gao, N. Rega, 
 G. Zheng, W. Liang, M. Hada, M. Ehara, K. Toyota, R. Fukuda, 
 J. Hasegawa, M. Ishida, T. Nakajima, Y. Honda, O. Kitao, H. Nakai, 
 T. Vreven, K. Throssell, J. A. Montgomery, Jr., J. E. Peralta, 
 F. Ogliaro, M. J. Bearpark, J. J. Heyd, E. N. Brothers, K. N. Kudin, 
 V. N. Staroverov, T. A. Keith, R. Kobayashi, J. Normand, 
 K. Raghavachari, A. P. Rendell, J. C. Burant, S. S. Iyengar, 
 J. Tomasi, M. Cossi, J. M. Millam, M. Klene, C. Adamo, R. Cammi, 
 J. W. Ochterski, R. L. Martin, K. Morokuma, O. Farkas, 
 J. B. Foresman, and D. J. Fox, Gaussian, Inc., Wallingford CT, 2016.
 
 ******************************************
 Gaussian 16:  ES64L-G16RevA.03 25-Dec-2016
                27-Aug-2022 
 ******************************************
 %NProcShared=4
 Will use up to    4 processors via shared memory.
 %Mem=4GB
 %Chk=H2O_H2O_2357.chk
 ------------------
 #p CCSD(T)/cc-pVTZ
 ------------------
 1/38=1,172=1/1;
 2/12=2,17=6,18=5,40=1/2;
 3/5=16,6=1,11=9,25=1,30=1/1,2,3;
 4//1;
 5/5=2,38=5/2;
 8/6=4,9=120000,10=1/1,4;
 9/5=7,14=2/13;
 6/7=2,8=2,9=2,10=2/1;
 99/5=1,9=1/99;
 Leave Link    1 at Sat Aug 27 10:06:26 2022, MaxMem=   536870912 cpu:               0.3 elap:               0.1
 (Enter /usr/site/hpc/x86_64/glibc-2.17/broadwell/gaussian/g16_a.03/pgi-16.5/g16/l101.exe)
 ------------
 H2O_H2O_2357
 ------------
 Symbolic Z-matrix:
 Charge =  0 Multiplicity = 1
 O                     0.       -0.00983   0. 
 H                    -0.79957  -0.58097   0. 
 H                     0.79957  -0.58097   0. 
 O                    -0.00435   4.09598   0. 
 H                     0.46016   4.96186   0. 
 H                    -0.97407   4.25457   0. 
 
 ITRead=  0  0  0  0  0  0
 MicOpt= -1 -1 -1 -1 -1 -1
 NAtoms=      6 NQM=        6 NQMF=       0 NMMI=      0 NMMIF=      0
                NMic=       0 NMicF=      0.
                    Isotopes and Nuclear Properties:
 (Nuclear quadrupole moments (NQMom) in fm**2, nuclear magnetic moments (NMagM)
  in nuclear magnetons)

  Atom         1           2           3           4           5           6
 IAtWgt=          16           1           1          16           1           1
 AtmWgt=  15.9949146   1.0078250   1.0078250  15.9949146   1.0078250   1.0078250
 NucSpn=           0           1           1           0           1           1
 AtZEff=  -0.0000000  -0.0000000  -0.0000000  -0.0000000  -0.0000000  -0.0000000
 NQMom=    0.0000000   0.0000000   0.0000000   0.0000000   0.0000000   0.0000000
 NMagM=    0.0000000   2.7928460   2.7928460   0.0000000   2.7928460   2.7928460
 AtZNuc=   8.0000000   1.0000000   1.0000000   8.0000000   1.0000000   1.0000000
 Leave Link  101 at Sat Aug 27 10:06:26 2022, MaxMem=   536870912 cpu:               0.3 elap:               0.1
 (Enter /usr/site/hpc/x86_64/glibc-2.17/broadwell/gaussian/g16_a.03/pgi-16.5/g16/l202.exe)
                          Input orientation:                          
 ---------------------------------------------------------------------
 Center     Atomic      Atomic             Coordinates (Angstroms)
 Number     Number       Type             X           Y           Z
 ---------------------------------------------------------------------
      1          8           0        0.000000   -0.009833    0.000000
      2          1           0       -0.799571   -0.580965    0.000000
      3          1           0        0.799571   -0.580965    0.000000
      4          8           0       -0.004349    4.095982    0.000000
      5          1           0        0.460159    4.961856    0.000000
      6          1           0       -0.974068    4.254573    0.000000
 ---------------------------------------------------------------------
                    Distance matrix (angstroms):
                    1          2          3          4          5
     1  O    0.000000
     2  H    0.982601   0.000000
     3  H    0.982601   1.599142   0.000000
     4  O    4.105817   4.744071   4.745537   0.000000
     5  H    4.992939   5.684170   5.553203   0.982601   0.000000
     6  H    4.374239   4.838685   5.150556   0.982602   1.599142
                    6
     6  H    0.000000
 Stoichiometry    H4O2
 Framework group  CS[SG(H4O2)]
 Deg. of freedom     9
 Full point group                 CS      NOp   2
 Largest Abelian subgroup         CS      NOp   2
 Largest concise Abelian subgroup C1      NOp   1
                         Standard orientation:                         
 ---------------------------------------------------------------------
 Center     Atomic      Atomic             Coordinates (Angstroms)
 Number     Number       Type             X           Y           Z
 ---------------------------------------------------------------------
      1          8           0        0.025267   -2.047045    0.000000
      2          1           0       -0.774909   -2.617330    0.000000
      3          1           0        0.824232   -2.619024    0.000000
      4          8           0        0.025267    2.058772    0.000000
      5          1           0        0.490692    2.924153    0.000000
      6          1           0       -0.944284    2.218390    0.000000
 ---------------------------------------------------------------------
 Rotational constants (GHZ):         206.8516221           3.1154284           3.0692026
 Leave Link  202 at Sat Aug 27 10:06:26 2022, MaxMem=   536870912 cpu:               0.1 elap:               0.0
 (Enter /usr/site/hpc/x86_64/glibc-2.17/broadwell/gaussian/g16_a.03/pgi-16.5/g16/l301.exe)
 Standard basis: CC-pVTZ (5D, 7F)
 Ernie: Thresh=  0.10000D-02 Tol=  0.10000D-05 Strict=F.
 Ernie:  6 primitive shells out of 84 were deleted.
 There are    92 symmetry adapted cartesian basis functions of A'  symmetry.
 There are    38 symmetry adapted cartesian basis functions of A"  symmetry.
 There are    80 symmetry adapted basis functions of A'  symmetry.
 There are    36 symmetry adapted basis functions of A"  symmetry.
   116 basis functions,   172 primitive gaussians,   130 cartesian basis functions
    10 alpha electrons       10 beta electrons
       nuclear repulsion energy        30.1445842033 Hartrees.
 IExCor=    0 DFT=F Ex=HF Corr=None ExCW=0 ScaHFX=  1.000000
 ScaDFX=  1.000000  1.000000  1.000000  1.000000 ScalE2=  1.000000  1.000000
 IRadAn=      5 IRanWt=     -1 IRanGd=            0 ICorTp=0 IEmpDi=  4
 NAtoms=    6 NActive=    6 NUniq=    6 SFac= 1.00D+00 NAtFMM=   60 NAOKFM=F Big=F
 Integral buffers will be    131072 words long.
 Raffenetti 1 integral format.
 Two-electron integral symmetry is turned on.
 Leave Link  301 at Sat Aug 27 10:06:26 2022, MaxMem=   536870912 cpu:               0.2 elap:               0.1
 (Enter /usr/site/hpc/x86_64/glibc-2.17/broadwell/gaussian/g16_a.03/pgi-16.5/g16/l302.exe)
 NPDir=0 NMtPBC=     1 NCelOv=     1 NCel=       1 NClECP=     1 NCelD=      1
         NCelK=      1 NCelE2=     1 NClLst=     1 CellRange=     0.0.
 One-electron integrals computed using PRISM.
 One-electron integral symmetry used in STVInt
 NBasis=   116 RedAO= T EigKep=  2.51D-03  NBF=    80    36
 NBsUse=   116 1.00D-06 EigRej= -1.00D+00 NBFU=    80    36
 Leave Link  302 at Sat Aug 27 10:06:26 2022, MaxMem=   536870912 cpu:               0.4 elap:               0.1
 (Enter /usr/site/hpc/x86_64/glibc-2.17/broadwell/gaussian/g16_a.03/pgi-16.5/g16/l303.exe)
 DipDrv:  MaxL=1.
 Leave Link  303 at Sat Aug 27 10:06:26 2022, MaxMem=   536870912 cpu:               0.1 elap:               0.0
 (Enter /usr/site/hpc/x86_64/glibc-2.17/broadwell/gaussian/g16_a.03/pgi-16.5/g16/l401.exe)
 ExpMin= 1.03D-01 ExpMax= 1.53D+04 ExpMxC= 5.22D+02 IAcc=3 IRadAn=         5 AccDes= 0.00D+00
 Harris functional with IExCor=  205 and IRadAn=       5 diagonalized for initial guess.
 HarFok:  IExCor=  205 AccDes= 0.00D+00 IRadAn=         5 IDoV= 1 UseB2=F ITyADJ=14
 ICtDFT=  3500011 ScaDFX=  1.000000  1.000000  1.000000  1.000000
 FoFCou: FMM=F IPFlag=           0 FMFlag=      100000 FMFlg1=           0
         NFxFlg=           0 DoJE=T BraDBF=F KetDBF=T FulRan=T
         wScrn=  0.000000 ICntrl=       500 IOpCl=  0 I1Cent=   200000004 NGrid=           0
         NMat0=    1 NMatS0=      1 NMatT0=    0 NMatD0=    1 NMtDS0=    0 NMtDT0=    0
 Petite list used in FoFCou.
 Harris En= -152.298833723812    
 JPrj=0 DoOrth=F DoCkMO=F.
 Initial guess orbital symmetries:
       Occupied  (A') (A') (A') (A') (A') (A') (A') (A') (A") (A")
       Virtual   (A') (A') (A') (A') (A') (A') (A') (A') (A') (A')
                 (A") (A") (A') (A') (A') (A") (A") (A') (A") (A")
                 (A') (A') (A') (A') (A') (A') (A') (A') (A") (A")
                 (A") (A") (A') (A') (A') (A') (A') (A') (A') (A')
                 (A') (A') (A") (A") (A') (A') (A") (A") (A") (A")
                 (A') (A') (A') (A') (A') (A') (A") (A") (A') (A')
                 (A') (A') (A") (A") (A") (A") (A') (A') (A') (A')
                 (A") (A") (A') (A') (A') (A') (A') (A') (A') (A')
                 (A") (A") (A') (A') (A") (A") (A") (A") (A') (A')
                 (A") (A") (A') (A') (A') (A') (A") (A") (A') (A')
                 (A') (A') (A') (A') (A') (A')
 The electronic state of the initial guess is 1-A'.
 Leave Link  401 at Sat Aug 27 10:06:26 2022, MaxMem=   536870912 cpu:               0.7 elap:               0.2
 (Enter /usr/site/hpc/x86_64/glibc-2.17/broadwell/gaussian/g16_a.03/pgi-16.5/g16/l502.exe)
 Keep R1 ints in memory in symmetry-blocked form, NReq=34823457.
 FoFCou: FMM=F IPFlag=           0 FMFlag=           0 FMFlg1=           0
         NFxFlg=           0 DoJE=F BraDBF=F KetDBF=F FulRan=T
         wScrn=  0.000000 ICntrl=       600 IOpCl=  0 I1Cent=           0 NGrid=           0
         NMat0=    1 NMatS0=   6786 NMatT0=    0 NMatD0=    1 NMtDS0=    0 NMtDT0=    0
 Petite list used in FoFCou.
 Closed shell SCF:
 Using DIIS extrapolation, IDIIS=  1040.
 NGot=   536870912 LenX=   525040673 LenY=   525023332
 Requested convergence on RMS density matrix=1.00D-08 within 128 cycles.
 Requested convergence on MAX density matrix=1.00D-06.
 Requested convergence on             energy=1.00D-06.
 No special actions if energy rises.

 Cycle   1  Pass 1  IDiag  1:
 E= -151.923220719002    
 DIIS: error= 6.60D-02 at cycle   1 NSaved=   1.
 NSaved= 1 IEnMin= 1 EnMin= -151.923220719002     IErMin= 1 ErrMin= 6.60D-02
 ErrMax= 6.60D-02  0.00D+00 EMaxC= 1.00D-01 BMatC= 4.02D-01 BMatP= 4.02D-01
 IDIUse=3 WtCom= 3.40D-01 WtEn= 6.60D-01
 Coeff-Com:  0.100D+01
 Coeff-En:   0.100D+01
 Coeff:      0.100D+01
 Gap=     0.510 Goal=   None    Shift=    0.000
 GapD=    0.510 DampG=2.000 DampE=0.500 DampFc=1.0000 IDamp=-1.
 RMSDP=2.56D-03 MaxDP=6.58D-02              OVMax= 1.29D-01

 Cycle   2  Pass 1  IDiag  1:
 E= -152.035581376329     Delta-E=       -0.112360657327 Rises=F Damp=F
 DIIS: error= 4.18D-02 at cycle   2 NSaved=   2.
 NSaved= 2 IEnMin= 2 EnMin= -152.035581376329     IErMin= 2 ErrMin= 4.18D-02
 ErrMax= 4.18D-02  0.00D+00 EMaxC= 1.00D-01 BMatC= 1.15D-01 BMatP= 4.02D-01
 IDIUse=3 WtCom= 5.82D-01 WtEn= 4.18D-01
 Coeff-Com:  0.321D+00 0.679D+00
 Coeff-En:   0.170D+00 0.830D+00
 Coeff:      0.258D+00 0.742D+00
 Gap=     0.655 Goal=   None    Shift=    0.000
 RMSDP=1.36D-03 MaxDP=3.95D-02 DE=-1.12D-01 OVMax= 5.77D-02

 Cycle   3  Pass 1  IDiag  1:
 E= -152.101731091212     Delta-E=       -0.066149714882 Rises=F Damp=F
 DIIS: error= 9.01D-03 at cycle   3 NSaved=   3.
 NSaved= 3 IEnMin= 3 EnMin= -152.101731091212     IErMin= 3 ErrMin= 9.01D-03
 ErrMax= 9.01D-03  0.00D+00 EMaxC= 1.00D-01 BMatC= 6.04D-03 BMatP= 1.15D-01
 IDIUse=3 WtCom= 9.10D-01 WtEn= 9.01D-02
 Coeff-Com: -0.307D-01 0.155D+00 0.876D+00
 Coeff-En:   0.000D+00 0.000D+00 0.100D+01
 Coeff:     -0.280D-01 0.141D+00 0.887D+00
 Gap=     0.627 Goal=   None    Shift=    0.000
 RMSDP=2.51D-04 MaxDP=5.66D-03 DE=-6.61D-02 OVMax= 1.36D-02

 Cycle   4  Pass 1  IDiag  1:
 E= -152.105513043407     Delta-E=       -0.003781952195 Rises=F Damp=F
 DIIS: error= 8.69D-04 at cycle   4 NSaved=   4.
 NSaved= 4 IEnMin= 4 EnMin= -152.105513043407     IErMin= 4 ErrMin= 8.69D-04
 ErrMax= 8.69D-04  0.00D+00 EMaxC= 1.00D-01 BMatC= 3.90D-05 BMatP= 6.04D-03
 IDIUse=3 WtCom= 9.91D-01 WtEn= 8.69D-03
 Coeff-Com:  0.679D-02-0.611D-01-0.238D+00 0.129D+01
 Coeff-En:   0.000D+00 0.000D+00 0.000D+00 0.100D+01
 Coeff:      0.673D-02-0.605D-01-0.236D+00 0.129D+01
 Gap=     0.630 Goal=   None    Shift=    0.000
 RMSDP=5.32D-05 MaxDP=1.04D-03 DE=-3.78D-03 OVMax= 2.36D-03

 Cycle   5  Pass 1  IDiag  1:
 E= -152.105565651315     Delta-E=       -0.000052607908 Rises=F Damp=F
 DIIS: error= 1.97D-04 at cycle   5 NSaved=   5.
 NSaved= 5 IEnMin= 5 EnMin= -152.105565651315     IErMin= 5 ErrMin= 1.97D-04
 ErrMax= 1.97D-04  0.00D+00 EMaxC= 1.00D-01 BMatC= 1.41D-06 BMatP= 3.90D-05
 IDIUse=3 WtCom= 9.98D-01 WtEn= 1.97D-03
 Coeff-Com:  0.630D-03-0.202D-03-0.554D-02-0.205D+00 0.121D+01
 Coeff-En:   0.000D+00 0.000D+00 0.000D+00 0.000D+00 0.100D+01
 Coeff:      0.629D-03-0.202D-03-0.553D-02-0.205D+00 0.121D+01
 Gap=     0.631 Goal=   None    Shift=    0.000
 RMSDP=1.40D-05 MaxDP=2.87D-04 DE=-5.26D-05 OVMax= 6.96D-04

 Cycle   6  Pass 1  IDiag  1:
 E= -152.105568578000     Delta-E=       -0.000002926685 Rises=F Damp=F
 DIIS: error= 3.07D-05 at cycle   6 NSaved=   6.
 NSaved= 6 IEnMin= 6 EnMin= -152.105568578000     IErMin= 6 ErrMin= 3.07D-05
 ErrMax= 3.07D-05  0.00D+00 EMaxC= 1.00D-01 BMatC= 3.80D-08 BMatP= 1.41D-06
 IDIUse=1 WtCom= 1.00D+00 WtEn= 0.00D+00
 Coeff-Com: -0.293D-03 0.173D-02 0.745D-02-0.253D-02-0.260D+00 0.125D+01
 Coeff:     -0.293D-03 0.173D-02 0.745D-02-0.253D-02-0.260D+00 0.125D+01
 Gap=     0.631 Goal=   None    Shift=    0.000
 RMSDP=3.07D-06 MaxDP=6.83D-05 DE=-2.93D-06 OVMax= 1.60D-04

 Cycle   7  Pass 1  IDiag  1:
 E= -152.105568684168     Delta-E=       -0.000000106168 Rises=F Damp=F
 DIIS: error= 5.58D-06 at cycle   7 NSaved=   7.
 NSaved= 7 IEnMin= 7 EnMin= -152.105568684168     IErMin= 7 ErrMin= 5.58D-06
 ErrMax= 5.58D-06  0.00D+00 EMaxC= 1.00D-01 BMatC= 2.01D-09 BMatP= 3.80D-08
 IDIUse=1 WtCom= 1.00D+00 WtEn= 0.00D+00
 Coeff-Com:  0.309D-04-0.406D-03-0.163D-02 0.146D-01-0.154D-01-0.226D+00
 Coeff-Com:  0.123D+01
 Coeff:      0.309D-04-0.406D-03-0.163D-02 0.146D-01-0.154D-01-0.226D+00
 Coeff:      0.123D+01
 Gap=     0.631 Goal=   None    Shift=    0.000
 RMSDP=4.67D-07 MaxDP=1.05D-05 DE=-1.06D-07 OVMax= 3.09D-05

 Cycle   8  Pass 1  IDiag  1:
 E= -152.105568688383     Delta-E=       -0.000000004214 Rises=F Damp=F
 DIIS: error= 1.68D-06 at cycle   8 NSaved=   8.
 NSaved= 8 IEnMin= 8 EnMin= -152.105568688383     IErMin= 8 ErrMin= 1.68D-06
 ErrMax= 1.68D-06  0.00D+00 EMaxC= 1.00D-01 BMatC= 1.11D-10 BMatP= 2.01D-09
 IDIUse=1 WtCom= 1.00D+00 WtEn= 0.00D+00
 Coeff-Com:  0.738D-05 0.152D-04 0.748D-04-0.408D-02 0.187D-01-0.573D-02
 Coeff-Com: -0.312D+00 0.130D+01
 Coeff:      0.738D-05 0.152D-04 0.748D-04-0.408D-02 0.187D-01-0.573D-02
 Coeff:     -0.312D+00 0.130D+01
 Gap=     0.631 Goal=   None    Shift=    0.000
 RMSDP=1.13D-07 MaxDP=2.02D-06 DE=-4.21D-09 OVMax= 6.64D-06

 Cycle   9  Pass 1  IDiag  1:
 E= -152.105568688619     Delta-E=       -0.000000000236 Rises=F Damp=F
 DIIS: error= 3.78D-07 at cycle   9 NSaved=   9.
 NSaved= 9 IEnMin= 9 EnMin= -152.105568688619     IErMin= 9 ErrMin= 3.78D-07
 ErrMax= 3.78D-07  0.00D+00 EMaxC= 1.00D-01 BMatC= 1.22D-11 BMatP= 1.11D-10
 IDIUse=1 WtCom= 1.00D+00 WtEn= 0.00D+00
 Coeff-Com:  0.800D-06 0.270D-04 0.113D-03-0.216D-02 0.743D-02 0.818D-02
 Coeff-Com: -0.158D+00 0.396D+00 0.749D+00
 Coeff:      0.800D-06 0.270D-04 0.113D-03-0.216D-02 0.743D-02 0.818D-02
 Coeff:     -0.158D+00 0.396D+00 0.749D+00
 Gap=     0.631 Goal=   None    Shift=    0.000
 RMSDP=1.80D-08 MaxDP=3.98D-07 DE=-2.36D-10 OVMax= 1.23D-06

 Cycle  10  Pass 1  IDiag  1:
 E= -152.105568688631     Delta-E=       -0.000000000012 Rises=F Damp=F
 DIIS: error= 1.04D-07 at cycle  10 NSaved=  10.
 NSaved=10 IEnMin=10 EnMin= -152.105568688631     IErMin=10 ErrMin= 1.04D-07
 ErrMax= 1.04D-07  0.00D+00 EMaxC= 1.00D-01 BMatC= 6.17D-13 BMatP= 1.22D-11
 IDIUse=1 WtCom= 1.00D+00 WtEn= 0.00D+00
 Coeff-Com: -0.679D-06-0.410D-05-0.205D-04 0.567D-03-0.205D-02-0.213D-02
 Coeff-Com:  0.515D-01-0.182D+00-0.830D-01 0.122D+01
 Coeff:     -0.679D-06-0.410D-05-0.205D-04 0.567D-03-0.205D-02-0.213D-02
 Coeff:      0.515D-01-0.182D+00-0.830D-01 0.122D+01
 Gap=     0.631 Goal=   None    Shift=    0.000
 RMSDP=7.80D-09 MaxDP=2.21D-07 DE=-1.17D-11 OVMax= 4.80D-07

 SCF Done:  E(RHF) =  -152.105568689     A.U. after   10 cycles
            NFock= 10  Conv=0.78D-08     -V/T= 2.0020
 KE= 1.518060513509D+02 PE=-4.218914159839D+02 EE= 8.783521174106D+01
 Leave Link  502 at Sat Aug 27 10:06:27 2022, MaxMem=   536870912 cpu:               3.5 elap:               1.0
 (Enter /usr/site/hpc/x86_64/glibc-2.17/broadwell/gaussian/g16_a.03/pgi-16.5/g16/l801.exe)
 Windowed orbitals will be sorted by symmetry type.
 ExpMin= 1.03D-01 ExpMax= 1.53D+04 ExpMxC= 5.22D+02 IAcc=3 IRadAn=         5 AccDes= 0.00D+00
 HarFok:  IExCor=  205 AccDes= 0.00D+00 IRadAn=         5 IDoV=-2 UseB2=F ITyADJ=14
 ICtDFT= 12500011 ScaDFX=  1.000000  1.000000  1.000000  1.000000
 Largest valence mixing into a core orbital is  1.12D-04
 Largest core mixing into a valence orbital is  1.77D-05
 Range of M.O.s used for correlation:     3   116
 NBasis=   116 NAE=    10 NBE=    10 NFC=     2 NFV=     0
 NROrb=    114 NOA=     8 NOB=     8 NVA=   106 NVB=   106
 Leave Link  801 at Sat Aug 27 10:06:28 2022, MaxMem=   536870912 cpu:               0.3 elap:               0.1
 (Enter /usr/site/hpc/x86_64/glibc-2.17/broadwell/gaussian/g16_a.03/pgi-16.5/g16/l804.exe)
 Closed-shell transformation, MDV=   536870912 ITran=4 ISComp=2.
 Unit  1 TFree=        834515 TCopy=        406125.
 Semi-Direct transformation.
 ModeAB=           4 MOrb=             8 LenV=     536372378
 LASXX=      2873146 LTotXX=     2873146 LenRXX=     5831278
 LTotAB=     2958132 MaxLAS=     6266352 LenRXY=           0
 NonZer=     8704424 LenScr=    13107200 LnRSAI=     6266352
 LnScr1=     9437184 LExtra=           0 Total=     34642014
 MaxDsk=          -1 SrtSym=           T ITran=            4
 DoSDTr:  NPSUse=  4
 JobTyp=0 Pass  1:  I=   1 to   8.
 (rs|ai) integrals will be sorted in core.
 Complete sort for first half transformation.
 First half transformation complete.
 Complete sort for second half transformation.
 Second half transformation complete.
 Spin components of T(2) and E(2):
     alpha-alpha T2 =       0.1559334338D-01 E2=     -0.6384515898D-01
     alpha-beta  T2 =       0.9208372324D-01 E2=     -0.3985345139D+00
     beta-beta   T2 =       0.1559334338D-01 E2=     -0.6384515898D-01
 ANorm=    0.1059844522D+01
 E2 =    -0.5262248319D+00 EUMP2 =    -0.15263179352049D+03
 Leave Link  804 at Sat Aug 27 10:06:28 2022, MaxMem=   536870912 cpu:               3.2 elap:               0.8
 (Enter /usr/site/hpc/x86_64/glibc-2.17/broadwell/gaussian/g16_a.03/pgi-16.5/g16/l913.exe)
 CIDS:  MDV=   536870912.
 Frozen-core window:  NFC=   2 NFV=   0.
 IFCWin=0 IBDFC=1 NFBD=     0     0 NFCmp=     0     0 NFFFC=     0     0
 Using DD3R+UMP44R for 1st iteration.
 Using DD4RQ for 2nd and later iterations.
 Keep R2 and R3 ints in memory in symmetry-blocked form, NReq=35357534.
 FoFCou: FMM=F IPFlag=           0 FMFlag=           0 FMFlg1=           0
         NFxFlg=           0 DoJE=F BraDBF=F KetDBF=F FulRan=T
         wScrn=  0.000000 ICntrl=       600 IOpCl=  0 I1Cent=           0 NGrid=           0
         NMat0=    1 NMatS0=   6786 NMatT0=    0 NMatD0=    1 NMtDS0=    0 NMtDT0=    0
 Petite list used in FoFCou.
 CIDS: In Core Option IDoMem=           1.
 CCSD(T)
 =======
 Iterations=  50 Convergence= 0.100D-06
 Produce multiple copies of IABC intergrals
 Iteration Nr.   1
 **********************
 DD1Dir will call FoFMem   1 times, MxPair=        72
 NAB=    36 NAA=     0 NBB=     0.
 MP4(R+Q)=  0.75802011D-02
 Maximum subspace dimension=  5
 A-vector RMS=  1.7555387D-03 Max=  5.3654182D-03 conv= 1.00D-05.
 RLE energy=       -0.5261023817
 E3=       -0.75295206D-02        EUMP3=      -0.15263932304D+03
 E4(DQ)=   -0.15542507D-02        UMP4(DQ)=   -0.15264087729D+03
 E4(SDQ)=  -0.46328199D-02        UMP4(SDQ)=  -0.15264395586D+03
 VARIATIONAL ENERGIES WITH THE FIRST-ORDER WAVEFUNCTION:
 DE(Corr)= -0.52610236     E(Corr)=     -152.63167105    
 NORM(A)=   0.10602006D+01
 Iteration Nr.   2
 **********************
 DD1Dir will call FoFMem   1 times, MxPair=        72
 NAB=    36 NAA=     0 NBB=     0.
 A-vector RMS=  2.1213934D-04 Max=  1.4666215D-03 conv= 1.00D-05.
 RLE energy=       -0.5372035003
 DE(Corr)= -0.53604525     E(CORR)=     -152.64161394     Delta=-9.94D-03
 NORM(A)=   0.10639703D+01
 Iteration Nr.   3
 **********************
 DD1Dir will call FoFMem   1 times, MxPair=        72
 NAB=    36 NAA=     0 NBB=     0.
 A-vector RMS=  1.4399524D-04 Max=  1.0293638D-03 conv= 1.00D-05.
 RLE energy=       -0.5377019250
 DE(Corr)= -0.53711216     E(CORR)=     -152.64268085     Delta=-1.07D-03
 NORM(A)=   0.10646127D+01
 Iteration Nr.   4
 **********************
 DD1Dir will call FoFMem   1 times, MxPair=        72
 NAB=    36 NAA=     0 NBB=     0.
 A-vector RMS=  2.6995839D-05 Max=  1.4453560D-04 conv= 1.00D-05.
 RLE energy=       -0.5377849531
 DE(Corr)= -0.53774956     E(CORR)=     -152.64331825     Delta=-6.37D-04
 NORM(A)=   0.10647252D+01
 Iteration Nr.   5
 **********************
 DD1Dir will call FoFMem   1 times, MxPair=        72
 NAB=    36 NAA=     0 NBB=     0.
 A-vector RMS=  1.9362797D-05 Max=  1.9420968D-04 conv= 1.00D-05.
 RLE energy=       -0.5377940341
 DE(Corr)= -0.53778703     E(CORR)=     -152.64335572     Delta=-3.75D-05
 NORM(A)=   0.10647354D+01
 Iteration Nr.   6
 **********************
 DD1Dir will call FoFMem   1 times, MxPair=        72
 NAB=    36 NAA=     0 NBB=     0.
 A-vector RMS=  5.8044194D-06 Max=  5.4519381D-05 conv= 1.00D-05.
 RLE energy=       -0.5377846562
 DE(Corr)= -0.53779030     E(CORR)=     -152.64335898     Delta=-3.27D-06
 NORM(A)=   0.10647356D+01
 Iteration Nr.   7
 **********************
 DD1Dir will call FoFMem   1 times, MxPair=        72
 NAB=    36 NAA=     0 NBB=     0.
 A-vector RMS=  2.7555521D-06 Max=  2.9296137D-05 conv= 1.00D-05.
 RLE energy=       -0.5377912322
 DE(Corr)= -0.53779044     E(CORR)=     -152.64335913     Delta=-1.48D-07
 NORM(A)=   0.10647380D+01
 Iteration Nr.   8
 **********************
 DD1Dir will call FoFMem   1 times, MxPair=        72
 NAB=    36 NAA=     0 NBB=     0.
 A-vector RMS=  7.0527806D-07 Max=  8.4668152D-06 conv= 1.00D-05.
 RLE energy=       -0.5377898020
 DE(Corr)= -0.53778998     E(CORR)=     -152.64335867     Delta= 4.66D-07
 NORM(A)=   0.10647381D+01
 Iteration Nr.   9
 **********************
 DD1Dir will call FoFMem   1 times, MxPair=        72
 NAB=    36 NAA=     0 NBB=     0.
 A-vector RMS=  1.9441494D-07 Max=  2.2692771D-06 conv= 1.00D-05.
 RLE energy=       -0.5377901454
 DE(Corr)= -0.53779021     E(CORR)=     -152.64335890     Delta=-2.36D-07
 NORM(A)=   0.10647383D+01
 Iteration Nr.  10
 **********************
 DD1Dir will call FoFMem   1 times, MxPair=        72
 NAB=    36 NAA=     0 NBB=     0.
 A-vector RMS=  6.3482271D-08 Max=  6.4843257D-07 conv= 1.00D-05.
 RLE energy=       -0.5377902675
 DE(Corr)= -0.53779024     E(CORR)=     -152.64335893     Delta=-2.73D-08
 NORM(A)=   0.10647384D+01
 CI/CC converged in   10 iterations to DelEn=-2.73D-08 Conv= 1.00D-07 ErrA1= 6.35D-08 Conv= 1.00D-05
 Wavefunction amplitudes converged. E(Corr)=     -152.64335893    
 Largest amplitude= 3.02D-02
 IPart=  2 IA=    7   11.05% done.
 IPart=  2 IA=   13   21.46% done.
 IPart=  2 IA=   19   31.21% done.
 IPart=  4 IA=   25   40.32% done.
 IPart=  4 IA=   32   50.13% done.
 IPart=  4 IA=   40   60.27% done.
 IPart=  2 IA=   49   70.30% done.
 IPart=  3 IA=   60   80.58% done.
 IPart=  3 IA=   74   90.51% done.
 Time for triples=       45.97 seconds.
 T4(CCSD)= -0.16085204D-01
 T5(CCSD)=  0.40848154D-03
 CCSD(T)= -0.15265903565D+03
 Discarding MO integrals.
 Leave Link  913 at Sat Aug 27 10:06:45 2022, MaxMem=   536870912 cpu:              65.5 elap:              16.4
 (Enter /usr/site/hpc/x86_64/glibc-2.17/broadwell/gaussian/g16_a.03/pgi-16.5/g16/l601.exe)
 Copying SCF densities to generalized density rwf, IOpCl= 0 IROHF=0.

 **********************************************************************

            Population analysis using the SCF density.

 **********************************************************************

 Orbital symmetries:
       Occupied  (A') (A') (A') (A') (A') (A') (A') (A') (A") (A")
       Virtual   (A') (A') (A') (A') (A') (A') (A') (A') (A') (A')
                 (A") (A") (A') (A') (A') (A") (A") (A') (A") (A")
                 (A') (A') (A') (A') (A') (A') (A') (A') (A") (A")
                 (A") (A") (A') (A') (A') (A') (A') (A') (A') (A')
                 (A') (A') (A") (A") (A') (A') (A") (A") (A') (A')
                 (A") (A") (A') (A') (A') (A') (A") (A") (A") (A")
                 (A') (A') (A') (A') (A") (A") (A') (A') (A') (A')
                 (A") (A") (A') (A') (A') (A') (A') (A') (A') (A')
                 (A") (A") (A') (A') (A") (A") (A") (A") (A') (A')
                 (A") (A") (A') (A') (A') (A') (A") (A") (A') (A')
                 (A') (A') (A') (A') (A') (A')
 The electronic state is 1-A'.
 Alpha  occ. eigenvalues --  -20.54759 -20.54593  -1.32045  -1.31875  -0.69460
 Alpha  occ. eigenvalues --   -0.69283  -0.55462  -0.55149  -0.49146  -0.48975
 Alpha virt. eigenvalues --    0.14102   0.15548   0.20540   0.21136   0.54219
 Alpha virt. eigenvalues --    0.55715   0.57826   0.58091   0.63590   0.74113
 Alpha virt. eigenvalues --    0.79502   0.80110   0.80739   0.81177   0.82301
 Alpha virt. eigenvalues --    0.85469   0.85633   0.87571   0.97737   0.98475
 Alpha virt. eigenvalues --    1.15466   1.16178   1.17664   1.18733   1.52279
 Alpha virt. eigenvalues --    1.52529   1.52679   1.52870   2.01455   2.01709
 Alpha virt. eigenvalues --    2.07531   2.07705   2.08833   2.11346   2.15416
 Alpha virt. eigenvalues --    2.16213   2.23264   2.32207   2.62200   2.62469
 Alpha virt. eigenvalues --    2.93504   2.93980   3.40084   3.40255   3.50634
 Alpha virt. eigenvalues --    3.50803   3.53808   3.53975   3.60176   3.60401
 Alpha virt. eigenvalues --    3.79415   3.79588   3.86008   3.86334   3.87856
 Alpha virt. eigenvalues --    3.89593   3.94270   3.94440   4.03483   4.04169
 Alpha virt. eigenvalues --    4.08907   4.09087   4.15990   4.16208   4.30840
 Alpha virt. eigenvalues --    4.31007   4.40527   4.41265   4.46242   4.46467
 Alpha virt. eigenvalues --    4.67258   4.67432   4.81425   4.82146   5.04777
 Alpha virt. eigenvalues --    5.05518   5.24824   5.25201   5.54544   5.55481
 Alpha virt. eigenvalues --    5.98720   5.98886   6.41151   6.41316   6.86952
 Alpha virt. eigenvalues --    6.87123   6.90414   6.90584   6.95329   6.95528
 Alpha virt. eigenvalues --    6.99914   7.00113   7.08416   7.08945   7.12143
 Alpha virt. eigenvalues --    7.15710   7.19095   7.19266   7.47940   7.48310
 Alpha virt. eigenvalues --    7.70953   7.71653   8.15643   8.16301  12.49004
 Alpha virt. eigenvalues --   12.51758
          Condensed to atoms (all electrons):
               1          2          3          4          5          6
     1  O    7.812901   0.340351   0.343322   0.000267   0.000012   0.000117
     2  H    0.340351   0.448680  -0.035713   0.000023  -0.000002  -0.000012
     3  H    0.343322  -0.035713   0.441950   0.000030  -0.000002  -0.000008
     4  O    0.000267   0.000023   0.000030   7.812746   0.338754   0.344874
     5  H    0.000012  -0.000002  -0.000002   0.338754   0.451336  -0.036011
     6  H    0.000117  -0.000012  -0.000008   0.344874  -0.036011   0.440387
 Mulliken charges:
               1
     1  O   -0.496969
     2  H    0.246673
     3  H    0.250423
     4  O   -0.496694
     5  H    0.245914
     6  H    0.250653
 Sum of Mulliken charges =   0.00000
 Mulliken charges with hydrogens summed into heavy atoms:
               1
     1  O    0.000127
     4  O   -0.000127
 Electronic spatial extent (au):  <R**2>=            360.7176
 Charge=             -0.0000 electrons
 Dipole moment (field-independent basis, Debye):
    X=             -0.8553    Y=             -0.2116    Z=              0.0000  Tot=              0.8811
 Quadrupole moment (field-independent basis, Debye-Ang):
   XX=             -8.2278   YY=              3.8422   ZZ=            -14.7100
   XY=             -1.0994   XZ=              0.0000   YZ=              0.0000
 Traceless Quadrupole moment (field-independent basis, Debye-Ang):
   XX=             -1.8626   YY=             10.2074   ZZ=             -8.3448
   XY=             -1.0994   XZ=              0.0000   YZ=              0.0000
 Octapole moment (field-independent basis, Debye-Ang**2):
  XXX=             -1.6077  YYY=              0.3758  ZZZ=              0.0000  XYY=              0.4747
  XXY=             -1.6443  XXZ=              0.0000  XZZ=             -0.1092  YZZ=             -0.0304
  YYZ=              0.0000  XYZ=              0.0000
 Hexadecapole moment (field-independent basis, Debye-Ang**3):
 XXXX=            -11.0813 YYYY=           -177.8788 ZZZZ=            -11.3323 XXXY=             -2.5042
 XXXZ=              0.0000 YYYX=              8.0377 YYYZ=              0.0000 ZZZX=              0.0000
 ZZZY=              0.0000 XXYY=            -33.0023 XXZZ=             -4.5421 YYZZ=            -70.9089
 XXYZ=              0.0000 YYXZ=              0.0000 ZZXY=              0.4499
 N-N= 3.014458420334D+01 E-N=-4.218914146086D+02  KE= 1.518060513509D+02
 Symmetry A'   KE= 1.427670932096D+02
 Symmetry A"   KE= 9.038958141249D+00
 Leave Link  601 at Sat Aug 27 10:06:45 2022, MaxMem=   536870912 cpu:               0.1 elap:               0.0
 (Enter /usr/site/hpc/x86_64/glibc-2.17/broadwell/gaussian/g16_a.03/pgi-16.5/g16/l9999.exe)
 1\1\GINC-N003\SP\RCCSD(T)-FC\CC-pVTZ\H4O2\C7441284\27-Aug-2022\0\\#p C
 CSD(T)/cc-pVTZ\\H2O_H2O_2357\\0,1\O,0,0.,-0.009833,0.\H,0,-0.799571,-0
 .580965,0.\H,0,0.799571,-0.580965,0.\O,0,-0.004349,4.095982,0.\H,0,0.4
 60159,4.961856,0.\H,0,-0.974068,4.254573,0.\\Version=ES64L-G16RevA.03\
 State=1-A'\HF=-152.1055687\MP2=-152.6317935\MP3=-152.639323\MP4D=-152.
 6484575\MP4DQ=-152.6408773\MP4SDQ=-152.6439559\CCSD=-152.6433589\CCSD(
 T)=-152.6590357\RMSD=7.803e-09\PG=CS [SG(H4O2)]\\@


 TIME IS NATURE'S WAY OF MAKING SURE EVERYTHING
 DOESN'T HAPPEN AT ONCE.
                     - WOODY ALLEN
 Job cpu time:       0 days  0 hours  1 minutes 14.7 seconds.
 Elapsed time:       0 days  0 hours  0 minutes 19.0 seconds.
 File lengths (MBytes):  RWF=    336 Int=      0 D2E=      0 Chk=      8 Scr=      8
 Normal termination of Gaussian 16 at Sat Aug 27 10:06:45 2022.
