 Entering Gaussian System, Link 0=g16
 Input=O2_O2_274.com
 Output=O2_O2_274.log
 Initial command:
 /usr/site/hpc/x86_64/glibc-2.17/broadwell/gaussian/g16_a.03/pgi-16.5/g16/l1.exe "/gpfs/gpfs1/scratch/c7441090/Neutral/O2+O2 (2S+1=3)/Gau-116073.inp" -scrdir="/gpfs/gpfs1/scratch/c7441090/Neutral/O2+O2 (2S+1=3)/"
 Entering Link 1 = /usr/site/hpc/x86_64/glibc-2.17/broadwell/gaussian/g16_a.03/pgi-16.5/g16/l1.exe PID=    116074.
  
 Copyright (c) 1988,1990,1992,1993,1995,1998,2003,2009,2016,
            Gaussian, Inc.  All Rights Reserved.
  
 This is part of the Gaussian(R) 16 program.  It is based on
 the Gaussian(R) 09 system (copyright 2009, Gaussian, Inc.),
 the Gaussian(R) 03 system (copyright 2003, Gaussian, Inc.),
 the Gaussian(R) 98 system (copyright 1998, Gaussian, Inc.),
 the Gaussian(R) 94 system (copyright 1995, Gaussian, Inc.),
 the Gaussian 92(TM) system (copyright 1992, Gaussian, Inc.),
 the Gaussian 90(TM) system (copyright 1990, Gaussian, Inc.),
 the Gaussian 88(TM) system (copyright 1988, Gaussian, Inc.),
 the Gaussian 86(TM) system (copyright 1986, Carnegie Mellon
 University), and the Gaussian 82(TM) system (copyright 1983,
 Carnegie Mellon University). Gaussian is a federally registered
 trademark of Gaussian, Inc.
  
 This software contains proprietary and confidential information,
 including trade secrets, belonging to Gaussian, Inc.
  
 This software is provided under written license and may be
 used, copied, transmitted, or stored only in accord with that
 written license.
  
 The following legend is applicable only to US Government
 contracts under FAR:
  
                    RESTRICTED RIGHTS LEGEND
  
 Use, reproduction and disclosure by the US Government is
 subject to restrictions as set forth in subparagraphs (a)
 and (c) of the Commercial Computer Software - Restricted
 Rights clause in FAR 52.227-19.
  
 Gaussian, Inc.
 340 Quinnipiac St., Bldg. 40, Wallingford CT 06492
  
  
 ---------------------------------------------------------------
 Warning -- This program may not be used in any manner that
 competes with the business of Gaussian, Inc. or will provide
 assistance to any competitor of Gaussian, Inc.  The licensee
 of this program is prohibited from giving any competitor of
 Gaussian, Inc. access to this program.  By using this program,
 the user acknowledges that Gaussian, Inc. is engaged in the
 business of creating and licensing software in the field of
 computational chemistry and represents and warrants to the
 licensee that it is not a competitor of Gaussian, Inc. and that
 it will not use this program in any manner prohibited above.
 ---------------------------------------------------------------
  

 Cite this work as:
 Gaussian 16, Revision A.03,
 M. J. Frisch, G. W. Trucks, H. B. Schlegel, G. E. Scuseria, 
 M. A. Robb, J. R. Cheeseman, G. Scalmani, V. Barone, 
 G. A. Petersson, H. Nakatsuji, X. Li, M. Caricato, A. V. Marenich, 
 J. Bloino, B. G. Janesko, R. Gomperts, B. Mennucci, H. P. Hratchian, 
 J. V. Ortiz, A. F. Izmaylov, J. L. Sonnenberg, D. Williams-Young, 
 F. Ding, F. Lipparini, F. Egidi, J. Goings, B. Peng, A. Petrone, 
 T. Henderson, D. Ranasinghe, V. G. Zakrzewski, J. Gao, N. Rega, 
 G. Zheng, W. Liang, M. Hada, M. Ehara, K. Toyota, R. Fukuda, 
 J. Hasegawa, M. Ishida, T. Nakajima, Y. Honda, O. Kitao, H. Nakai, 
 T. Vreven, K. Throssell, J. A. Montgomery, Jr., J. E. Peralta, 
 F. Ogliaro, M. J. Bearpark, J. J. Heyd, E. N. Brothers, K. N. Kudin, 
 V. N. Staroverov, T. A. Keith, R. Kobayashi, J. Normand, 
 K. Raghavachari, A. P. Rendell, J. C. Burant, S. S. Iyengar, 
 J. Tomasi, M. Cossi, J. M. Millam, M. Klene, C. Adamo, R. Cammi, 
 J. W. Ochterski, R. L. Martin, K. Morokuma, O. Farkas, 
 J. B. Foresman, and D. J. Fox, Gaussian, Inc., Wallingford CT, 2016.
 
 ******************************************
 Gaussian 16:  ES64L-G16RevA.03 25-Dec-2016
                13-Feb-2024 
 ******************************************
 %NProcShared=4
 Will use up to    4 processors via shared memory.
 %Mem=4GB
 %Chk=O2_O2_274.chk
 -----------------------------------------------
 #p ROCCSD(T,MaxCyc=200)/cc-pVTZ SCF(MaxCyc=200)
 -----------------------------------------------
 1/38=1,172=1/1;
 2/12=2,17=6,18=5,40=1/2;
 3/5=16,6=1,11=2,25=1,30=1,116=101/1,2,3;
 4//1;
 5/5=2,7=200,38=5/2;
 8/5=-1,6=4,9=120000,10=1/1,4;
 9/5=7,6=200,14=2/13;
 6/7=2,8=2,9=2,10=2/1;
 99/5=1,9=1/99;
 Leave Link    1 at Tue Feb 13 19:10:46 2024, MaxMem=   536870912 cpu:               0.2 elap:               0.1
 (Enter /usr/site/hpc/x86_64/glibc-2.17/broadwell/gaussian/g16_a.03/pgi-16.5/g16/l101.exe)
 ---------
 O2_O2_274
 ---------
 Symbolic Z-matrix:
 Charge =  0 Multiplicity = 3
 O                    -1.16      0.        0. 
 O                     0.        0.        0. 
 O                     3.28098   3.28098   0. 
 O                     4.10122   4.10122   0. 
 
 ITRead=  0  0  0  0
 MicOpt= -1 -1 -1 -1
 NAtoms=      4 NQM=        4 NQMF=       0 NMMI=      0 NMMIF=      0
                NMic=       0 NMicF=      0.
                    Isotopes and Nuclear Properties:
 (Nuclear quadrupole moments (NQMom) in fm**2, nuclear magnetic moments (NMagM)
  in nuclear magnetons)

  Atom         1           2           3           4
 IAtWgt=          16          16          16          16
 AtmWgt=  15.9949146  15.9949146  15.9949146  15.9949146
 NucSpn=           0           0           0           0
 AtZEff=  -0.0000000  -0.0000000  -0.0000000  -0.0000000
 NQMom=    0.0000000   0.0000000   0.0000000   0.0000000
 NMagM=    0.0000000   0.0000000   0.0000000   0.0000000
 AtZNuc=   8.0000000   8.0000000   8.0000000   8.0000000
 Leave Link  101 at Tue Feb 13 19:10:46 2024, MaxMem=   536870912 cpu:               0.3 elap:               0.1
 (Enter /usr/site/hpc/x86_64/glibc-2.17/broadwell/gaussian/g16_a.03/pgi-16.5/g16/l202.exe)
                          Input orientation:                          
 ---------------------------------------------------------------------
 Center     Atomic      Atomic             Coordinates (Angstroms)
 Number     Number       Type             X           Y           Z
 ---------------------------------------------------------------------
      1          8           0       -1.160000    0.000000    0.000000
      2          8           0        0.000000    0.000000    0.000000
      3          8           0        3.280975    3.280975    0.000000
      4          8           0        4.101219    4.101219    0.000000
 ---------------------------------------------------------------------
                    Distance matrix (angstroms):
                    1          2          3          4
     1  O    0.000000
     2  O    1.160000   0.000000
     3  O    5.521508   4.639999   0.000000
     4  O    6.670864   5.800000   1.160000   0.000000
 Stoichiometry    O4(3)
 Framework group  CS[SG(O4)]
 Deg. of freedom     5
 Full point group                 CS      NOp   2
 Largest Abelian subgroup         CS      NOp   2
 Largest concise Abelian subgroup C1      NOp   1
                         Standard orientation:                         
 ---------------------------------------------------------------------
 Center     Atomic      Atomic             Coordinates (Angstroms)
 Number     Number       Type             X           Y           Z
 ---------------------------------------------------------------------
      1          8           0        0.615183   -3.225183    0.000000
      2          8           0       -0.205061   -2.404939   -0.000000
      3          8           0       -0.205061    2.235061   -0.000000
      4          8           0       -0.205061    3.395061   -0.000000
 ---------------------------------------------------------------------
 Rotational constants (GHZ):         109.4329191           0.9596909           0.9513479
 Leave Link  202 at Tue Feb 13 19:10:46 2024, MaxMem=   536870912 cpu:               0.0 elap:               0.0
 (Enter /usr/site/hpc/x86_64/glibc-2.17/broadwell/gaussian/g16_a.03/pgi-16.5/g16/l301.exe)
 Standard basis: CC-pVTZ (5D, 7F)
 Ernie: Thresh=  0.10000D-02 Tol=  0.10000D-05 Strict=F.
 Ernie:  12 primitive shells out of 104 were deleted.
 There are    96 symmetry adapted cartesian basis functions of A'  symmetry.
 There are    44 symmetry adapted cartesian basis functions of A"  symmetry.
 There are    80 symmetry adapted basis functions of A'  symmetry.
 There are    40 symmetry adapted basis functions of A"  symmetry.
   120 basis functions,   208 primitive gaussians,   140 cartesian basis functions
    17 alpha electrons       15 beta electrons
       nuclear repulsion energy        82.7407744511 Hartrees.
 IExCor=    0 DFT=F Ex=HF Corr=None ExCW=0 ScaHFX=  1.000000
 ScaDFX=  1.000000  1.000000  1.000000  1.000000 ScalE2=  1.000000  1.000000
 IRadAn=      5 IRanWt=     -1 IRanGd=            0 ICorTp=0 IEmpDi=  4
 NAtoms=    4 NActive=    4 NUniq=    4 SFac= 1.00D+00 NAtFMM=   60 NAOKFM=F Big=F
 Integral buffers will be    131072 words long.
 Raffenetti 2 integral format.
 Two-electron integral symmetry is turned on.
 Leave Link  301 at Tue Feb 13 19:10:46 2024, MaxMem=   536870912 cpu:               0.2 elap:               0.1
 (Enter /usr/site/hpc/x86_64/glibc-2.17/broadwell/gaussian/g16_a.03/pgi-16.5/g16/l302.exe)
 NPDir=0 NMtPBC=     1 NCelOv=     1 NCel=       1 NClECP=     1 NCelD=      1
         NCelK=      1 NCelE2=     1 NClLst=     1 CellRange=     0.0.
 One-electron integrals computed using PRISM.
 One-electron integral symmetry used in STVInt
 NBasis=   120 RedAO= T EigKep=  3.52D-03  NBF=    80    40
 NBsUse=   120 1.00D-06 EigRej= -1.00D+00 NBFU=    80    40
 Leave Link  302 at Tue Feb 13 19:10:46 2024, MaxMem=   536870912 cpu:               0.3 elap:               0.1
 (Enter /usr/site/hpc/x86_64/glibc-2.17/broadwell/gaussian/g16_a.03/pgi-16.5/g16/l303.exe)
 DipDrv:  MaxL=1.
 Leave Link  303 at Tue Feb 13 19:10:46 2024, MaxMem=   536870912 cpu:               0.1 elap:               0.0
 (Enter /usr/site/hpc/x86_64/glibc-2.17/broadwell/gaussian/g16_a.03/pgi-16.5/g16/l401.exe)
 ExpMin= 2.14D-01 ExpMax= 1.53D+04 ExpMxC= 5.22D+02 IAcc=3 IRadAn=         5 AccDes= 0.00D+00
 Harris functional with IExCor=  205 and IRadAn=       5 diagonalized for initial guess.
 HarFok:  IExCor=  205 AccDes= 0.00D+00 IRadAn=         5 IDoV= 1 UseB2=F ITyADJ=14
 ICtDFT=  3500011 ScaDFX=  1.000000  1.000000  1.000000  1.000000
 FoFCou: FMM=F IPFlag=           0 FMFlag=      100000 FMFlg1=           0
         NFxFlg=           0 DoJE=T BraDBF=F KetDBF=T FulRan=T
         wScrn=  0.000000 ICntrl=       500 IOpCl=  0 I1Cent=   200000004 NGrid=           0
         NMat0=    1 NMatS0=      1 NMatT0=    0 NMatD0=    1 NMtDS0=    0 NMtDT0=    0
 Petite list used in FoFCou.
 Harris En= -299.202498399406    
 JPrj=0 DoOrth=F DoCkMO=F.
 Initial guess orbital symmetries:
       Occupied  (A') (A') (A') (A') (A') (A') (A') (A') (A') (A')
                 (A") (A') (A') (A") (A") (A') (A')
       Virtual   (A") (A') (A') (A') (A') (A") (A') (A") (A') (A')
                 (A') (A") (A') (A") (A') (A') (A') (A') (A") (A")
                 (A') (A') (A') (A") (A') (A") (A') (A") (A") (A')
                 (A') (A') (A') (A') (A') (A") (A') (A") (A') (A")
                 (A') (A') (A") (A') (A') (A") (A') (A') (A") (A")
                 (A') (A") (A') (A') (A") (A') (A") (A') (A') (A")
                 (A') (A") (A') (A') (A') (A") (A') (A") (A') (A')
                 (A') (A") (A') (A") (A') (A") (A') (A') (A") (A")
                 (A') (A") (A') (A") (A') (A") (A') (A") (A') (A')
                 (A") (A') (A') (A') (A') (A") (A') (A') (A") (A')
                 (A') (A') (A')
 The electronic state of the initial guess is 3-A'.
 Leave Link  401 at Tue Feb 13 19:10:46 2024, MaxMem=   536870912 cpu:               0.6 elap:               0.2
 (Enter /usr/site/hpc/x86_64/glibc-2.17/broadwell/gaussian/g16_a.03/pgi-16.5/g16/l502.exe)
 Keep R1 and R2 ints in memory in symmetry-blocked form, NReq=40113421.
 FoFCou: FMM=F IPFlag=           0 FMFlag=           0 FMFlg1=           0
         NFxFlg=           0 DoJE=F BraDBF=F KetDBF=F FulRan=T
         wScrn=  0.000000 ICntrl=       600 IOpCl=  0 I1Cent=           0 NGrid=           0
         NMat0=    1 NMatS0=   7260 NMatT0=    0 NMatD0=    1 NMtDS0=    0 NMtDT0=    0
 Petite list used in FoFCou.
 Restricted open shell SCF:
 Using DIIS extrapolation, IDIIS=  1040.
 NGot=   536870912 LenX=   510082356 LenY=   510062315
 Requested convergence on RMS density matrix=1.00D-08 within 200 cycles.
 Requested convergence on MAX density matrix=1.00D-06.
 Requested convergence on             energy=1.00D-06.
 No special actions if energy rises.

 Cycle   1  Pass 1  IDiag  1:
 E= -298.975075608050    
 DIIS: error= 5.12D-02 at cycle   1 NSaved=   1.
 NSaved= 1 IEnMin= 1 EnMin= -298.975075608050     IErMin= 1 ErrMin= 5.12D-02
 ErrMax= 5.12D-02  0.00D+00 EMaxC= 1.00D-01 BMatC= 3.40D-01 BMatP= 3.40D-01
 IDIUse=3 WtCom= 4.88D-01 WtEn= 5.12D-01
 Coeff-Com:  0.100D+01
 Coeff-En:   0.100D+01
 Coeff:      0.100D+01
 Gap=     0.000 Goal=   None    Shift=    0.000
 GapD=    0.000 DampG=0.250 DampE=0.500 DampFc=0.2500 IDamp=-1.
 Damping current iteration by 2.50D-01
 RMSDP=6.16D-03 MaxDP=1.34D-01              OVMax= 5.61D-01

 Cycle   2  Pass 1  IDiag  1:
 E= -298.924677272535     Delta-E=        0.050398335515 Rises=F Damp=T
 DIIS: error= 3.94D-02 at cycle   2 NSaved=   2.
 NSaved= 2 IEnMin= 1 EnMin= -298.975075608050     IErMin= 2 ErrMin= 3.94D-02
 ErrMax= 3.94D-02  0.00D+00 EMaxC= 1.00D-01 BMatC= 2.01D-01 BMatP= 3.40D-01
 IDIUse=3 WtCom= 6.06D-01 WtEn= 3.94D-01
 Coeff-Com: -0.218D+01 0.318D+01
 Coeff-En:   0.000D+00 0.100D+01
 Coeff:     -0.132D+01 0.232D+01
 Gap=    -0.410 Goal=   None    Shift=    0.000
 RMSDP=6.92D-03 MaxDP=1.86D-01 DE= 5.04D-02 OVMax= 1.00D+00

 Cycle   3  Pass 1  IDiag  1:
 E= -298.766062276202     Delta-E=        0.158614996334 Rises=F Damp=F
 DIIS: error= 6.61D-02 at cycle   3 NSaved=   3.
 NSaved= 3 IEnMin= 1 EnMin= -298.975075608050     IErMin= 2 ErrMin= 3.94D-02
 ErrMax= 6.61D-02  0.00D+00 EMaxC= 1.00D-01 BMatC= 2.21D-01 BMatP= 2.01D-01
 IDIUse=3 WtCom= 3.39D-01 WtEn= 6.61D-01
 Coeff-Com: -0.179D+01 0.242D+01 0.372D+00
 Coeff-En:   0.000D+00 0.736D+00 0.264D+00
 Coeff:     -0.607D+00 0.131D+01 0.301D+00
 Gap=     0.026 Goal=   None    Shift=    0.000
 RMSDP=3.30D-03 MaxDP=7.98D-02 DE= 1.59D-01 OVMax= 5.21D-01

 Cycle   4  Pass 1  IDiag  1:
 E= -299.051425712633     Delta-E=       -0.285363436431 Rises=F Damp=F
 DIIS: error= 8.48D-02 at cycle   4 NSaved=   4.
 NSaved= 4 IEnMin= 4 EnMin= -299.051425712633     IErMin= 2 ErrMin= 3.94D-02
 ErrMax= 8.48D-02  0.00D+00 EMaxC= 1.00D-01 BMatC= 4.67D-02 BMatP= 2.01D-01
 IDIUse=3 WtCom= 1.52D-01 WtEn= 8.48D-01
 Coeff-Com: -0.130D+01 0.172D+01 0.901D-01 0.494D+00
 Coeff-En:   0.000D+00 0.000D+00 0.000D+00 0.100D+01
 Coeff:     -0.198D+00 0.261D+00 0.137D-01 0.923D+00
 Gap=     0.019 Goal=   None    Shift=    0.000
 RMSDP=4.47D-03 MaxDP=8.15D-02 DE=-2.85D-01 OVMax= 6.86D-01

 Cycle   5  Pass 1  IDiag  1:
 E= -299.226154098962     Delta-E=       -0.174728386329 Rises=F Damp=F
 DIIS: error= 2.50D-02 at cycle   5 NSaved=   5.
 NSaved= 5 IEnMin= 5 EnMin= -299.226154098962     IErMin= 5 ErrMin= 2.50D-02
 ErrMax= 2.50D-02  0.00D+00 EMaxC= 1.00D-01 BMatC= 2.50D-02 BMatP= 4.67D-02
 IDIUse=3 WtCom= 7.50D-01 WtEn= 2.50D-01
 Coeff-Com: -0.747D+00 0.975D+00 0.222D+00 0.784D-01 0.471D+00
 Coeff-En:   0.000D+00 0.000D+00 0.370D-01 0.000D+00 0.963D+00
 Coeff:     -0.560D+00 0.731D+00 0.176D+00 0.588D-01 0.594D+00
 Gap=     0.092 Goal=   None    Shift=    0.000
 RMSDP=2.05D-03 MaxDP=4.72D-02 DE=-1.75D-01 OVMax= 2.78D-01

 Cycle   6  Pass 1  IDiag  1:
 E= -299.218527881514     Delta-E=        0.007626217448 Rises=F Damp=F
 DIIS: error= 4.60D-02 at cycle   6 NSaved=   6.
 NSaved= 6 IEnMin= 5 EnMin= -299.226154098962     IErMin= 5 ErrMin= 2.50D-02
 ErrMax= 4.60D-02  0.00D+00 EMaxC= 1.00D-01 BMatC= 1.41D-02 BMatP= 2.50D-02
 IDIUse=3 WtCom= 7.50D-01 WtEn= 2.50D-01
 Coeff-Com: -0.613D+00 0.809D+00 0.200D+00-0.377D+00 0.196D+00 0.784D+00
 Coeff-En:   0.000D+00 0.000D+00 0.000D+00 0.000D+00 0.582D+00 0.418D+00
 Coeff:     -0.460D+00 0.607D+00 0.150D+00-0.283D+00 0.293D+00 0.693D+00
 Gap=     0.073 Goal=   None    Shift=    0.000
 RMSDP=2.19D-03 MaxDP=5.61D-02 DE= 7.63D-03 OVMax= 3.54D-01

 Cycle   7  Pass 1  IDiag  1:
 E= -299.242226634628     Delta-E=       -0.023698753114 Rises=F Damp=F
 DIIS: error= 2.56D-02 at cycle   7 NSaved=   7.
 NSaved= 7 IEnMin= 7 EnMin= -299.242226634628     IErMin= 5 ErrMin= 2.50D-02
 ErrMax= 2.56D-02  0.00D+00 EMaxC= 1.00D-01 BMatC= 5.44D-03 BMatP= 1.41D-02
 IDIUse=3 WtCom= 7.50D-01 WtEn= 2.50D-01
 Coeff-Com: -0.598D+00 0.790D+00 0.173D+00-0.321D+00 0.148D+00 0.736D+00
 Coeff-Com:  0.713D-01
 Coeff-En:   0.000D+00 0.000D+00 0.000D+00 0.000D+00 0.000D+00 0.310D+00
 Coeff-En:   0.690D+00
 Coeff:     -0.448D+00 0.593D+00 0.130D+00-0.241D+00 0.111D+00 0.629D+00
 Coeff:      0.226D+00
 Gap=     0.110 Goal=   None    Shift=    0.000
 RMSDP=5.32D-04 MaxDP=1.40D-02 DE=-2.37D-02 OVMax= 8.72D-02

 Cycle   8  Pass 1  IDiag  1:
 E= -299.248873654266     Delta-E=       -0.006647019638 Rises=F Damp=F
 DIIS: error= 7.34D-03 at cycle   8 NSaved=   8.
 NSaved= 8 IEnMin= 8 EnMin= -299.248873654266     IErMin= 8 ErrMin= 7.34D-03
 ErrMax= 7.34D-03  0.00D+00 EMaxC= 1.00D-01 BMatC= 2.39D-03 BMatP= 5.44D-03
 IDIUse=3 WtCom= 9.27D-01 WtEn= 7.34D-02
 Coeff-Com: -0.450D+00 0.596D+00 0.133D+00-0.318D+00-0.567D-01 0.155D+00
 Coeff-Com: -0.162D+01 0.256D+01
 Coeff-En:   0.000D+00 0.000D+00 0.000D+00 0.000D+00 0.000D+00 0.815D-01
 Coeff-En:   0.000D+00 0.919D+00
 Coeff:     -0.417D+00 0.552D+00 0.123D+00-0.295D+00-0.525D-01 0.149D+00
 Coeff:     -0.150D+01 0.244D+01
 Gap=     0.055 Goal=   None    Shift=    0.000
 RMSDP=1.16D-03 MaxDP=3.11D-02 DE=-6.65D-03 OVMax= 1.85D-01

 Cycle   9  Pass 1  IDiag  1:
 E= -299.227721097506     Delta-E=        0.021152556760 Rises=F Damp=F
 DIIS: error= 4.64D-02 at cycle   9 NSaved=   9.
 NSaved= 9 IEnMin= 8 EnMin= -299.248873654266     IErMin= 8 ErrMin= 7.34D-03
 ErrMax= 4.64D-02  0.00D+00 EMaxC= 1.00D-01 BMatC= 1.27D-02 BMatP= 2.39D-03
 IDIUse=2 WtCom= 0.00D+00 WtEn= 1.00D+00
 EnCoef did     6 forward-backward iterations
 Coeff-En:   0.000D+00 0.000D+00 0.000D+00 0.000D+00 0.000D+00 0.135D+00
 Coeff-En:   0.000D+00 0.768D+00 0.974D-01
 Coeff:      0.000D+00 0.000D+00 0.000D+00 0.000D+00 0.000D+00 0.135D+00
 Coeff:      0.000D+00 0.768D+00 0.974D-01
 Gap=     0.161 Goal=   None    Shift=    0.000
 RMSDP=1.55D-03 MaxDP=4.04D-02 DE= 2.12D-02 OVMax= 2.46D-01

 Cycle  10  Pass 1  IDiag  1:
 E= -299.251888239908     Delta-E=       -0.024167142401 Rises=F Damp=F
 DIIS: error= 6.21D-03 at cycle  10 NSaved=  10.
 NSaved=10 IEnMin=10 EnMin= -299.251888239908     IErMin=10 ErrMin= 6.21D-03
 ErrMax= 6.21D-03  0.00D+00 EMaxC= 1.00D-01 BMatC= 4.35D-04 BMatP= 2.39D-03
 IDIUse=3 WtCom= 9.38D-01 WtEn= 6.21D-02
 Coeff-Com: -0.250D+00 0.331D+00 0.482D-01-0.175D+00 0.437D-01 0.474D+00
 Coeff-Com: -0.112D+01 0.412D+00 0.694D+00 0.539D+00
 Coeff-En:   0.000D+00 0.000D+00 0.000D+00 0.000D+00 0.000D+00 0.000D+00
 Coeff-En:   0.000D+00 0.000D+00 0.139D+00 0.861D+00
 Coeff:     -0.234D+00 0.310D+00 0.452D-01-0.164D+00 0.410D-01 0.445D+00
 Coeff:     -0.105D+01 0.387D+00 0.659D+00 0.559D+00
 Gap=     0.147 Goal=   None    Shift=    0.000
 RMSDP=6.33D-04 MaxDP=1.60D-02 DE=-2.42D-02 OVMax= 9.88D-02

 Cycle  11  Pass 1  IDiag  1:
 E= -299.249603939751     Delta-E=        0.002284300157 Rises=F Damp=F
 DIIS: error= 1.50D-02 at cycle  11 NSaved=  11.
 NSaved=11 IEnMin=10 EnMin= -299.251888239908     IErMin=10 ErrMin= 6.21D-03
 ErrMax= 1.50D-02  0.00D+00 EMaxC= 1.00D-01 BMatC= 1.60D-03 BMatP= 4.35D-04
 IDIUse=2 WtCom= 0.00D+00 WtEn= 1.00D+00
 Rare condition: small coef for last iteration:  0.000D+00
 Coeff-En:   0.000D+00 0.000D+00 0.000D+00 0.000D+00 0.000D+00 0.000D+00
 Coeff-En:   0.000D+00 0.000D+00 0.257D-01 0.684D+00 0.290D+00
 Coeff:      0.000D+00 0.000D+00 0.000D+00 0.000D+00 0.000D+00 0.000D+00
 Coeff:      0.000D+00 0.000D+00 0.257D-01 0.684D+00 0.290D+00
 Gap=     0.174 Goal=   None    Shift=    0.000
 RMSDP=5.28D-04 MaxDP=1.23D-02 DE= 2.28D-03 OVMax= 7.75D-02

 Cycle  12  Pass 1  IDiag  1:
 E= -299.252650816824     Delta-E=       -0.003046877073 Rises=F Damp=F
 DIIS: error= 1.67D-03 at cycle  12 NSaved=  12.
 NSaved=12 IEnMin=12 EnMin= -299.252650816824     IErMin=12 ErrMin= 1.67D-03
 ErrMax= 1.67D-03  0.00D+00 EMaxC= 1.00D-01 BMatC= 4.48D-05 BMatP= 4.35D-04
 IDIUse=3 WtCom= 9.83D-01 WtEn= 1.67D-02
 EnCoef did   100 forward-backward iterations
 Coeff-Com: -0.306D-01 0.405D-01 0.159D-01-0.303D-01 0.126D-01 0.906D-03
 Coeff-Com: -0.127D+00-0.163D-01-0.675D-01-0.654D-01 0.350D+00 0.917D+00
 Coeff-En:   0.000D+00 0.000D+00 0.000D+00 0.000D+00 0.000D+00 0.000D+00
 Coeff-En:   0.000D+00 0.000D+00 0.482D-01 0.000D+00 0.173D-02 0.950D+00
 Coeff:     -0.301D-01 0.398D-01 0.157D-01-0.298D-01 0.124D-01 0.891D-03
 Coeff:     -0.124D+00-0.160D-01-0.656D-01-0.643D-01 0.344D+00 0.917D+00
 Gap=     0.163 Goal=   None    Shift=    0.000
 RMSDP=9.02D-05 MaxDP=2.15D-03 DE=-3.05D-03 OVMax= 1.27D-02

 Cycle  13  Pass 1  IDiag  1:
 E= -299.252706970272     Delta-E=       -0.000056153448 Rises=F Damp=F
 DIIS: error= 1.06D-03 at cycle  13 NSaved=  13.
 NSaved=13 IEnMin=13 EnMin= -299.252706970272     IErMin=13 ErrMin= 1.06D-03
 ErrMax= 1.06D-03  0.00D+00 EMaxC= 1.00D-01 BMatC= 1.42D-05 BMatP= 4.48D-05
 IDIUse=3 WtCom= 9.89D-01 WtEn= 1.06D-02
 EnCoef did   100 forward-backward iterations
 Rare condition: small coef for last iteration: -0.345D-15
 Coeff-Com:  0.449D-02-0.598D-02-0.571D-03 0.643D-02 0.327D-02-0.286D-01
 Coeff-Com:  0.103D+00-0.470D-01-0.682D-01-0.360D-01-0.942D-01-0.458D-01
 Coeff-Com:  0.121D+01
 Coeff-En:   0.000D+00 0.000D+00 0.000D+00 0.000D+00 0.000D+00 0.000D+00
 Coeff-En:   0.000D+00 0.000D+00 0.000D+00 0.000D+00 0.000D+00 0.178D+00
 Coeff-En:   0.822D+00
 Coeff:      0.449D-02-0.598D-02-0.571D-03 0.643D-02 0.327D-02-0.286D-01
 Coeff:      0.103D+00-0.470D-01-0.682D-01-0.360D-01-0.942D-01-0.458D-01
 Coeff:      0.121D+01
 Gap=     0.172 Goal=   None    Shift=    0.000
 RMSDP=7.40D-05 MaxDP=1.90D-03 DE=-5.62D-05 OVMax= 9.39D-03

 Cycle  14  Pass 1  IDiag  1:
 E= -299.252723105448     Delta-E=       -0.000016135176 Rises=F Damp=F
 DIIS: error= 9.69D-04 at cycle  14 NSaved=  14.
 NSaved=14 IEnMin=14 EnMin= -299.252723105448     IErMin=14 ErrMin= 9.69D-04
 ErrMax= 9.69D-04  0.00D+00 EMaxC= 1.00D-01 BMatC= 4.92D-06 BMatP= 1.42D-05
 IDIUse=3 WtCom= 9.90D-01 WtEn= 9.69D-03
 EnCoef did   100 forward-backward iterations
 Coeff-Com:  0.389D-02-0.517D-02-0.219D-02 0.506D-02 0.521D-02-0.550D-02
 Coeff-Com:  0.594D-01-0.537D-01-0.742D-02-0.470D-02-0.323D-01-0.702D-01
 Coeff-Com:  0.358D+00 0.750D+00
 Coeff-En:   0.000D+00 0.000D+00 0.000D+00 0.000D+00 0.000D+00 0.000D+00
 Coeff-En:   0.000D+00 0.000D+00 0.271D-01 0.000D+00 0.000D+00 0.000D+00
 Coeff-En:   0.122D-01 0.961D+00
 Coeff:      0.385D-02-0.512D-02-0.216D-02 0.501D-02 0.516D-02-0.545D-02
 Coeff:      0.588D-01-0.532D-01-0.708D-02-0.466D-02-0.320D-01-0.695D-01
 Coeff:      0.354D+00 0.752D+00
 Gap=     0.175 Goal=   None    Shift=    0.000
 RMSDP=1.99D-05 MaxDP=5.45D-04 DE=-1.61D-05 OVMax= 3.13D-03

 Cycle  15  Pass 1  IDiag  1:
 E= -299.252732137736     Delta-E=       -0.000009032288 Rises=F Damp=F
 DIIS: error= 3.00D-04 at cycle  15 NSaved=  15.
 NSaved=15 IEnMin=15 EnMin= -299.252732137736     IErMin=15 ErrMin= 3.00D-04
 ErrMax= 3.00D-04  0.00D+00 EMaxC= 1.00D-01 BMatC= 5.49D-07 BMatP= 4.92D-06
 IDIUse=3 WtCom= 9.97D-01 WtEn= 3.00D-03
 EnCoef did   100 forward-backward iterations
 Rare condition: small coef for last iteration:  0.575D-15
 Coeff-Com:  0.141D-02-0.188D-02-0.711D-03 0.132D-02 0.125D-02-0.188D-02
 Coeff-Com:  0.903D-02-0.525D-02 0.605D-02-0.409D-02-0.584D-02-0.360D-02
 Coeff-Com:  0.192D-01 0.203D+00 0.782D+00
 Coeff-En:   0.000D+00 0.000D+00 0.000D+00 0.000D+00 0.000D+00 0.000D+00
 Coeff-En:   0.000D+00 0.000D+00 0.146D-01 0.000D+00 0.000D+00 0.000D+00
 Coeff-En:   0.000D+00 0.000D+00 0.985D+00
 Coeff:      0.141D-02-0.188D-02-0.711D-03 0.132D-02 0.125D-02-0.188D-02
 Coeff:      0.903D-02-0.525D-02 0.605D-02-0.409D-02-0.584D-02-0.360D-02
 Coeff:      0.192D-01 0.203D+00 0.782D+00
 Gap=     0.175 Goal=   None    Shift=    0.000
 RMSDP=9.53D-06 MaxDP=2.57D-04 DE=-9.03D-06 OVMax= 1.47D-03

 Cycle  16  Pass 1  IDiag  1:
 E= -299.252733213822     Delta-E=       -0.000001076085 Rises=F Damp=F
 DIIS: error= 2.14D-05 at cycle  16 NSaved=  16.
 NSaved=16 IEnMin=16 EnMin= -299.252733213822     IErMin=16 ErrMin= 2.14D-05
 ErrMax= 2.14D-05  0.00D+00 EMaxC= 1.00D-01 BMatC= 2.85D-08 BMatP= 5.49D-07
 IDIUse=1 WtCom= 1.00D+00 WtEn= 0.00D+00
 Coeff-Com: -0.475D-03 0.634D-03 0.250D-03-0.871D-03-0.717D-03 0.144D-02
 Coeff-Com: -0.899D-02 0.129D-01 0.475D-02-0.304D-02-0.606D-02 0.515D-02
 Coeff-Com: -0.702D-02-0.404D-01 0.163D+00 0.880D+00
 Coeff:     -0.475D-03 0.634D-03 0.250D-03-0.871D-03-0.717D-03 0.144D-02
 Coeff:     -0.899D-02 0.129D-01 0.475D-02-0.304D-02-0.606D-02 0.515D-02
 Coeff:     -0.702D-02-0.404D-01 0.163D+00 0.880D+00
 Gap=     0.174 Goal=   None    Shift=    0.000
 RMSDP=3.10D-06 MaxDP=8.65D-05 DE=-1.08D-06 OVMax= 3.51D-04

 Cycle  17  Pass 1  IDiag  1:
 E= -299.252733173297     Delta-E=        0.000000040525 Rises=F Damp=F
 DIIS: error= 9.27D-05 at cycle  17 NSaved=  17.
 NSaved=17 IEnMin=16 EnMin= -299.252733213822     IErMin=16 ErrMin= 2.14D-05
 ErrMax= 9.27D-05  0.00D+00 EMaxC= 1.00D-01 BMatC= 4.37D-08 BMatP= 2.85D-08
 IDIUse=1 WtCom= 1.00D+00 WtEn= 0.00D+00
 Coeff-Com: -0.260D-03 0.346D-03 0.114D-03-0.318D-03-0.330D-03 0.863D-03
 Coeff-Com: -0.298D-02 0.336D-02 0.598D-03-0.139D-02-0.252D-02 0.825D-02
 Coeff-Com: -0.255D-01-0.143D-01 0.399D-01-0.203D+00 0.120D+01
 Coeff:     -0.260D-03 0.346D-03 0.114D-03-0.318D-03-0.330D-03 0.863D-03
 Coeff:     -0.298D-02 0.336D-02 0.598D-03-0.139D-02-0.252D-02 0.825D-02
 Coeff:     -0.255D-01-0.143D-01 0.399D-01-0.203D+00 0.120D+01
 Gap=     0.174 Goal=   None    Shift=    0.000
 RMSDP=2.29D-06 MaxDP=6.19D-05 DE= 4.05D-08 OVMax= 3.55D-04

 Cycle  18  Pass 1  IDiag  1:
 E= -299.252733277096     Delta-E=       -0.000000103799 Rises=F Damp=F
 DIIS: error= 1.67D-05 at cycle  18 NSaved=  18.
 NSaved=18 IEnMin=18 EnMin= -299.252733277096     IErMin=18 ErrMin= 1.67D-05
 ErrMax= 1.67D-05  0.00D+00 EMaxC= 1.00D-01 BMatC= 2.74D-09 BMatP= 2.85D-08
 IDIUse=1 WtCom= 1.00D+00 WtEn= 0.00D+00
 Coeff-Com: -0.839D-04 0.110D-03 0.241D-04-0.738D-04 0.350D-03 0.246D-03
 Coeff-Com:  0.216D-03-0.155D-02 0.106D-02-0.210D-03-0.767D-03 0.325D-02
 Coeff-Com: -0.135D-01-0.793D-02-0.508D-02-0.151D+00-0.496D+00 0.167D+01
 Coeff:     -0.839D-04 0.110D-03 0.241D-04-0.738D-04 0.350D-03 0.246D-03
 Coeff:      0.216D-03-0.155D-02 0.106D-02-0.210D-03-0.767D-03 0.325D-02
 Coeff:     -0.135D-01-0.793D-02-0.508D-02-0.151D+00-0.496D+00 0.167D+01
 Gap=     0.174 Goal=   None    Shift=    0.000
 RMSDP=1.02D-06 MaxDP=4.15D-05 DE=-1.04D-07 OVMax= 2.81D-05

 Cycle  19  Pass 1  IDiag  1:
 E= -299.252733303509     Delta-E=       -0.000000026413 Rises=F Damp=F
 DIIS: error= 1.42D-05 at cycle  19 NSaved=  19.
 NSaved=19 IEnMin=19 EnMin= -299.252733303509     IErMin=19 ErrMin= 1.42D-05
 ErrMax= 1.42D-05  0.00D+00 EMaxC= 1.00D-01 BMatC= 1.61D-09 BMatP= 2.74D-09
 IDIUse=1 WtCom= 1.00D+00 WtEn= 0.00D+00
 Coeff-Com: -0.573D-04 0.765D-04 0.309D-04-0.732D-04-0.161D-03-0.527D-04
 Coeff-Com: -0.737D-03 0.108D-02 0.636D-04 0.129D-03 0.118D-03-0.723D-03
 Coeff-Com:  0.611D-02 0.147D-01-0.107D-01 0.722D-01-0.115D+00-0.717D+00
 Coeff-Com:  0.175D+01
 Coeff:     -0.573D-04 0.765D-04 0.309D-04-0.732D-04-0.161D-03-0.527D-04
 Coeff:     -0.737D-03 0.108D-02 0.636D-04 0.129D-03 0.118D-03-0.723D-03
 Coeff:      0.611D-02 0.147D-01-0.107D-01 0.722D-01-0.115D+00-0.717D+00
 Coeff:      0.175D+01
 Gap=     0.174 Goal=   None    Shift=    0.000
 RMSDP=1.12D-06 MaxDP=4.43D-05 DE=-2.64D-08 OVMax= 4.93D-05

 Cycle  20  Pass 1  IDiag  1:
 E= -299.252733329213     Delta-E=       -0.000000025704 Rises=F Damp=F
 DIIS: error= 5.29D-06 at cycle  20 NSaved=  20.
 NSaved=20 IEnMin=20 EnMin= -299.252733329213     IErMin=20 ErrMin= 5.29D-06
 ErrMax= 5.29D-06  0.00D+00 EMaxC= 1.00D-01 BMatC= 3.90D-10 BMatP= 1.61D-09
 IDIUse=1 WtCom= 1.00D+00 WtEn= 0.00D+00
 Coeff-Com: -0.768D-04 0.102D-03 0.559D-04-0.156D-03-0.789D-04 0.323D-03
 Coeff-Com: -0.132D-02 0.176D-02-0.360D-03-0.339D-03 0.148D-02 0.760D-03
 Coeff-Com: -0.777D-02-0.162D-01 0.603D-02 0.189D+00 0.338D+00-0.402D+00
 Coeff-Com: -0.219D+01 0.308D+01
 Coeff:     -0.768D-04 0.102D-03 0.559D-04-0.156D-03-0.789D-04 0.323D-03
 Coeff:     -0.132D-02 0.176D-02-0.360D-03-0.339D-03 0.148D-02 0.760D-03
 Coeff:     -0.777D-02-0.162D-01 0.603D-02 0.189D+00 0.338D+00-0.402D+00
 Coeff:     -0.219D+01 0.308D+01
 Gap=     0.174 Goal=   None    Shift=    0.000
 RMSDP=2.00D-06 MaxDP=7.96D-05 DE=-2.57D-08 OVMax= 4.25D-05

 Cycle  21  Pass 1  IDiag  1:
 E= -299.252733364272     Delta-E=       -0.000000035059 Rises=F Damp=F
 DIIS: error= 3.71D-06 at cycle  21 NSaved=  20.
 NSaved=20 IEnMin=20 EnMin= -299.252733364272     IErMin=20 ErrMin= 3.71D-06
 ErrMax= 3.71D-06  0.00D+00 EMaxC= 1.00D-01 BMatC= 3.53D-10 BMatP= 3.90D-10
 IDIUse=1 WtCom= 1.00D+00 WtEn= 0.00D+00
 Coeff-Com:  0.389D-04-0.517D-04 0.946D-05 0.253D-03 0.165D-03 0.550D-03
 Coeff-Com: -0.143D-02-0.824D-03 0.310D-03 0.226D-02-0.931D-03-0.818D-02
 Coeff-Com: -0.301D-01 0.108D-01 0.549D-01 0.399D-01 0.102D+01-0.289D+01
 Coeff-Com:  0.482D+00 0.232D+01
 Coeff:      0.389D-04-0.517D-04 0.946D-05 0.253D-03 0.165D-03 0.550D-03
 Coeff:     -0.143D-02-0.824D-03 0.310D-03 0.226D-02-0.931D-03-0.818D-02
 Coeff:     -0.301D-01 0.108D-01 0.549D-01 0.399D-01 0.102D+01-0.289D+01
 Coeff:      0.482D+00 0.232D+01
 Gap=     0.174 Goal=   None    Shift=    0.000
 RMSDP=3.57D-06 MaxDP=1.40D-04 DE=-3.51D-08 OVMax= 9.34D-05

 Cycle  22  Pass 1  IDiag  1:
 E= -299.252733396212     Delta-E=       -0.000000031940 Rises=F Damp=F
 DIIS: error= 9.52D-06 at cycle  22 NSaved=  20.
 NSaved=20 IEnMin=20 EnMin= -299.252733396212     IErMin=19 ErrMin= 3.71D-06
 ErrMax= 9.52D-06  0.00D+00 EMaxC= 1.00D-01 BMatC= 6.38D-10 BMatP= 3.53D-10
 IDIUse=1 WtCom= 1.00D+00 WtEn= 0.00D+00
 Coeff-Com:  0.284D-06 0.287D-04 0.182D-04-0.104D-03 0.385D-03-0.116D-02
 Coeff-Com: -0.713D-03 0.915D-03 0.174D-02-0.259D-02 0.691D-02-0.516D-02
 Coeff-Com: -0.101D-01-0.339D-01-0.240D-01 0.891D-01 0.278D+00-0.429D+00
 Coeff-Com: -0.421D-01 0.117D+01
 Coeff:      0.284D-06 0.287D-04 0.182D-04-0.104D-03 0.385D-03-0.116D-02
 Coeff:     -0.713D-03 0.915D-03 0.174D-02-0.259D-02 0.691D-02-0.516D-02
 Coeff:     -0.101D-01-0.339D-01-0.240D-01 0.891D-01 0.278D+00-0.429D+00
 Coeff:     -0.421D-01 0.117D+01
 Gap=     0.174 Goal=   None    Shift=    0.000
 RMSDP=6.35D-07 MaxDP=2.36D-05 DE=-3.19D-08 OVMax= 1.37D-05

 Cycle  23  Pass 1  IDiag  1:
 E= -299.252733398383     Delta-E=       -0.000000002171 Rises=F Damp=F
 DIIS: error= 8.47D-06 at cycle  23 NSaved=  20.
 NSaved=20 IEnMin=20 EnMin= -299.252733398383     IErMin=18 ErrMin= 3.71D-06
 ErrMax= 8.47D-06  0.00D+00 EMaxC= 1.00D-01 BMatC= 4.70D-10 BMatP= 3.53D-10
 IDIUse=1 WtCom= 1.00D+00 WtEn= 0.00D+00
 Coeff-Com:  0.152D-04-0.363D-04-0.118D-03 0.808D-04 0.969D-04-0.144D-03
 Coeff-Com:  0.143D-03 0.189D-03-0.551D-03 0.197D-02 0.173D-02 0.352D-02
 Coeff-Com:  0.185D-01 0.727D-01-0.439D+00 0.394D+00 0.609D+00-0.796D+00
 Coeff-Com: -0.171D+01 0.285D+01
 Coeff:      0.152D-04-0.363D-04-0.118D-03 0.808D-04 0.969D-04-0.144D-03
 Coeff:      0.143D-03 0.189D-03-0.551D-03 0.197D-02 0.173D-02 0.352D-02
 Coeff:      0.185D-01 0.727D-01-0.439D+00 0.394D+00 0.609D+00-0.796D+00
 Coeff:     -0.171D+01 0.285D+01
 Gap=     0.174 Goal=   None    Shift=    0.000
 RMSDP=5.67D-07 MaxDP=1.77D-05 DE=-2.17D-09 OVMax= 3.13D-05

 Cycle  24  Pass 1  IDiag  1:
 E= -299.252733399908     Delta-E=       -0.000000001525 Rises=F Damp=F
 DIIS: error= 1.86D-06 at cycle  24 NSaved=  20.
 NSaved=20 IEnMin=20 EnMin= -299.252733399908     IErMin=20 ErrMin= 1.86D-06
 ErrMax= 1.86D-06  0.00D+00 EMaxC= 1.00D-01 BMatC= 2.48D-11 BMatP= 3.53D-10
 IDIUse=1 WtCom= 1.00D+00 WtEn= 0.00D+00
 Coeff-Com:  0.427D-05 0.425D-06 0.571D-05 0.645D-04-0.303D-05-0.766D-04
 Coeff-Com: -0.857D-05 0.212D-03-0.885D-03-0.232D-02 0.257D-02 0.139D-01
 Coeff-Com: -0.625D-02 0.182D-01-0.151D+00 0.129D+00 0.604D-01-0.347D+00
 Coeff-Com:  0.981D-01 0.119D+01
 Coeff:      0.427D-05 0.425D-06 0.571D-05 0.645D-04-0.303D-05-0.766D-04
 Coeff:     -0.857D-05 0.212D-03-0.885D-03-0.232D-02 0.257D-02 0.139D-01
 Coeff:     -0.625D-02 0.182D-01-0.151D+00 0.129D+00 0.604D-01-0.347D+00
 Coeff:      0.981D-01 0.119D+01
 Gap=     0.174 Goal=   None    Shift=    0.000
 RMSDP=1.55D-07 MaxDP=4.80D-06 DE=-1.52D-09 OVMax= 8.53D-06

 Cycle  25  Pass 1  IDiag  1:
 E= -299.252733399992     Delta-E=       -0.000000000085 Rises=F Damp=F
 DIIS: error= 4.48D-08 at cycle  25 NSaved=  20.
 NSaved=20 IEnMin=20 EnMin= -299.252733399992     IErMin=20 ErrMin= 4.48D-08
 ErrMax= 4.48D-08  0.00D+00 EMaxC= 1.00D-01 BMatC= 7.42D-14 BMatP= 2.48D-11
 IDIUse=1 WtCom= 1.00D+00 WtEn= 0.00D+00
 Coeff-Com:  0.273D-05 0.872D-05-0.185D-04-0.573D-05-0.261D-05-0.380D-05
 Coeff-Com: -0.134D-04 0.184D-03-0.382D-03-0.561D-03 0.463D-03-0.125D-01
 Coeff-Com:  0.319D-01-0.168D-01-0.399D-01 0.442D-01 0.819D-01-0.136D+00
 Coeff-Com: -0.129D-01 0.106D+01
 Coeff:      0.273D-05 0.872D-05-0.185D-04-0.573D-05-0.261D-05-0.380D-05
 Coeff:     -0.134D-04 0.184D-03-0.382D-03-0.561D-03 0.463D-03-0.125D-01
 Coeff:      0.319D-01-0.168D-01-0.399D-01 0.442D-01 0.819D-01-0.136D+00
 Coeff:     -0.129D-01 0.106D+01
 Gap=     0.174 Goal=   None    Shift=    0.000
 RMSDP=1.71D-08 MaxDP=6.03D-07 DE=-8.46D-11 OVMax= 4.03D-07

 Cycle  26  Pass 1  IDiag  1:
 E= -299.252733399993     Delta-E=       -0.000000000001 Rises=F Damp=F
 DIIS: error= 5.06D-08 at cycle  26 NSaved=  20.
 NSaved=20 IEnMin=20 EnMin= -299.252733399993     IErMin=19 ErrMin= 4.48D-08
 ErrMax= 5.06D-08  0.00D+00 EMaxC= 1.00D-01 BMatC= 2.07D-14 BMatP= 7.42D-14
 IDIUse=1 WtCom= 1.00D+00 WtEn= 0.00D+00
 Large coefficients: NSaved= 20 BigCof=    0.00 CofMax=   10.00 Det=-7.39D-15
 Inversion failed.  Reducing to 19 matrices.
 Large coefficients: NSaved= 19 BigCof=    0.00 CofMax=   10.00 Det=-7.83D-15
 Inversion failed.  Reducing to 18 matrices.
 Large coefficients: NSaved= 18 BigCof=    0.00 CofMax=   10.00 Det=-7.84D-15
 Inversion failed.  Reducing to 17 matrices.
 Large coefficients: NSaved= 17 BigCof=    0.00 CofMax=   10.00 Det=-7.85D-15
 Inversion failed.  Reducing to 16 matrices.
 Coeff-Com:  0.225D-05-0.595D-05-0.420D-05 0.111D-03 0.218D-05-0.385D-03
 Coeff-Com:  0.256D-02-0.518D-02 0.487D-02 0.358D-02-0.765D-02-0.460D-02
 Coeff-Com:  0.174D-01-0.372D-01-0.151D+00 0.118D+01
 Coeff:      0.225D-05-0.595D-05-0.420D-05 0.111D-03 0.218D-05-0.385D-03
 Coeff:      0.256D-02-0.518D-02 0.487D-02 0.358D-02-0.765D-02-0.460D-02
 Coeff:      0.174D-01-0.372D-01-0.151D+00 0.118D+01
 Gap=     0.174 Goal=   None    Shift=    0.000
 RMSDP=2.16D-09 MaxDP=4.64D-08 DE=-9.09D-13 OVMax= 2.38D-07

 SCF Done:  E(ROHF) =  -299.252733400     A.U. after   26 cycles
            NFock= 26  Conv=0.22D-08     -V/T= 2.0004
 <Sx>= 0.0000 <Sy>= 0.0000 <Sz>= 1.0000 <S**2>= 2.0000 S= 1.0000
 <L.S>= 0.000000000000E+00
 KE= 2.991359787874D+02 PE=-8.754872790943D+02 EE= 1.943577924558D+02
 Annihilation of the first spin contaminant:
 S**2 before annihilation     2.0000,   after     2.0000
 Leave Link  502 at Tue Feb 13 19:10:48 2024, MaxMem=   536870912 cpu:               5.7 elap:               1.8
 (Enter /usr/site/hpc/x86_64/glibc-2.17/broadwell/gaussian/g16_a.03/pgi-16.5/g16/l801.exe)
 Windowed orbitals will be sorted by symmetry type.
 GenMOA:  NOpAll=  2 NOp2=2 NOpUse=  2 JSym2X=1
 FoFJK:  IHMeth= 1 ICntrl=       0 DoSepK=F KAlg= 0 I1Cent=           0 FoldK=F
 IRaf=         0 NMat=       1 IRICut=       1 DoRegI=T DoRafI=F ISym2E= 1 IDoP0=0 IntGTp=1.
 FoFCou: FMM=F IPFlag=           0 FMFlag=      100000 FMFlg1=           0
         NFxFlg=           0 DoJE=F BraDBF=F KetDBF=F FulRan=T
         wScrn=  0.000000 ICntrl=         0 IOpCl=  1 I1Cent=           0 NGrid=           0
         NMat0=    1 NMatS0=      1 NMatT0=    0 NMatD0=    1 NMtDS0=    0 NMtDT0=    0
 Petite list used in FoFCou.
 <Sx>= 0.0000 <Sy>= 0.0000 <Sz>= 1.0000 <S**2>= 2.0000 S= 1.0000
 ExpMin= 2.14D-01 ExpMax= 1.53D+04 ExpMxC= 5.22D+02 IAcc=3 IRadAn=         5 AccDes= 0.00D+00
 HarFok:  IExCor=  205 AccDes= 0.00D+00 IRadAn=         5 IDoV=-2 UseB2=F ITyADJ=14
 ICtDFT= 12500011 ScaDFX=  1.000000  1.000000  1.000000  1.000000
 Largest valence mixing into a core orbital is  1.21D-04
 Largest core mixing into a valence orbital is  2.73D-05
 Largest valence mixing into a core orbital is  1.32D-04
 Largest core mixing into a valence orbital is  3.95D-05
 Range of M.O.s used for correlation:     5   120
 NBasis=   120 NAE=    17 NBE=    15 NFC=     4 NFV=     0
 NROrb=    116 NOA=    13 NOB=    11 NVA=   103 NVB=   105
 Singles contribution to E2=   -0.1285290197D-01
 Leave Link  801 at Tue Feb 13 19:10:49 2024, MaxMem=   536870912 cpu:               1.2 elap:               0.3
 (Enter /usr/site/hpc/x86_64/glibc-2.17/broadwell/gaussian/g16_a.03/pgi-16.5/g16/l804.exe)
 Open-shell transformation, MDV=   536870912 ITran=4 ISComp=2.
 Unit  1 TFree=        727690 TCopy=        512959.
 Semi-Direct transformation.
 ModeAB=           4 MOrb=            13 LenV=     536310751
 LASXX=      4735279 LTotXX=     4735279 LenRXX=     9669871
 LTotAB=     4934592 MaxLAS=     9901528 LenRXY=           0
 NonZer=    14405150 LenScr=    22020096 LnRSAI=     9901528
 LnScr1=    15204352 LExtra=           0 Total=     56795847
 MaxDsk=          -1 SrtSym=           T ITran=            4
 DoSDTr:  NPSUse=  4
 JobTyp=1 Pass  1:  I=   1 to  13.
 (rs|ai) integrals will be sorted in core.
 Complete sort for first half transformation.
 First half transformation complete.
 Begin second half transformation for I=  10.
 Complete sort for second half transformation.
 Second half transformation complete.
 ModeAB=           4 MOrb=            11 LenV=     536310751
 LASXX=      4066330 LTotXX=     4066330 LenRXX=     7391156
 LTotAB=     3324826 MaxLAS=     8378216 LenRXY=           0
 NonZer=    11457486 LenScr=    17301504 LnRSAI=     8378216
 LnScr1=    12582912 LExtra=           0 Total=     45653788
 MaxDsk=          -1 SrtSym=           T ITran=            4
 DoSDTr:  NPSUse=  4
 JobTyp=2 Pass  1:  I=   1 to  11.
 (rs|ai) integrals will be sorted in core.
 Complete sort for first half transformation.
 First half transformation complete.
 Begin second half transformation for I=  10.
 Complete sort for second half transformation.
 Second half transformation complete.
 Spin components of T(2) and E(2):
     alpha-alpha T2 =       0.2682673109D-01 E2=     -0.1195479272D+00
     alpha-beta  T2 =       0.1599772969D+00 E2=     -0.6599684919D+00
     beta-beta   T2 =       0.4074028445D-01 E2=     -0.1282741244D+00
 ANorm=    0.1110946563D+01
 E2 =    -0.9206434455D+00 EUMP2 =    -0.30017337684549D+03
 (S**2,0)=  0.20000D+01           (S**2,1)=  0.20000D+01
 E(PUHF)=      -0.29925273340D+03        E(PMP2)=      -0.30017337685D+03
 Leave Link  804 at Tue Feb 13 19:10:51 2024, MaxMem=   536870912 cpu:              10.8 elap:               2.7
 (Enter /usr/site/hpc/x86_64/glibc-2.17/broadwell/gaussian/g16_a.03/pgi-16.5/g16/l913.exe)
 CIDS:  MDV=   536870912.
 Frozen-core window:  NFC=   4 NFV=   0.
 IFCWin=0 IBDFC=1 NFBD=     0     0 NFCmp=     0     0 NFFFC=     0     0
 Using original routines for 1st iteration.
 Using DD4UQ or CC4UQ for 2nd and later iterations.
 Keep R2 and R3 ints in memory in symmetry-blocked form, NReq=40122509.
 FoFCou: FMM=F IPFlag=           0 FMFlag=           0 FMFlg1=           0
         NFxFlg=           0 DoJE=F BraDBF=F KetDBF=F FulRan=T
         wScrn=  0.000000 ICntrl=       600 IOpCl=  0 I1Cent=           0 NGrid=           0
         NMat0=    1 NMatS0=   7260 NMatT0=    0 NMatD0=    1 NMtDS0=    0 NMtDT0=    0
 Petite list used in FoFCou.
 CIDS: In Core Option IDoMem=           1.
 CCSD(T)
 =======
 Iterations= 200 Convergence= 0.100D-06
 Produce multiple copies of IABC intergrals
 Iteration Nr.   1
 **********************
 DD1Dir will call FoFMem   1 times, MxPair=       420
 NAB=   143 NAA=    78 NBB=    55.
 DD1Dir will call FoFMem   1 times, MxPair=       420
 NAB=   143 NAA=    78 NBB=    55.
 MP4(R+Q)= -0.43864721D-02
 Maximum subspace dimension=  5
 A-vector RMS=  2.6084689D-04 Max=  1.3975390D-02 conv= 1.00D-05.
 RLE energy=       -0.9010557282
 E3=        0.24152138D-01        EROMP3=      -0.30014922471D+03
 E4(SDQ)=  -0.17913309D-01        ROMP4(SDQ)=  -0.30016713802D+03
 VARIATIONAL ENERGIES WITH THE FIRST-ORDER WAVEFUNCTION:
 DE(Corr)= -0.90061417     E(Corr)=     -300.15334757    
 NORM(A)=   0.11044525D+01
 Iteration Nr.   2
 **********************
 DD1Dir will call FoFMem   1 times, MxPair=       420
 NAB=   143 NAA=    78 NBB=    55.
 A-vector RMS=  2.6794047D-03 Max=  2.4610245D-02 conv= 1.00D-05.
 RLE energy=       -0.8944433560
 DE(Corr)= -0.87633690     E(CORR)=     -300.12907030     Delta= 2.43D-02
 NORM(A)=   0.11020745D+01
 Iteration Nr.   3
 **********************
 DD1Dir will call FoFMem   1 times, MxPair=       420
 NAB=   143 NAA=    78 NBB=    55.
 A-vector RMS=  1.9021976D-03 Max=  1.7979942D-02 conv= 1.00D-05.
 RLE energy=       -0.9038526447
 DE(Corr)= -0.88498038     E(CORR)=     -300.13771378     Delta=-8.64D-03
 NORM(A)=   0.11057297D+01
 Iteration Nr.   4
 **********************
 DD1Dir will call FoFMem   1 times, MxPair=       420
 NAB=   143 NAA=    78 NBB=    55.
 A-vector RMS=  1.2154809D-03 Max=  1.1718415D-02 conv= 1.00D-05.
 RLE energy=       -0.9084662390
 DE(Corr)= -0.89405774     E(CORR)=     -300.14679114     Delta=-9.08D-03
 NORM(A)=   0.11122835D+01
 Iteration Nr.   5
 **********************
 DD1Dir will call FoFMem   1 times, MxPair=       420
 NAB=   143 NAA=    78 NBB=    55.
 A-vector RMS=  4.9115427D-05 Max=  5.6701183D-03 conv= 1.00D-05.
 RLE energy=       -0.9094446122
 DE(Corr)= -0.90923988     E(CORR)=     -300.16197328     Delta=-1.52D-02
 NORM(A)=   0.11134327D+01
 Iteration Nr.   6
 **********************
 DD1Dir will call FoFMem   1 times, MxPair=       420
 NAB=   143 NAA=    78 NBB=    55.
 A-vector RMS=  4.6363361D-05 Max=  4.0052188D-03 conv= 1.00D-05.
 RLE energy=       -0.9092528150
 DE(Corr)= -0.90875924     E(CORR)=     -300.16149264     Delta= 4.81D-04
 NORM(A)=   0.11143757D+01
 Iteration Nr.   7
 **********************
 DD1Dir will call FoFMem   1 times, MxPair=       420
 NAB=   143 NAA=    78 NBB=    55.
 A-vector RMS=  2.0611615D-05 Max=  1.9731579D-03 conv= 1.00D-05.
 RLE energy=       -0.9093989067
 DE(Corr)= -0.90942832     E(CORR)=     -300.16216172     Delta=-6.69D-04
 NORM(A)=   0.11149904D+01
 Iteration Nr.   8
 **********************
 DD1Dir will call FoFMem   1 times, MxPair=       420
 NAB=   143 NAA=    78 NBB=    55.
 A-vector RMS=  9.8442800D-06 Max=  3.4061435D-04 conv= 1.00D-05.
 RLE energy=       -0.9094739441
 DE(Corr)= -0.90945455     E(CORR)=     -300.16218795     Delta=-2.62D-05
 NORM(A)=   0.11151057D+01
 Iteration Nr.   9
 **********************
 DD1Dir will call FoFMem   1 times, MxPair=       420
 NAB=   143 NAA=    78 NBB=    55.
 A-vector RMS=  3.9242675D-06 Max=  6.3964836D-05 conv= 1.00D-05.
 RLE energy=       -0.9094513349
 DE(Corr)= -0.90946046     E(CORR)=     -300.16219386     Delta=-5.91D-06
 NORM(A)=   0.11151168D+01
 Iteration Nr.  10
 **********************
 DD1Dir will call FoFMem   1 times, MxPair=       420
 NAB=   143 NAA=    78 NBB=    55.
 A-vector RMS=  2.1962813D-06 Max=  3.0367683D-05 conv= 1.00D-05.
 RLE energy=       -0.9094738002
 DE(Corr)= -0.90946860     E(CORR)=     -300.16220200     Delta=-8.14D-06
 NORM(A)=   0.11151250D+01
 Iteration Nr.  11
 **********************
 DD1Dir will call FoFMem   1 times, MxPair=       420
 NAB=   143 NAA=    78 NBB=    55.
 A-vector RMS=  1.1645800D-06 Max=  2.3505050D-05 conv= 1.00D-05.
 RLE energy=       -0.9094688132
 DE(Corr)= -0.90946838     E(CORR)=     -300.16220178     Delta= 2.15D-07
 NORM(A)=   0.11151246D+01
 Iteration Nr.  12
 **********************
 DD1Dir will call FoFMem   1 times, MxPair=       420
 NAB=   143 NAA=    78 NBB=    55.
 A-vector RMS=  6.8295044D-07 Max=  1.4742223D-05 conv= 1.00D-05.
 RLE energy=       -0.9094697421
 DE(Corr)= -0.90946998     E(CORR)=     -300.16220338     Delta=-1.60D-06
 NORM(A)=   0.11151249D+01
 Iteration Nr.  13
 **********************
 DD1Dir will call FoFMem   1 times, MxPair=       420
 NAB=   143 NAA=    78 NBB=    55.
 A-vector RMS=  1.5143884D-07 Max=  3.3088922D-06 conv= 1.00D-05.
 RLE energy=       -0.9094700987
 DE(Corr)= -0.90946992     E(CORR)=     -300.16220332     Delta= 6.56D-08
 NORM(A)=   0.11151253D+01
 CI/CC converged in   13 iterations to DelEn= 6.56D-08 Conv= 1.00D-07 ErrA1= 1.51D-07 Conv= 1.00D-05
 Wavefunction amplitudes converged. E(Corr)=     -300.16220332    
 Dominant configurations:
 ***********************
 Spin Case        I    J    A    B          Value
   ABAB          14   12   18   16      -0.157496D+00
 Largest amplitude= 1.57D-01
 Time for triples=      229.59 seconds.
 T4(CCSD)= -0.38534967D-01
 T5(CCSD)=  0.47153559D-03
 CCSD(T)= -0.30020026675D+03
 Discarding MO integrals.
 Leave Link  913 at Tue Feb 13 19:12:20 2024, MaxMem=   536870912 cpu:             352.8 elap:              88.2
 (Enter /usr/site/hpc/x86_64/glibc-2.17/broadwell/gaussian/g16_a.03/pgi-16.5/g16/l601.exe)
 Copying SCF densities to generalized density rwf, IOpCl= 0 IROHF=1.

 **********************************************************************

            Population analysis using the SCF density.

 **********************************************************************

 Orbital symmetries:
       Occupied  (A') (A') (A') (A') (A') (A') (A') (A') (A') (A')
                 (A') (A") (A') (A") (A') (A") (A')
       Virtual   (A") (A') (A') (A') (A") (A') (A") (A') (A') (A')
                 (A') (A") (A') (A') (A") (A') (A') (A') (A') (A")
                 (A') (A") (A') (A") (A') (A") (A') (A") (A') (A")
                 (A') (A') (A') (A') (A') (A") (A") (A') (A') (A")
                 (A') (A') (A") (A') (A') (A") (A') (A") (A') (A")
                 (A') (A") (A') (A") (A") (A') (A') (A') (A') (A")
                 (A') (A") (A') (A') (A') (A") (A') (A") (A') (A')
                 (A') (A") (A') (A") (A') (A") (A') (A") (A') (A")
                 (A') (A") (A') (A") (A") (A') (A') (A") (A") (A')
                 (A') (A') (A') (A') (A') (A") (A") (A') (A') (A')
                 (A') (A') (A')
 The electronic state is 3-A".
 Alpha  occ. eigenvalues --  -20.74017 -20.73940 -20.72946 -20.72830  -1.74516
 Alpha  occ. eigenvalues --   -1.69880  -1.17059  -1.08567  -0.83796  -0.83795
 Alpha  occ. eigenvalues --   -0.78657  -0.78140  -0.75187  -0.67409  -0.50991
 Alpha  occ. eigenvalues --   -0.50989  -0.44825
 Alpha virt. eigenvalues --    0.04950   0.41103   0.43550   0.67975   0.68007
 Alpha virt. eigenvalues --    0.70399   0.70560   0.71638   0.72886   0.77943
 Alpha virt. eigenvalues --    0.79332   0.79789   0.80680   0.82208   0.84714
 Alpha virt. eigenvalues --    0.87072   0.88106   1.41488   1.43220   1.43220
 Alpha virt. eigenvalues --    1.44068   1.45862   1.45949   1.56350   1.56352
 Alpha virt. eigenvalues --    1.59336   1.59683   1.88107   1.88107   1.92526
 Alpha virt. eigenvalues --    1.92581   2.42437   2.44396   2.46209   2.47996
 Alpha virt. eigenvalues --    2.48449   2.49170   2.49808   2.51565   3.87114
 Alpha virt. eigenvalues --    3.87121   3.91339   3.91351   4.08513   4.09269
 Alpha virt. eigenvalues --    4.17830   4.17852   4.21157   4.22373   4.95330
 Alpha virt. eigenvalues --    4.95330   4.96714   4.96719   5.06548   5.07711
 Alpha virt. eigenvalues --    5.07712   5.10852   5.19152   5.20507   5.28544
 Alpha virt. eigenvalues --    5.28544   5.30959   5.30975   5.41196   5.42289
 Alpha virt. eigenvalues --    5.59050   5.59050   5.61699   5.61700   6.10531
 Alpha virt. eigenvalues --    6.12629   6.23056   6.23056   6.25206   6.25384
 Alpha virt. eigenvalues --    6.50134   6.50134   6.54672   6.54695   6.72748
 Alpha virt. eigenvalues --    6.72748   6.76853   6.76928   6.82008   6.82017
 Alpha virt. eigenvalues --    6.82876   6.85912   6.94843   6.94844   6.95115
 Alpha virt. eigenvalues --    6.98812   7.32892   7.33896   7.62138   7.63681
 Alpha virt. eigenvalues --    7.79772   7.81044   7.81048   7.84380   8.06914
 Alpha virt. eigenvalues --    8.08033  14.02491  14.03997
          Condensed to atoms (all electrons):
               1          2          3          4
     1  O    7.839923   0.160417  -0.000000  -0.000000
     2  O    0.160417   7.839221   0.000012   0.000000
     3  O   -0.000000   0.000012   7.864009   0.135838
     4  O   -0.000000   0.000000   0.135838   7.864312
          Atomic-Atomic Spin Densities.
               1          2          3          4
     1  O    1.361437  -0.361820  -0.000000  -0.000000
     2  O   -0.361820   1.362193   0.000004   0.000000
     3  O   -0.000000   0.000004   0.000096  -0.000093
     4  O   -0.000000   0.000000  -0.000093   0.000093
 Mulliken charges and spin densities:
               1          2
     1  O   -0.000340   0.999617
     2  O    0.000349   1.000377
     3  O    0.000140   0.000006
     4  O   -0.000150  -0.000000
 Sum of Mulliken charges =  -0.00000   2.00000
 Mulliken charges and spin densities with hydrogens summed into heavy atoms:
               1          2
     1  O   -0.000340   0.999617
     2  O    0.000349   1.000377
     3  O    0.000140   0.000006
     4  O   -0.000150  -0.000000
 Electronic spatial extent (au):  <R**2>=            993.6683
 Charge=             -0.0000 electrons
 Dipole moment (field-independent basis, Debye):
    X=             -0.0018    Y=              0.0007    Z=              0.0000  Tot=              0.0019
 Quadrupole moment (field-independent basis, Debye-Ang):
   XX=            -20.8139   YY=            -20.6256   ZZ=            -18.8837
   XY=              0.3029   XZ=             -0.0000   YZ=             -0.0000
 Traceless Quadrupole moment (field-independent basis, Debye-Ang):
   XX=             -0.7062   YY=             -0.5179   ZZ=              1.2240
   XY=              0.3029   XZ=             -0.0000   YZ=             -0.0000
 Octapole moment (field-independent basis, Debye-Ang**2):
  XXX=              0.3515  YYY=             -3.0847  ZZZ=             -0.0000  XYY=             -1.6281
  XXY=             -1.4943  XXZ=              0.0000  XZZ=             -0.1554  YZZ=              2.1248
  YYZ=             -0.0000  XYZ=             -0.0000
 Hexadecapole moment (field-independent basis, Debye-Ang**3):
 XXXX=            -29.6158 YYYY=          -1023.5908 ZZZZ=            -12.6786 XXXY=             41.0376
 XXXZ=             -0.0000 YYYX=             47.8077 YYYZ=             -0.0000 ZZZX=             -0.0000
 ZZZY=              0.0000 XXYY=           -178.3897 XXZZ=             -7.0203 YYZZ=           -158.7531
 XXYZ=              0.0000 YYXZ=             -0.0000 ZZXY=             12.6551
 N-N= 8.274077445109D+01 E-N=-8.754872790858D+02  KE= 2.991359787874D+02
 Symmetry A'   KE= 2.874887282145D+02
 Symmetry A"   KE= 1.164725057293D+01
 Symmetry A'   SP= 1.000000000000D+00
 Symmetry A"   SP= 1.000000000000D+00
                          Isotropic Fermi Contact Couplings
        Atom                 a.u.       MegaHertz       Gauss      10(-4) cm-1
     1  O(17)              0.00000      -0.00000      -0.00000      -0.00000
     2  O(17)              0.00000      -0.00001      -0.00000      -0.00000
     3  O(17)              0.00000      -0.00062      -0.00022      -0.00021
     4  O(17)              0.00000      -0.00007      -0.00003      -0.00002
 --------------------------------------------------------
       Center         ----  Spin Dipole Couplings  ----
                      3XX-RR        3YY-RR        3ZZ-RR
 --------------------------------------------------------
     1   Atom       -0.550722     -0.550712      1.101434
     2   Atom       -0.550687     -0.550356      1.101043
     3   Atom       -0.002317      0.004684     -0.002367
     4   Atom       -0.001239      0.002499     -0.001260
 --------------------------------------------------------
                        XY            XZ            YZ
 --------------------------------------------------------
     1   Atom        1.650849      0.000000     -0.000000
     2   Atom        1.652972      0.000000     -0.000000
     3   Atom       -0.000392      0.000000     -0.000000
     4   Atom       -0.000183      0.000000     -0.000000
 --------------------------------------------------------


 ---------------------------------------------------------------------------------
              Anisotropic Spin Dipole Couplings in Principal Axis System
 ---------------------------------------------------------------------------------

       Atom             a.u.   MegaHertz   Gauss  10(-4) cm-1        Axes

              Baa    -2.2016   159.304    56.844    53.138  0.7071 -0.7071  0.0000
     1 O(17)  Bbb     1.1001   -79.605   -28.405   -26.553  0.7071  0.7071 -0.0000
              Bcc     1.1014   -79.699   -28.439   -26.585  0.0000  0.0000  1.0000
 
              Baa    -2.2035   159.443    56.893    53.185  0.7071 -0.7071  0.0000
     2 O(17)  Bbb     1.1010   -79.671   -28.428   -26.575  0.0000  0.0000  1.0000
              Bcc     1.1025   -79.773   -28.465   -26.609  0.7071  0.7071  0.0000
 
              Baa    -0.0024     0.171     0.061     0.057  0.0000  0.0000  1.0000
     3 O(17)  Bbb    -0.0023     0.169     0.060     0.056  0.9984  0.0557  0.0000
              Bcc     0.0047    -0.341    -0.122    -0.114 -0.0557  0.9984 -0.0000
 
              Baa    -0.0013     0.091     0.033     0.030  0.0000  0.0000  1.0000
     4 O(17)  Bbb    -0.0012     0.090     0.032     0.030  0.9988  0.0487  0.0000
              Bcc     0.0025    -0.181    -0.065    -0.061 -0.0487  0.9988 -0.0000
 

 ---------------------------------------------------------------------------------

 No NMR shielding tensors so no spin-rotation constants.
 Leave Link  601 at Tue Feb 13 19:12:20 2024, MaxMem=   536870912 cpu:               0.7 elap:               0.2
 (Enter /usr/site/hpc/x86_64/glibc-2.17/broadwell/gaussian/g16_a.03/pgi-16.5/g16/l9999.exe)
 1\1\GINC-N044\SP\ROCCSD(T)-FC\CC-pVTZ\O4(3)\ROOT\13-Feb-2024\0\\#p ROC
 CSD(T,MaxCyc=200)/cc-pVTZ SCF(MaxCyc=200)\\O2_O2_274\\0,3\O,0,-1.16,0.
 ,0.\O,0,0.,0.,0.\O,0,3.280975,3.280975,0.\O,0,4.101219,4.101219,0.\\Ve
 rsion=ES64L-G16RevA.03\State=3-A"\HF=-299.2527334\MP2=-300.1733768\MP3
 =-300.1492247\PUHF=-299.2527334\PMP2-0=-300.1733768\MP4SDQ=-300.167138
 \CCSD=-300.1622033\CCSD(T)=-300.2002667\RMSD=2.161e-09\PG=CS [SG(O4)]\
 \@


 "THE ACADEMIC HIERARCHY"


 THE PRESIDENT:
   LEAPS TALL BUILDINGS IN A SINGLE BOUND,
     IS MORE POWERFUL THAN A LOCOMOTIVE,
       IS FASTER THAN A SPEEDING BULLET,
         WALKS ON WATER,
           GIVES POLICY TO GOD.

 THE VICE PRESIDENT FOR ACADEMIC AFFAIRS:
   LEAPS SHORT BUILDINGS IN A SINGLE BOUND,
     IS MORE POWERFUL THAN A SWITCH ENGINE,
       IS JUST AS FAST AS A SPEEDING BULLET,
         WALKS ON WATER IF SEA IS CALM,
           TALKS WITH GOD.

 PROFESSOR:
   LEAPS SHORT BUILDINGS WITH A RUNNING START AND FAVORABLE WINDS,
     IS ALMOST AS POWERFUL AS A SWITCH ENGINE,
       CAN FIRE A SPEEDING BULLET,
         WALKS ON WATER IN AN INDOOR SWIMMING POOL,
          TALKS WITH GOD IF SPECIAL REQUEST IS APPROVED.

 ASSOCIATE PROFESSOR:
   BARELY CLEARS A QUONSET HUT,
     LOSES TUG OF WAR WITH LOCOMOTIVE,
       MISFIRES FREQUENTLY,
         SWIMS WELL,
           IS OCCASIONALLY ADDRESSED BY GOD.

 ASSISTANT PROFESSOR:
   MAKES HIGH MARKS ON WALLS WHEN TRYING TO LEAP TALL BUILDINGS,
     IS RUN OVER BY LOCOMOTIVES,
       CAN SOMETIMES HANDLE A GUN WITHOUT INFLICTING SELF INJURY,
         DOG PADDLES,
           TALKS TO ANIMALS.

 GRADUATE STUDENT:
   RUNS INTO BUILDINGS,
     RECOGNIZES LOCOMOTIVES TWO OUT OF THREE TIMES,
       IS NOT ISSUED AMMUNITION,
         CAN STAY AFLOAT WITH A LIFE JACKET,
           TALKS TO WALLS.

 UNDERGRADUATE AND WORK STUDY STUDENT:
   FALLS OVER DOORSTEP WHEN TRYING TO ENTER BUILDINGS,
     SAYS, "LOOK AT THE CHOO-CHOO,"
       WETS HIMSELF WITH A WATER PISTOL,
        PLAYS IN MUD PUDDLES,
          MUMBLES TO HIMSELF.

 DEPARTMENT SECRETARY:
   LIFTS TALL BUILDINGS AND WALKS UNDER THEM,
     KICKS LOCOMOTIVES OFF THE TRACKS,
       CATCHES SPEEDING BULLETS IN HER TEETH AND EATS THEM,
         FREEZES WATER WITH A SINGLE GLANCE,
           IS GOD.
 Job cpu time:       0 days  0 hours  6 minutes 13.1 seconds.
 Elapsed time:       0 days  0 hours  1 minutes 33.9 seconds.
 File lengths (MBytes):  RWF=   1020 Int=      0 D2E=      0 Chk=      8 Scr=      8
 Normal termination of Gaussian 16 at Tue Feb 13 19:12:20 2024.
